 Gaussian 16, Revision A.03,
 Gaussian 16:  ES64L-G16RevA.03 25-Dec-2016

 -----------------------------------
 #p cam-b3lyp/Def2SVP td=(nstates=5)
 -----------------------------------

 --------------------------------
 TDDFT excited states in gaussian
 --------------------------------
 Symbolic Z-matrix:
 Charge =  0 Multiplicity = 1

                         Standard orientation:
 ---------------------------------------------------------------------
 Center     Atomic      Atomic             Coordinates (Angstroms)
 Number     Number       Type             X           Y           Z
 ---------------------------------------------------------------------
      1         12           0        4.688100   -0.381516    0.488350
      2          6           0        4.852501    2.700920   -1.323769
      3          6           0        5.203458    1.434309    3.330927
      4          6           0        5.000082   -3.122367    2.052647
      5          6           0        5.319002   -2.015632   -2.524504
      6          7           0        4.974886    1.786611    0.831311
      7          6           0        4.956610    2.868376    0.058897
      8          6           0        4.982484    4.202404    0.863305
      9          6           0        5.656238    3.672661    2.207711
     10          6           0        5.223880    2.218585    2.139489
     11          6           0        7.180222    3.733280    2.190391
     12          6           0        3.545524    4.766128    1.126162
     13          6           0        3.491882    6.216870    1.613835
     14          1           0        2.394185    7.063931    1.172362
     15          7           0        4.564444   -0.775304    2.420315
     16          6           0        4.791497    0.088399    3.439015
     17          6           0        4.571603   -0.681110    4.682472
     18          6           0        4.383873   -2.109846    4.306221
     19          6           0        4.671728   -2.063118    2.895429
     20          6           0        4.507551   -0.050720    6.039769
     21          6           0        4.015387   -3.326336    5.095209
     22          8           0        4.133310   -4.507127    4.619393
     23          6           0        3.590890   -3.101721    6.488907
     24          7           0        5.316906   -2.285085   -0.093600
     25          6           0        5.302029   -3.309567    0.766167
     26          6           0        5.519326   -4.616231    0.062356
     27          6           0        5.444107   -4.294710   -1.499924
     28          6           0        5.267893   -2.758399   -1.416464
     29          6           0        6.841129   -5.332011    0.373013
     30          6           0        4.426552   -5.109422   -2.337328
     31          6           0        3.016838   -4.740998   -1.932273
     32          7           0        4.853895    0.190056   -1.598960
     33          6           0        5.144047   -0.651024   -2.682966
     34          6           0        5.257983    0.206717   -3.876854
     35          6           0        5.041174    1.497434   -3.398430
     36          6           0        4.832676    1.451828   -1.990332
     37          6           0        5.587287   -0.231853   -5.189733
     38          6           0        4.961573    2.907121   -3.745276
     39          8           0        4.963500    3.541826   -4.801041
     40          6           0        4.957227    3.755265   -2.397516
     41          6           0        3.848196    4.766579   -2.500495
     42          8           0        2.653653    4.406076   -2.522187
     43          8           0        4.350631    5.997412   -2.318423
     44          6           0        3.297506    7.045940   -2.379014
     45          1           0        5.592604    1.867238    4.254550
     46          1           0        5.008656   -4.102234    2.534544
     47          1           0        5.430463   -2.464075   -3.513407
     48          1           0        5.597789    4.987011    0.422606
     49          1           0        5.234464    4.152375    3.090719
     50          1           0        7.556748    4.010453    1.205849
     51          1           0        7.514448    2.730525    2.457351
     52          1           0        7.550648    4.391783    2.976480
     53          1           0        3.115010    4.263271    1.992103
     54          1           0        2.921437    4.661021    0.238022
     55          1           0        4.446973    6.722131    1.467476
     56          1           0        3.352526    6.208853    2.694906
     57          1           0        4.846307    0.984302    6.017028
     58          1           0        5.240098   -0.562642    6.663484
     59          1           0        3.517505   -0.139644    6.487242
     60          1           0        4.392839   -2.602765    7.033398
     61          1           0        3.281178   -4.074427    6.869394
     62          1           0        2.743750   -2.415223    6.493706
     63          1           0        4.739304   -5.332352    0.317625
     64          1           0        6.397837   -4.466933   -1.999335
     65          1           0        6.711263   -6.344073    0.757162
     66          1           0        7.400982   -4.715758    1.075926
     67          1           0        7.536222   -5.391888   -0.464052
     68          1           0        4.546572   -6.175493   -2.147501
     69          1           0        4.527454   -4.950311   -3.410992
     70          1           0        2.843008   -5.367751   -1.058319
     71          1           0        2.315820   -4.982865   -2.731826
     72          1           0        2.954874   -3.702606   -1.606100
     73          1           0        4.910184    0.291275   -5.864891
     74          1           0        5.483742   -1.312608   -5.283808
     75          1           0        6.624540    0.095749   -5.257837
     76          1           0        5.936133    4.227535   -2.321187
     77          1           0        3.600319    7.761190   -3.143837
     78          1           0        3.170279    7.416493   -1.361709
     79          1           0        2.326447    6.732158   -2.763623
     80         12           0       -4.251897   -0.949743   -0.285132
     81          6           0       -6.939023    1.375790    0.215183
     82          6           0       -2.206590    1.741487   -0.741873
     83          6           0       -1.965913   -2.963123   -1.172839
     84          6           0       -6.662589   -3.385164   -0.919942
     85          7           0       -4.639752    1.227431   -0.243484
     86          6           0       -5.687195    1.994920    0.017584
     87          6           0       -5.360052    3.506603    0.149293
     88          6           0       -4.012259    3.537863   -0.723255
     89          6           0       -3.565203    2.089706   -0.534457
     90          6           0       -4.259410    3.772213   -2.204247
     91          6           0       -5.092239    3.932935    1.635411
     92          6           0       -5.071609    5.443846    1.877231
     93          1           0       -5.599862    5.953992    3.139443
     94          7           0       -2.286474   -0.695645   -0.390472
     95          6           0       -1.624149    0.468693   -0.554539
     96          6           0       -0.195922    0.117740   -0.588863
     97          6           0       -0.077486   -1.365707   -0.597027
     98          6           0       -1.469543   -1.740486   -0.744660
     99          6           0        0.896269    1.145892   -0.530255
    100          6           0        1.095880   -2.293298   -0.502178
    101          8           0        0.990089   -3.542381   -0.769455
    102          6           0        2.392032   -1.679812   -0.177988
    103          7           0       -4.295319   -2.837010   -1.156164
    104          6           0       -3.159053   -3.516852   -1.389896
    105          6           0       -3.448459   -4.951505   -1.761919
    106          6           0       -5.011273   -5.158256   -1.492765
    107          6           0       -5.389209   -3.719253   -1.078251
    108          6           0       -3.124362   -5.343310   -3.203385
    109          6           0       -5.415011   -6.328037   -0.553992
    110          6           0       -4.951461   -6.041672    0.856153
    111          7           0       -6.405813   -1.073552   -0.169537
    112          6           0       -7.215864   -2.180229   -0.505954
    113          6           0       -8.621942   -1.747125   -0.372503
    114          6           0       -8.531720   -0.401143    0.013094
    115          6           0       -7.166032   -0.016467    0.093314
    116          6           0       -9.767960   -2.546382   -0.644428
    117          6           0       -9.281373    0.784703    0.360190
    118          8           0      -10.471107    1.036707    0.546678
    119          6           0       -8.285498    2.023275    0.383716
    120          6           0       -8.537168    2.797692    1.648406
    121          8           0       -8.294829    2.291588    2.758247
    122          8           0       -8.814220    4.076359    1.334381
    123          6           0       -9.060442    4.887131    2.556608
    124          1           0       -1.528159    2.504282   -1.124957
    125          1           0       -1.215696   -3.728397   -1.384956
    126          1           0       -7.472078   -4.113279   -1.005161
    127          1           0       -6.098664    4.170607   -0.283508
    128          1           0       -3.281865    4.220979   -0.297533
    129          1           0       -5.312364    3.761258   -2.443664
    130          1           0       -3.746094    2.970379   -2.718647
    131          1           0       -3.772306    4.697178   -2.525973
    132          1           0       -4.055187    3.686573    1.897248
    133          1           0       -5.798258    3.470610    2.297541
    134          1           0       -5.490702    6.002409    1.031468
    135          1           0       -4.030889    5.773198    1.926610
    136          1           0        0.505866    2.157424   -0.696979
    137          1           0        1.553345    0.963624   -1.387512
    138          1           0        1.485898    1.082236    0.386783
    139          1           0        2.635623   -0.932125   -0.929041
    140          1           0        3.089597   -2.512196   -0.066495
    141          1           0        2.298971   -1.148909    0.776003
    142          1           0       -2.890234   -5.634225   -1.133116
    143          1           0       -5.559946   -5.372028   -2.421788
    144          1           0       -2.420186   -6.193489   -3.276801
    145          1           0       -2.726614   -4.475113   -3.711890
    146          1           0       -3.986477   -5.596304   -3.818160
    147          1           0       -4.917417   -7.250584   -0.862946
    148          1           0       -6.481773   -6.525311   -0.543942
    149          1           0       -3.906196   -6.364671    0.842698
    150          1           0       -5.532851   -6.616033    1.574577
    151          1           0       -4.961179   -4.965142    1.062647
    152          1           0      -10.471441   -2.364920    0.157247
    153          1           0       -9.509354   -3.600760   -0.716408
    154          1           0      -10.070794   -2.131198   -1.609412
    155          1           0       -8.483326    2.619685   -0.507761
    156          1           0      -10.045379    5.349741    2.440068
    157          1           0       -8.191953    5.566683    2.644297
    158          1           0       -9.185479    4.356541    3.493244
 ---------------------------------------------------------------------

 SCF Done:  E(RCAM-B3LYP) =  -4069.79992189     A.U. after   19 cycles

 Excitation energies and oscillator strengths:

 Excited State   1:      Singlet-A      1.6514 eV  750.76 nm  f=0.3928  <S**2>=0.000
     310 -> 316       -0.12289
     311 -> 313        0.37201
     312 -> 314        0.57442
 This state for optimization and/or second-order correction.
 Total Energy, E(TD-HF/TD-DFT) =  -4069.73923248
 Copying the excited state density for this state as the 1-particle RhoCI density.

 Excited State   2:      Singlet-A      1.6787 eV  738.59 nm  f=0.4191  <S**2>=0.000
     309 -> 315       -0.13331
     311 -> 313        0.57289
     312 -> 314       -0.37283

 Excited State   3:      Singlet-A      2.1655 eV  572.55 nm  f=0.0052  <S**2>=0.000
     309 -> 313        0.52372
     310 -> 314       -0.37826
     311 -> 315        0.18702
     311 -> 316       -0.10246
     312 -> 316       -0.12827

 Excited State   4:      Singlet-A      2.1854 eV  567.34 nm  f=0.1660  <S**2>=0.000
     309 -> 313        0.37231
     310 -> 314        0.52027
     311 -> 315        0.15523
     312 -> 316        0.20086

 Excited State   5:      Singlet-A      2.3149 eV  535.59 nm  f=0.0001  <S**2>=0.000
     312 -> 313        0.70220

 The electronic state is 1-A.
 Alpha  occ. eigenvalues --  -46.87937 -46.87592 -19.26818 -19.26318 -19.19664
 Alpha  occ. eigenvalues --  -19.19129 -19.19122 -19.18896 -19.18451 -19.17996
 Alpha  occ. eigenvalues --  -14.42622 -14.42417 -14.41296 -14.41272 -14.39484
 Alpha  occ. eigenvalues --  -14.39317 -14.38729 -14.38533 -10.39651 -10.39056
 Alpha  occ. eigenvalues --  -10.36079 -10.35524 -10.34681 -10.34172 -10.32195
 Alpha  occ. eigenvalues --  -10.31739 -10.31641 -10.31163 -10.31140 -10.30931
 Alpha  occ. eigenvalues --  -10.30775 -10.30679 -10.30403 -10.30235 -10.30137
 Alpha  occ. eigenvalues --  -10.30080 -10.29939 -10.29859 -10.29811 -10.29429
 Alpha  occ. eigenvalues --  -10.29375 -10.29370 -10.29068 -10.28982 -10.28619
 Alpha  occ. eigenvalues --  -10.28601 -10.28588 -10.28377 -10.28328 -10.27988
 Alpha  occ. eigenvalues --  -10.27954 -10.27923 -10.27863 -10.27765 -10.27614
 Alpha  occ. eigenvalues --  -10.27599 -10.27492 -10.27485 -10.27479 -10.27455
 Alpha  occ. eigenvalues --  -10.27430 -10.27355 -10.27185 -10.27177 -10.27109
 Alpha  occ. eigenvalues --  -10.27005 -10.26995 -10.26831 -10.26628 -10.26455
 Alpha  occ. eigenvalues --  -10.26445 -10.26129 -10.26102 -10.25973 -10.25851
 Alpha  occ. eigenvalues --  -10.25792 -10.25754 -10.25398 -10.25205 -10.25069
 Alpha  occ. eigenvalues --  -10.24963 -10.24872 -10.24808 -10.24690 -10.24644
 Alpha  occ. eigenvalues --  -10.22478  -3.16654  -3.16341  -1.91545  -1.91224
 Alpha  occ. eigenvalues --   -1.91124  -1.90967  -1.90812  -1.90650  -1.17173
 Alpha  occ. eigenvalues --   -1.16611  -1.08931  -1.08605  -1.07683  -1.07287
 Alpha  occ. eigenvalues --   -1.07234  -1.06912  -1.04791  -1.04413  -1.03900
 Alpha  occ. eigenvalues --   -1.03609  -1.03413  -1.02977  -1.02574  -1.02043
 Alpha  occ. eigenvalues --   -0.92215  -0.91917  -0.89513  -0.89436  -0.89323
 Alpha  occ. eigenvalues --   -0.89014  -0.88172  -0.88074  -0.87982  -0.87812
 Alpha  occ. eigenvalues --   -0.87728  -0.87577  -0.87422  -0.87296  -0.85231
 Alpha  occ. eigenvalues --   -0.84948  -0.83890  -0.83712  -0.83532  -0.82933
 Alpha  occ. eigenvalues --   -0.82627  -0.82585  -0.81843  -0.81557  -0.80760
 Alpha  occ. eigenvalues --   -0.80463  -0.78942  -0.78602  -0.77364  -0.77060
 Alpha  occ. eigenvalues --   -0.76958  -0.76826  -0.76102  -0.75705  -0.74736
 Alpha  occ. eigenvalues --   -0.74682  -0.72883  -0.72604  -0.71805  -0.71499
 Alpha  occ. eigenvalues --   -0.69712  -0.69410  -0.69056  -0.68763  -0.67852
 Alpha  occ. eigenvalues --   -0.67715  -0.67473  -0.67291  -0.65545  -0.65196
 Alpha  occ. eigenvalues --   -0.65075  -0.64755  -0.64704  -0.64620  -0.64160
 Alpha  occ. eigenvalues --   -0.63906  -0.62508  -0.62225  -0.60880  -0.60391
 Alpha  occ. eigenvalues --   -0.59994  -0.59696  -0.59112  -0.58929  -0.58626
 Alpha  occ. eigenvalues --   -0.58364  -0.57934  -0.57532  -0.57436  -0.57291
 Alpha  occ. eigenvalues --   -0.56554  -0.56332  -0.56273  -0.55959  -0.55739
 Alpha  occ. eigenvalues --   -0.55652  -0.55419  -0.55207  -0.54646  -0.54456
 Alpha  occ. eigenvalues --   -0.54170  -0.53865  -0.53851  -0.53450  -0.53363
 Alpha  occ. eigenvalues --   -0.53301  -0.53149  -0.53069  -0.52851  -0.52812
 Alpha  occ. eigenvalues --   -0.52392  -0.52065  -0.51884  -0.51843  -0.51726
 Alpha  occ. eigenvalues --   -0.51672  -0.51386  -0.51146  -0.50763  -0.50632
 Alpha  occ. eigenvalues --   -0.50386  -0.50118  -0.49841  -0.49730  -0.49597
 Alpha  occ. eigenvalues --   -0.49548  -0.49460  -0.49326  -0.49149  -0.49036
 Alpha  occ. eigenvalues --   -0.48847  -0.48803  -0.48548  -0.48470  -0.48383
 Alpha  occ. eigenvalues --   -0.48201  -0.47695  -0.47659  -0.47322  -0.47089
 Alpha  occ. eigenvalues --   -0.46847  -0.46689  -0.46651  -0.46602  -0.46486
 Alpha  occ. eigenvalues --   -0.46206  -0.46093  -0.46013  -0.45829  -0.45758
 Alpha  occ. eigenvalues --   -0.45227  -0.45095  -0.44872  -0.44607  -0.44449
 Alpha  occ. eigenvalues --   -0.44397  -0.44264  -0.44221  -0.44041  -0.44010
 Alpha  occ. eigenvalues --   -0.43938  -0.43867  -0.43715  -0.43500  -0.43377
 Alpha  occ. eigenvalues --   -0.43303  -0.43146  -0.42911  -0.42823  -0.42762
 Alpha  occ. eigenvalues --   -0.42472  -0.42438  -0.42096  -0.41903  -0.41828
 Alpha  occ. eigenvalues --   -0.41582  -0.41485  -0.41309  -0.41213  -0.41044
 Alpha  occ. eigenvalues --   -0.40912  -0.40884  -0.40659  -0.40605  -0.40489
 Alpha  occ. eigenvalues --   -0.40420  -0.40239  -0.39589  -0.39376  -0.38534
 Alpha  occ. eigenvalues --   -0.38296  -0.38213  -0.37944  -0.37583  -0.37469
 Alpha  occ. eigenvalues --   -0.37197  -0.37161  -0.37117  -0.36859  -0.36733
 Alpha  occ. eigenvalues --   -0.36168  -0.36121  -0.34452  -0.34284  -0.34182
 Alpha  occ. eigenvalues --   -0.33821  -0.33351  -0.33085  -0.31462  -0.31367
 Alpha  occ. eigenvalues --   -0.31178  -0.30904  -0.30306  -0.29901  -0.29599
 Alpha  occ. eigenvalues --   -0.29551  -0.29279  -0.29147  -0.24200  -0.23955
 Alpha  occ. eigenvalues --   -0.21314  -0.21033
 Alpha virt. eigenvalues --   -0.08955  -0.08745  -0.02020  -0.01646  -0.00302
 Alpha virt. eigenvalues --   -0.00122   0.01930   0.02213   0.03273   0.04373
 Alpha virt. eigenvalues --    0.04485   0.04810   0.05054   0.05203   0.06225

 Mulliken charges:
               1
     1  Mg   0.576015
     2  C   -0.002725
     3  C   -0.092853
     4  C   -0.037907
     5  C   -0.044447
     6  N   -0.247862
     7  C   -0.056568
     8  C   -0.012635
     9  C   -0.086263
    10  C    0.046083
    11  C    0.104858
    12  C    0.051018
    13  C   -0.071426
    14  H    0.033528
    15  N   -0.420671
    16  C    0.169269
    17  C   -0.179033
    18  C   -0.003584
    19  C    0.149020
    20  C    0.110783
    21  C    0.013191
    22  O   -0.246938
    23  C    0.062372
    24  N   -0.321551
    25  C    0.029014
    26  C   -0.017379
    27  C   -0.021917
    28  C    0.059794
    29  C    0.078239
    30  C    0.060319
    31  C    0.020443
    32  N   -0.309510
    33  C    0.067525
    34  C   -0.168280
    35  C    0.007674
    36  C    0.077146
    37  C    0.127899
    38  C    0.044371
    39  O   -0.188289
    40  C   -0.007181
    41  C    0.214217
    42  O   -0.263097
    43  O   -0.303082
    44  C    0.157531
    45  H   -0.018884
    46  H   -0.014835
    47  H   -0.040799
    48  H    0.000973
    49  H   -0.004297
    50  H    0.025700
    51  H    0.017791
    52  H    0.016991
    53  H    0.011074
    54  H    0.041106
    55  H    0.019549
    56  H    0.019211
    57  H    0.005847
    58  H    0.027447
    59  H    0.039984
    60  H    0.037255
    61  H    0.036881
    62  H    0.031597
    63  H    0.019720
    64  H    0.006684
    65  H    0.023107
    66  H    0.010368
    67  H    0.004515
    68  H   -0.002225
    69  H   -0.006163
    70  H    0.004975
    71  H    0.006267
    72  H    0.005850
    73  H    0.046465
    74  H    0.011312
    75  H    0.046200
    76  H    0.036256
    77  H    0.044683
    78  H    0.046957
    79  H    0.051224
    80  Mg   0.838560
    81  C   -0.016508
    82  C   -0.089059
    83  C   -0.046341
    84  C   -0.065314
    85  N   -0.254286
    86  C   -0.049881
    87  C   -0.015240
    88  C   -0.089728
    89  C    0.043788
    90  C    0.114035
    91  C    0.062574
    92  C   -0.077368
    93  H    0.033445
    94  N   -0.423622
    95  C    0.160855
    96  C   -0.177866
    97  C    0.008385
    98  C    0.152615
    99  C    0.078234
   100  C    0.061214
   101  O   -0.244357
   102  C   -0.079378
   103  N   -0.350512
   104  C    0.037827
   105  C   -0.020017
   106  C   -0.034824
   107  C    0.089378
   108  C    0.073420
   109  C    0.034791
   110  C   -0.007636
   111  N   -0.324017
   112  C    0.078522
   113  C   -0.163489
   114  C    0.002419
   115  C    0.095908
   116  C    0.131524
   117  C    0.042208
   118  O   -0.188183
   119  C    0.000971
   120  C    0.211271
   121  O   -0.251382
   122  O   -0.305421
   123  C    0.152174
   124  H   -0.008760
   125  H   -0.016614
   126  H   -0.040780
   127  H   -0.000764
   128  H   -0.003259
   129  H    0.021272
   130  H    0.016816
   131  H    0.018293
   132  H    0.013638
   133  H    0.037031
   134  H    0.021117
   135  H    0.019339
   136  H    0.022082
   137  H    0.051761
   138  H    0.054453
   139  H    0.135168
   140  H    0.122970
   141  H    0.120699
   142  H    0.014013
   143  H    0.012454
   144  H    0.023877
   145  H    0.012155
   146  H    0.006029
   147  H    0.005962
   148  H    0.003617
   149  H    0.011099
   150  H    0.017832
   151  H    0.030153
   152  H    0.045694
   153  H    0.008327
   154  H    0.046939
   155  H    0.035343
   156  H    0.043801
   157  H    0.049418
   158  H    0.053235
 Sum of Mulliken charges =  -0.00000

 Dipole moment (field-independent basis, Debye):
    X=              4.3387    Y=              2.7912    Z=              2.4596  Tot=              5.7153
 Quadrupole moment (field-independent basis, Debye-Ang):
   XX=           -553.0843   YY=           -470.7416   ZZ=           -511.6517
   XY=             14.9233   XZ=             34.4875   YZ=             39.2521

 Normal termination of Gaussian 16 at Fri Sep 10 08:48:08 2021.
