 Gaussian 16, Revision A.03,
 Gaussian 16:  ES64L-G16RevA.03 25-Dec-2016

 -----------------------------------
 #p cam-b3lyp/Def2SVP td=(nstates=5)
 -----------------------------------

 --------------------------------
 TDDFT excited states in gaussian
 --------------------------------
 Symbolic Z-matrix:
 Charge =  0 Multiplicity = 1

                         Standard orientation:
 ---------------------------------------------------------------------
 Center     Atomic      Atomic             Coordinates (Angstroms)
 Number     Number       Type             X           Y           Z
 ---------------------------------------------------------------------
      1         12           0       -3.231011   -2.149225    0.273323
      2          6           0       -5.382812    0.661018   -0.260059
      3          6           0       -3.816970   -3.024990   -2.972097
      4          6           0       -1.708204   -4.871151    0.846733
      5          6           0       -3.726747   -1.692552    3.692586
      6          7           0       -4.460918   -1.218625   -1.314744
      7          6           0       -5.189216   -0.110456   -1.408098
      8          6           0       -5.665797    0.195184   -2.859590
      9          6           0       -5.604119   -1.280229   -3.460716
     10          6           0       -4.538646   -1.868223   -2.552447
     11          6           0       -6.896926   -2.068151   -3.275430
     12          6           0       -4.692269    1.162236   -3.613768
     13          6           0       -5.244727    1.767302   -4.907615
     14          1           0       -4.877822    3.131864   -5.255032
     15          7           0       -2.424700   -3.453247   -0.972565
     16          6           0       -2.776063   -3.663625   -2.263910
     17          6           0       -1.883448   -4.733052   -2.760139
     18          6           0       -1.113475   -5.258515   -1.598621
     19          6           0       -1.745018   -4.557641   -0.509903
     20          6           0       -1.789004   -5.122213   -4.203532
     21          6           0        0.005742   -6.244872   -1.486439
     22          8           0        0.373378   -6.731550   -0.362801
     23          6           0        0.610014   -6.699506   -2.751826
     24          7           0       -2.951837   -3.282927    2.003762
     25          6           0       -2.201848   -4.390312    1.989692
     26          6           0       -1.913240   -4.872009    3.380596
     27          6           0       -2.422173   -3.719773    4.361969
     28          6           0       -3.022387   -2.758731    3.306313
     29          6           0       -2.565088   -6.204137    3.776247
     30          6           0       -1.395146   -3.154310    5.374829
     31          6           0       -0.309177   -2.402050    4.638708
     32          7           0       -4.201738   -0.671066    1.531807
     33          6           0       -4.305760   -0.691882    2.930170
     34          6           0       -5.141975    0.458835    3.318324
     35          6           0       -5.482223    1.063483    2.109822
     36          6           0       -4.917453    0.321425    1.033404
     37          6           0       -5.539542    0.790740    4.643546
     38          6           0       -6.211954    2.149687    1.476174
     39          8           0       -6.807993    3.147738    1.883758
     40          6           0       -6.278097    1.862972   -0.088833
     41          6           0       -5.894986    3.132130   -0.800010
     42          8           0       -4.734531    3.584340   -0.721166
     43          8           0       -6.876859    3.481959   -1.645046
     44          6           0       -6.547354    4.717693   -2.404350
     45          1           0       -4.111878   -3.524318   -3.897106
     46          1           0       -1.099122   -5.742356    1.096652
     47          1           0       -3.854461   -1.438031    4.746323
     48          1           0       -6.681479    0.584511   -2.931969
     49          1           0       -5.263699   -1.283950   -4.496004
     50          1           0       -7.604835   -1.529720   -2.645447
     51          1           0       -6.601678   -3.004668   -2.801873
     52          1           0       -7.325214   -2.342093   -4.239952
     53          1           0       -3.858192    0.588959   -4.018404
     54          1           0       -4.357898    1.964243   -2.954749
     55          1           0       -6.323997    1.631199   -4.982195
     56          1           0       -4.841714    1.202300   -5.748182
     57          1           0       -2.591736   -4.678661   -4.791265
     58          1           0       -1.974073   -6.194880   -4.256861
     59          1           0       -0.809800   -4.896648   -4.626157
     60          1           0       -0.158220   -7.162292   -3.371660
     61          1           0        1.451609   -7.332525   -2.472802
     62          1           0        0.967548   -5.830340   -3.304700
     63          1           0       -0.844519   -5.021267    3.528869
     64          1           0       -3.254565   -4.050198    4.983754
     65          1           0       -1.851322   -6.961160    4.102065
     66          1           0       -3.150478   -6.557921    2.928044
     67          1           0       -3.328816   -6.127372    4.549709
     68          1           0       -0.911708   -3.965821    5.917676
     69          1           0       -1.839963   -2.482758    6.109272
     70          1           0        0.377028   -3.194232    4.341382
     71          1           0        0.180295   -1.691430    5.305527
     72          1           0       -0.691165   -1.942588    3.726860
     73          1           0       -5.419351    1.870012    4.736790
     74          1           0       -4.938801    0.260021    5.381823
     75          1           0       -6.577312    0.457927    4.632369
     76          1           0       -7.302045    1.563098   -0.309576
     77          1           0       -7.355578    5.427654   -2.228388
     78          1           0       -6.360249    4.408754   -3.432919
     79          1           0       -5.690048    5.289041   -2.046682
     80         12           0        3.363141    2.276005    0.037137
     81          6           0        5.099387   -0.728239   -0.878801
     82          6           0        3.241802    1.057522    3.220715
     83          6           0        1.445682    4.691600    0.782607
     84          6           0        2.623202    2.712821   -3.340343
     85          7           0        4.109884    0.395823    0.931284
     86          6           0        4.808589   -0.642953    0.498733
     87          6           0        5.287940   -1.606466    1.617409
     88          6           0        4.179248   -1.258511    2.725835
     89          6           0        3.841476    0.167168    2.294549
     90          6           0        2.922364   -2.104218    2.606034
     91          6           0        6.733142   -1.263373    2.123049
     92          6           0        7.384165   -2.342969    2.990468
     93          1           0        8.824715   -2.553041    2.875748
     94          7           0        2.892915    3.043852    1.805715
     95          6           0        2.921990    2.415137    2.999518
     96          6           0        2.467040    3.405928    3.987204
     97          6           0        2.010049    4.619842    3.257640
     98          6           0        2.080585    4.147308    1.889497
     99          6           0        2.567535    3.183684    5.468399
    100          6           0        1.568790    5.976735    3.716253
    101          8           0        0.987908    6.799506    2.923499
    102          6           0        1.752408    6.278198    5.143451
    103          7           0        2.023945    3.409288   -1.078473
    104          6           0        1.355590    4.435027   -0.522521
    105          6           0        0.665789    5.270680   -1.574314
    106          6           0        1.211055    4.730989   -2.977528
    107          6           0        2.092585    3.566409   -2.475478
    108          6           0       -0.861848    5.219239   -1.568414
    109          6           0        1.843576    5.776823   -3.936072
    110          6           0        3.133881    6.301491   -3.348499
    111          7           0        3.922669    1.314028   -1.814770
    112          6           0        3.477225    1.640932   -3.114312
    113          6           0        4.042899    0.633353   -4.034756
    114          6           0        4.765119   -0.230022   -3.197206
    115          6           0        4.640576    0.196890   -1.847493
    116          6           0        3.821088    0.572346   -5.439465
    117          6           0        5.595801   -1.411601   -3.146761
    118          8           0        6.110366   -2.148251   -3.987167
    119          6           0        5.745339   -1.859777   -1.629133
    120          6           0        7.200931   -2.133655   -1.366964
    121          8           0        8.035775   -1.213100   -1.414178
    122          8           0        7.335339   -3.385755   -0.893099
    123          6           0        8.760502   -3.700581   -0.607428
    124          1           0        2.948844    0.670669    4.197135
    125          1           0        0.860416    5.594546    0.971379
    126          1           0        2.519469    2.835958   -4.420510
    127          1           0        5.240987   -2.658281    1.361936
    128          1           0        4.605242   -1.263575    3.725766
    129          1           0        2.934358   -2.720380    1.719282
    130          1           0        2.098685   -1.403363    2.568648
    131          1           0        2.776014   -2.692992    3.516127
    132          1           0        6.672333   -0.446624    2.853775
    133          1           0        7.377886   -1.023698    1.299956
    134          1           0        6.850238   -3.299021    2.928468
    135          1           0        7.288621   -2.050120    4.038854
    136          1           0        2.788683    2.135310    5.703763
    137          1           0        1.568469    3.350748    5.885315
    138          1           0        3.270279    3.866894    5.950105
    139          1           0        1.210715    5.547597    5.739477
    140          1           0        1.461387    7.323821    5.261070
    141          1           0        2.813351    6.162555    5.391766
    142          1           0        0.930785    6.315948   -1.472852
    143          1           0        0.408840    4.280615   -3.580403
    144          1           0       -1.331688    6.215115   -1.460917
    145          1           0       -1.178149    4.561369   -0.769840
    146          1           0       -1.311616    4.753204   -2.443474
    147          1           0        1.180440    6.638202   -4.047533
    148          1           0        2.037998    5.389266   -4.930556
    149          1           0        2.792938    7.082408   -2.662184
    150          1           0        3.770954    6.712581   -4.129001
    151          1           0        3.635110    5.532204   -2.749664
    152          1           0        4.778640    0.362058   -5.897023
    153          1           0        3.395179    1.500280   -5.815376
    154          1           0        3.108968   -0.255737   -5.488682
    155          1           0        5.129571   -2.748857   -1.487923
    156          1           0        9.006478   -4.606617   -1.169824
    157          1           0        8.839364   -3.754830    0.494659
    158          1           0        9.510109   -3.011397   -0.978313
 ---------------------------------------------------------------------

 SCF Done:  E(RCAM-B3LYP) =  -4069.81235624     A.U. after   19 cycles

 Excitation energies and oscillator strengths:

 Excited State   1:      Singlet-A      1.6400 eV  755.98 nm  f=0.0258  <S**2>=0.000
     309 -> 315        0.10990
     310 -> 316        0.12357
     311 -> 313        0.45808
     312 -> 314        0.51354
 This state for optimization and/or second-order correction.
 Total Energy, E(TD-HF/TD-DFT) =  -4069.75208593
 Copying the excited state density for this state as the 1-particle RhoCI density.

 Excited State   2:      Singlet-A      1.7077 eV  726.03 nm  f=0.6508  <S**2>=0.000
     309 -> 315        0.13641
     310 -> 316       -0.12135
     311 -> 313        0.51027
     312 -> 314       -0.45512

 Excited State   3:      Singlet-A      2.1784 eV  569.16 nm  f=0.0200  <S**2>=0.000
     309 -> 313        0.32539
     310 -> 314        0.55874
     311 -> 315       -0.13282
     312 -> 316       -0.22922

 Excited State   4:      Singlet-A      2.1991 eV  563.80 nm  f=0.1506  <S**2>=0.000
     309 -> 313        0.55157
     310 -> 314       -0.31964
     311 -> 315       -0.24534
     312 -> 316        0.14370

 Excited State   5:      Singlet-A      2.2307 eV  555.81 nm  f=0.0001  <S**2>=0.000
     312 -> 313        0.70695

 The electronic state is 1-A.
 Alpha  occ. eigenvalues --  -46.87936 -46.87379 -19.26443 -19.26162 -19.19222
 Alpha  occ. eigenvalues --  -19.18971 -19.18887 -19.18402 -19.18272 -19.17857
 Alpha  occ. eigenvalues --  -14.42589 -14.42215 -14.41614 -14.41047 -14.39531
 Alpha  occ. eigenvalues --  -14.39070 -14.38721 -14.38338 -10.39259 -10.38896
 Alpha  occ. eigenvalues --  -10.35509 -10.35078 -10.34498 -10.34035 -10.31830
 Alpha  occ. eigenvalues --  -10.31592 -10.31545 -10.31067 -10.31035 -10.30730
 Alpha  occ. eigenvalues --  -10.30705 -10.30652 -10.30378 -10.30133 -10.30121
 Alpha  occ. eigenvalues --  -10.30104 -10.29806 -10.29753 -10.29555 -10.29379
 Alpha  occ. eigenvalues --  -10.29161 -10.29143 -10.28893 -10.28722 -10.28484
 Alpha  occ. eigenvalues --  -10.28451 -10.28441 -10.28247 -10.28132 -10.27908
 Alpha  occ. eigenvalues --  -10.27863 -10.27860 -10.27781 -10.27749 -10.27709
 Alpha  occ. eigenvalues --  -10.27692 -10.27543 -10.27507 -10.27404 -10.27291
 Alpha  occ. eigenvalues --  -10.27263 -10.27213 -10.27203 -10.27120 -10.26884
 Alpha  occ. eigenvalues --  -10.26831 -10.26830 -10.26599 -10.26462 -10.26349
 Alpha  occ. eigenvalues --  -10.26347 -10.26191 -10.26131 -10.25980 -10.25851
 Alpha  occ. eigenvalues --  -10.25758 -10.25672 -10.25658 -10.25656 -10.25261
 Alpha  occ. eigenvalues --  -10.24949 -10.24948 -10.24630 -10.24472 -10.24445
 Alpha  occ. eigenvalues --  -10.24345  -3.16678  -3.16130  -1.91560  -1.91147
 Alpha  occ. eigenvalues --   -1.91012  -1.90988  -1.90600  -1.90437  -1.16795
 Alpha  occ. eigenvalues --   -1.16456  -1.08732  -1.08476  -1.07289  -1.06817
 Alpha  occ. eigenvalues --   -1.06757  -1.06645  -1.04717  -1.04219  -1.03917
 Alpha  occ. eigenvalues --   -1.03374  -1.03372  -1.02740  -1.02554  -1.01820
 Alpha  occ. eigenvalues --   -0.92109  -0.91729  -0.89767  -0.89331  -0.89185
 Alpha  occ. eigenvalues --   -0.88876  -0.88521  -0.87998  -0.87834  -0.87820
 Alpha  occ. eigenvalues --   -0.87589  -0.87388  -0.87348  -0.86864  -0.85130
 Alpha  occ. eigenvalues --   -0.84724  -0.84217  -0.83473  -0.83072  -0.82765
 Alpha  occ. eigenvalues --   -0.82618  -0.82370  -0.81737  -0.81370  -0.80732
 Alpha  occ. eigenvalues --   -0.80188  -0.78896  -0.78392  -0.77407  -0.77109
 Alpha  occ. eigenvalues --   -0.76877  -0.76595  -0.76066  -0.75587  -0.75104
 Alpha  occ. eigenvalues --   -0.74326  -0.72927  -0.72434  -0.71827  -0.71219
 Alpha  occ. eigenvalues --   -0.70236  -0.69389  -0.69012  -0.68557  -0.67773
 Alpha  occ. eigenvalues --   -0.67346  -0.67315  -0.66947  -0.65443  -0.65020
 Alpha  occ. eigenvalues --   -0.65010  -0.64805  -0.64503  -0.64482  -0.64380
 Alpha  occ. eigenvalues --   -0.63859  -0.62463  -0.62037  -0.60560  -0.60038
 Alpha  occ. eigenvalues --   -0.59938  -0.59532  -0.59149  -0.58693  -0.58658
 Alpha  occ. eigenvalues --   -0.58144  -0.57727  -0.57480  -0.57341  -0.56921
 Alpha  occ. eigenvalues --   -0.56433  -0.56130  -0.55970  -0.55656  -0.55643
 Alpha  occ. eigenvalues --   -0.55560  -0.55207  -0.54922  -0.54744  -0.54158
 Alpha  occ. eigenvalues --   -0.54039  -0.53656  -0.53458  -0.53324  -0.53105
 Alpha  occ. eigenvalues --   -0.52957  -0.52894  -0.52845  -0.52741  -0.52639
 Alpha  occ. eigenvalues --   -0.52399  -0.52100  -0.52047  -0.51733  -0.51731
 Alpha  occ. eigenvalues --   -0.51409  -0.51369  -0.50957  -0.50635  -0.50265
 Alpha  occ. eigenvalues --   -0.50203  -0.50013  -0.49702  -0.49625  -0.49437
 Alpha  occ. eigenvalues --   -0.49336  -0.49229  -0.49217  -0.48963  -0.48841
 Alpha  occ. eigenvalues --   -0.48753  -0.48643  -0.48531  -0.48315  -0.48072
 Alpha  occ. eigenvalues --   -0.47949  -0.47841  -0.47425  -0.47310  -0.46987
 Alpha  occ. eigenvalues --   -0.46796  -0.46695  -0.46521  -0.46421  -0.46335
 Alpha  occ. eigenvalues --   -0.46266  -0.45999  -0.45972  -0.45764  -0.45571
 Alpha  occ. eigenvalues --   -0.45416  -0.44756  -0.44689  -0.44646  -0.44361
 Alpha  occ. eigenvalues --   -0.44255  -0.44224  -0.44180  -0.44116  -0.43861
 Alpha  occ. eigenvalues --   -0.43766  -0.43693  -0.43649  -0.43545  -0.43314
 Alpha  occ. eigenvalues --   -0.43202  -0.43082  -0.42958  -0.42845  -0.42710
 Alpha  occ. eigenvalues --   -0.42599  -0.42242  -0.42206  -0.41851  -0.41694
 Alpha  occ. eigenvalues --   -0.41672  -0.41392  -0.41295  -0.41183  -0.41069
 Alpha  occ. eigenvalues --   -0.40909  -0.40787  -0.40664  -0.40454  -0.40414
 Alpha  occ. eigenvalues --   -0.40377  -0.40104  -0.39973  -0.39726  -0.39082
 Alpha  occ. eigenvalues --   -0.38699  -0.37942  -0.37912  -0.37532  -0.37404
 Alpha  occ. eigenvalues --   -0.37380  -0.36961  -0.36919  -0.36893  -0.36527
 Alpha  occ. eigenvalues --   -0.36383  -0.35864  -0.34431  -0.33972  -0.33943
 Alpha  occ. eigenvalues --   -0.33653  -0.33334  -0.32896  -0.31425  -0.31180
 Alpha  occ. eigenvalues --   -0.30954  -0.30675  -0.30136  -0.29765  -0.29556
 Alpha  occ. eigenvalues --   -0.29438  -0.29070  -0.28973  -0.24227  -0.23752
 Alpha  occ. eigenvalues --   -0.21269  -0.20833
 Alpha virt. eigenvalues --   -0.08900  -0.08522  -0.01898  -0.01376  -0.00154
 Alpha virt. eigenvalues --    0.00243   0.02066   0.02349   0.02574   0.03615
 Alpha virt. eigenvalues --    0.04554   0.04905   0.05019   0.05367   0.05931

 Mulliken charges:
               1
     1  Mg   0.838936
     2  C   -0.002990
     3  C   -0.093489
     4  C   -0.047029
     5  C   -0.064411
     6  N   -0.256563
     7  C   -0.052720
     8  C   -0.014017
     9  C   -0.087075
    10  C    0.046290
    11  C    0.104691
    12  C    0.053041
    13  C   -0.071501
    14  H    0.034439
    15  N   -0.433411
    16  C    0.168891
    17  C   -0.176107
    18  C   -0.003295
    19  C    0.148852
    20  C    0.109842
    21  C    0.012019
    22  O   -0.250776
    23  C    0.061972
    24  N   -0.340928
    25  C    0.041660
    26  C   -0.029039
    27  C   -0.023817
    28  C    0.073675
    29  C    0.076210
    30  C    0.041150
    31  C   -0.019088
    32  N   -0.310586
    33  C    0.080150
    34  C   -0.169719
    35  C    0.008901
    36  C    0.083144
    37  C    0.127244
    38  C    0.046624
    39  O   -0.187723
    40  C   -0.005850
    41  C    0.214049
    42  O   -0.257344
    43  O   -0.304445
    44  C    0.157203
    45  H   -0.016942
    46  H   -0.017330
    47  H   -0.042490
    48  H    0.001189
    49  H   -0.003725
    50  H    0.025609
    51  H    0.016636
    52  H    0.017123
    53  H    0.011444
    54  H    0.043170
    55  H    0.018646
    56  H    0.018436
    57  H    0.005882
    58  H    0.027332
    59  H    0.041935
    60  H    0.037340
    61  H    0.036870
    62  H    0.034622
    63  H    0.015563
    64  H    0.010144
    65  H    0.022961
    66  H    0.013500
    67  H    0.005006
    68  H    0.005221
    69  H    0.003837
    70  H    0.013269
    71  H    0.013727
    72  H    0.035417
    73  H    0.048053
    74  H    0.007884
    75  H    0.046219
    76  H    0.035521
    77  H    0.043830
    78  H    0.046145
    79  H    0.053625
    80  Mg   0.836638
    81  C   -0.017361
    82  C   -0.088813
    83  C   -0.042618
    84  C   -0.065323
    85  N   -0.255047
    86  C   -0.050082
    87  C   -0.015096
    88  C   -0.092554
    89  C    0.045815
    90  C    0.108910
    91  C    0.062798
    92  C   -0.077635
    93  H    0.033813
    94  N   -0.424085
    95  C    0.164255
    96  C   -0.174374
    97  C   -0.005917
    98  C    0.152110
    99  C    0.099461
   100  C    0.016406
   101  O   -0.250954
   102  C    0.061204
   103  N   -0.350331
   104  C    0.039633
   105  C   -0.021583
   106  C   -0.032971
   107  C    0.088675
   108  C    0.072962
   109  C    0.034802
   110  C   -0.007308
   111  N   -0.323726
   112  C    0.078033
   113  C   -0.164631
   114  C    0.001150
   115  C    0.095924
   116  C    0.131910
   117  C    0.040528
   118  O   -0.190373
   119  C    0.001353
   120  C    0.210915
   121  O   -0.251396
   122  O   -0.305237
   123  C    0.152406
   124  H   -0.020453
   125  H   -0.012654
   126  H   -0.042244
   127  H    0.000555
   128  H   -0.005643
   129  H    0.026047
   130  H    0.017405
   131  H    0.019105
   132  H    0.013440
   133  H    0.037256
   134  H    0.021470
   135  H    0.018934
   136  H    0.007341
   137  H    0.026283
   138  H    0.039447
   139  H    0.038327
   140  H    0.036564
   141  H    0.032829
   142  H    0.012722
   143  H    0.010821
   144  H    0.023230
   145  H    0.026282
   146  H    0.005483
   147  H    0.005685
   148  H    0.001567
   149  H    0.011169
   150  H    0.016507
   151  H    0.029917
   152  H    0.045226
   153  H    0.008001
   154  H    0.043401
   155  H    0.034968
   156  H    0.043293
   157  H    0.049697
   158  H    0.053013
 Sum of Mulliken charges =  -0.00000

 Dipole moment (field-independent basis, Debye):
    X=             -2.9357    Y=             -3.4617    Z=              0.5811  Tot=              4.5759
 Quadrupole moment (field-independent basis, Debye-Ang):
   XX=           -535.6792   YY=           -531.0430   ZZ=           -453.9202
   XY=             19.4144   XZ=             56.8565   YZ=            -21.0012

 Normal termination of Gaussian 16 at Wed Sep  8 19:52:46 2021.
