 Gaussian 16, Revision A.03,
 Gaussian 16:  ES64L-G16RevA.03 25-Dec-2016

 -----------------------------------
 #p cam-b3lyp/Def2SVP td=(nstates=5)
 -----------------------------------

 --------------------------------
 TDDFT excited states in gaussian
 --------------------------------
 Symbolic Z-matrix:
 Charge =  0 Multiplicity = 1

                         Standard orientation:
 ---------------------------------------------------------------------
 Center     Atomic      Atomic             Coordinates (Angstroms)
 Number     Number       Type             X           Y           Z
 ---------------------------------------------------------------------
      1         12           0       -4.996561    0.728259    0.087334
      2          6           0       -5.366304   -2.419030    1.751689
      3          6           0       -5.777607    2.220624    3.054804
      4          6           0       -5.122054    3.493129   -1.460686
      5          6           0       -5.366194   -0.987689   -2.923406
      6          7           0       -5.487662   -0.101132    2.080215
      7          6           0       -5.536685   -1.323317    2.600823
      8          6           0       -5.711234   -1.328833    4.149008
      9          6           0       -6.385170    0.104526    4.331456
     10          6           0       -5.822977    0.795572    3.101692
     11          6           0       -7.906781    0.079902    4.228519
     12          6           0       -4.340968   -1.417587    4.901487
     13          6           0       -4.434868   -1.755465    6.392250
     14          1           0       -3.401054   -2.588326    6.988002
     15          7           0       -4.910940    2.581608    0.766022
     16          6           0       -5.251947    3.006386    2.006410
     17          6           0       -5.011301    4.465370    2.018077
     18          6           0       -4.683291    4.883574    0.626816
     19          6           0       -4.921035    3.658124   -0.092302
     20          6           0       -5.054517    5.296499    3.263512
     21          6           0       -4.237953    6.184417    0.037229
     22          8           0       -4.232482    6.393084   -1.224120
     23          6           0       -3.887691    7.252342    0.991114
     24          7           0       -5.431338    1.229042   -1.892014
     25          6           0       -5.357687    2.495621   -2.315496
     26          6           0       -5.431381    2.576319   -3.811489
     27          6           0       -5.326497    1.073518   -4.340962
     28          6           0       -5.290843    0.344113   -2.975324
     29          6           0       -6.695021    3.232400   -4.384885
     30          6           0       -4.209835    0.766932   -5.370278
     31          6           0       -2.854657    0.901518   -4.712649
     32          7           0       -5.134106   -1.349573   -0.524825
     33          6           0       -5.307452   -1.834545   -1.829213
     34          6           0       -5.452340   -3.298529   -1.730091
     35          6           0       -5.369258   -3.563487   -0.364536
     36          6           0       -5.210500   -2.339794    0.346564
     37          6           0       -5.691859   -4.187601   -2.814810
     38          6           0       -5.402366   -4.593349    0.661206
     39          8           0       -5.421117   -5.825045    0.653088
     40          6           0       -5.524013   -3.882654    2.081045
     41          6           0       -4.506221   -4.511834    2.992934
     42          8           0       -3.284385   -4.360047    2.789360
     43          8           0       -5.122586   -4.988632    4.085317
     44          6           0       -4.165337   -5.600138    5.045468
     45          1           0       -6.238080    2.790293    3.864361
     46          1           0       -5.061537    4.414041   -2.044378
     47          1           0       -5.400164   -1.597949   -3.827774
     48          1           0       -6.376901   -2.104231    4.528573
     49          1           0       -6.041145    0.603661    5.237123
     50          1           0       -8.269263   -0.899864    3.917736
     51          1           0       -8.160298    0.833711    3.482869
     52          1           0       -8.363520    0.414608    5.160259
     53          1           0       -3.900233   -0.422656    4.964156
     54          1           0       -3.677130   -2.130604    4.411331
     55          1           0       -5.424938   -2.129435    6.654580
     56          1           0       -4.336003   -0.829703    6.959163
     57          1           0       -5.482872    4.744134    4.098946
     58          1           0       -5.761522    6.105737    3.081889
     59          1           0       -4.077970    5.710908    3.514418
     60          1           0       -4.750688    7.469676    1.620837
     61          1           0       -3.507205    8.078372    0.391318
     62          1           0       -3.105728    6.887722    1.657849
     63          1           0       -4.600899    3.155376   -4.213259
     64          1           0       -6.241727    0.749902   -4.837247
     65          1           0       -6.490180    4.084563   -5.033394
     66          1           0       -7.333426    3.520692   -3.550249
     67          1           0       -7.350145    2.558273   -4.936050
     68          1           0       -4.241622    1.484696   -6.189272
     69          1           0       -4.284139   -0.231550   -5.801280
     70          1           0       -2.658692    1.971315   -4.775614
     71          1           0       -2.105411    0.334143   -5.265756
     72          1           0       -2.897549    0.639788   -3.655226
     73          1           0       -5.039106   -5.045821   -2.655625
     74          1           0       -5.489170   -3.707929   -3.772116
     75          1           0       -6.750846   -4.401245   -2.670731
     76          1           0       -6.543207   -4.048899    2.428505
     77          1           0       -4.501646   -6.620848    5.227898
     78          1           0       -4.109815   -4.925369    5.899874
     79          1           0       -3.156482   -5.779495    4.672129
     80         12           0        5.560963    0.147126    0.043449
     81          6           0        3.643546   -1.544446   -2.474717
     82          6           0        4.504109    3.082383   -1.335639
     83          6           0        7.588399    1.661449    1.957548
     84          6           0        7.335649   -2.819182    0.487557
     85          7           0        4.244920    0.582957   -1.680006
     86          6           0        3.524092   -0.139899   -2.523947
     87          6           0        2.563610    0.686389   -3.420759
     88          6           0        3.339064    2.091810   -3.372586
     89          6           0        4.049955    1.932846   -2.030190
     90          6           0        4.393520    2.234847   -4.457486
     91          6           0        1.124468    0.803056   -2.806539
     92          6           0        0.055834    1.328881   -3.767417
     93          1           0       -1.298832    0.793834   -3.662112
     94          7           0        5.621561    2.050419    0.602355
     95          6           0        5.123250    3.111227   -0.066714
     96          6           0        5.442426    4.290163    0.753278
     97          6           0        6.313652    3.856527    1.879174
     98          6           0        6.564165    2.479526    1.503389
     99          6           0        4.868219    5.650210    0.481231
    100          6           0        6.845172    4.567599    3.086677
    101          8           0        7.777930    4.064919    3.807852
    102          6           0        6.307095    5.910975    3.346132
    103          7           0        7.357709   -0.417276    0.924099
    104          6           0        8.011134    0.413363    1.755356
    105          6           0        9.125009   -0.304525    2.479452
    106          6           0        8.928671   -1.855008    2.140268
    107          6           0        7.736388   -1.751468    1.163984
    108          6           0       10.544521    0.122066    2.106100
    109          6           0        8.815719   -2.829979    3.344143
    110          6           0        7.531405   -2.571779    4.098646
    111          7           0        5.405059   -1.882112   -0.681777
    112          6           0        6.268183   -2.960946   -0.389840
    113          6           0        5.822230   -4.108539   -1.206282
    114          6           0        4.736230   -3.607118   -1.939534
    115          6           0        4.533223   -2.237669   -1.618752
    116          6           0        6.434423   -5.393133   -1.240281
    117          6           0        3.722078   -3.921982   -2.919866
    118          8           0        3.351020   -4.948936   -3.486810
    119          6           0        3.048863   -2.565946   -3.403959
    120          6           0        1.556587   -2.752791   -3.377188
    121          8           0        0.960890   -2.928941   -2.299811
    122          8           0        1.056073   -2.477160   -4.595328
    123          6           0       -0.422316   -2.637642   -4.616169
    124          1           0        4.417060    4.052627   -1.825482
    125          1           0        8.249712    2.105057    2.705445
    126          1           0        7.775621   -3.806809    0.641514
    127          1           0        2.486346    0.339237   -4.444140
    128          1           0        2.643088    2.925998   -3.339050
    129          1           0        4.529478    1.317422   -5.010640
    130          1           0        5.307269    2.506930   -3.945546
    131          1           0        4.150985    3.078487   -5.110011
    132          1           0        1.117977    1.607541   -2.059867
    133          1           0        0.809086   -0.135503   -2.393909
    134          1           0        0.395357    1.312896   -4.810207
    135          1           0       -0.110222    2.387968   -3.555821
    136          1           0        4.395185    5.696716   -0.507440
    137          1           0        5.711860    6.345405    0.411671
    138          1           0        4.195264    5.989121    1.271755
    139          1           0        6.501297    6.549754    2.487822
    140          1           0        6.740571    6.220347    4.299164
    141          1           0        5.218205    5.838676    3.444672
    142          1           0        9.042406   -0.165894    3.550465
    143          1           0        9.774252   -2.255894    1.562220
    144          1           0       11.139174    0.466208    2.973296
    145          1           0       10.481244    0.899135    1.355974
    146          1           0       11.137620   -0.638598    1.601296
    147          1           0        9.631066   -2.655587    4.050503
    148          1           0        8.855472   -3.875762    3.058227
    149          1           0        7.793736   -1.735398    4.753416
    150          1           0        7.242674   -3.448566    4.674759
    151          1           0        6.740660   -2.225886    3.422818
    152          1           0        5.633617   -6.120302   -1.219590
    153          1           0        7.118314   -5.529858   -0.405197
    154          1           0        6.961027   -5.332979   -2.196490
    155          1           0        3.417418   -2.357835   -4.409168
    156          1           0       -0.655810   -3.343177   -5.419519
    157          1           0       -0.832592   -1.614523   -4.709272
    158          1           0       -0.885662   -3.124341   -3.765945
 ---------------------------------------------------------------------

 SCF Done:  E(RCAM-B3LYP) =  -4069.79411215     A.U. after   19 cycles

 Excitation energies and oscillator strengths:

 Excited State   1:      Singlet-A      1.6540 eV  749.62 nm  f=0.0096  <S**2>=0.000
     309 -> 315       -0.10914
     310 -> 316        0.12659
     311 -> 313       -0.44712
     312 -> 314        0.52197
 This state for optimization and/or second-order correction.
 Total Energy, E(TD-HF/TD-DFT) =  -4069.73333018
 Copying the excited state density for this state as the 1-particle RhoCI density.

 Excited State   2:      Singlet-A      1.6976 eV  730.34 nm  f=0.7065  <S**2>=0.000
     309 -> 315        0.13596
     310 -> 316        0.11563
     311 -> 313        0.51979
     312 -> 314        0.44540

 Excited State   3:      Singlet-A      2.1818 eV  568.26 nm  f=0.0603  <S**2>=0.000
     309 -> 313        0.27370
     310 -> 314        0.58348
     311 -> 315       -0.11360
     312 -> 316       -0.24239

 Excited State   4:      Singlet-A      2.1929 eV  565.39 nm  f=0.1327  <S**2>=0.000
     309 -> 313        0.57930
     310 -> 314       -0.27110
     311 -> 315       -0.25303
     312 -> 316        0.11811

 Excited State   5:      Singlet-A      2.4283 eV  510.59 nm  f=0.0000  <S**2>=0.000
     312 -> 313        0.70675

 The electronic state is 1-A.
 Alpha  occ. eigenvalues --  -46.87942 -46.87317 -19.26136 -19.26063 -19.19017
 Alpha  occ. eigenvalues --  -19.18846 -19.18754 -19.18472 -19.18167 -19.17717
 Alpha  occ. eigenvalues --  -14.42584 -14.42105 -14.41663 -14.41035 -14.39555
 Alpha  occ. eigenvalues --  -14.39022 -14.38704 -14.38259 -10.38931 -10.38706
 Alpha  occ. eigenvalues --  -10.35652 -10.35156 -10.34384 -10.33889 -10.31664
 Alpha  occ. eigenvalues --  -10.31511 -10.31511 -10.31011 -10.30906 -10.30700
 Alpha  occ. eigenvalues --  -10.30676 -10.30609 -10.30479 -10.30141 -10.30068
 Alpha  occ. eigenvalues --  -10.30006 -10.29851 -10.29785 -10.29574 -10.29421
 Alpha  occ. eigenvalues --  -10.29133 -10.29074 -10.28778 -10.28476 -10.28463
 Alpha  occ. eigenvalues --  -10.28171 -10.28070 -10.28054 -10.27958 -10.27903
 Alpha  occ. eigenvalues --  -10.27869 -10.27834 -10.27739 -10.27688 -10.27622
 Alpha  occ. eigenvalues --  -10.27616 -10.27517 -10.27305 -10.27269 -10.27210
 Alpha  occ. eigenvalues --  -10.27154 -10.27145 -10.27126 -10.27118 -10.26802
 Alpha  occ. eigenvalues --  -10.26701 -10.26665 -10.26624 -10.26517 -10.26290
 Alpha  occ. eigenvalues --  -10.26273 -10.26247 -10.25955 -10.25914 -10.25887
 Alpha  occ. eigenvalues --  -10.25740 -10.25692 -10.25623 -10.25615 -10.25555
 Alpha  occ. eigenvalues --  -10.25180 -10.24975 -10.24918 -10.24550 -10.24507
 Alpha  occ. eigenvalues --  -10.24371  -3.16684  -3.16067  -1.91565  -1.91153
 Alpha  occ. eigenvalues --   -1.90994  -1.90949  -1.90537  -1.90375  -1.16484
 Alpha  occ. eigenvalues --   -1.16328  -1.08605  -1.08319  -1.07423  -1.06731
 Alpha  occ. eigenvalues --   -1.06560  -1.06477  -1.04706  -1.04108  -1.03952
 Alpha  occ. eigenvalues --   -1.03391  -1.03313  -1.02718  -1.02566  -1.01779
 Alpha  occ. eigenvalues --   -0.92064  -0.91639  -0.89979  -0.89243  -0.89201
 Alpha  occ. eigenvalues --   -0.88652  -0.88579  -0.87980  -0.87932  -0.87813
 Alpha  occ. eigenvalues --   -0.87463  -0.87437  -0.87237  -0.86842  -0.85092
 Alpha  occ. eigenvalues --   -0.84577  -0.84375  -0.83615  -0.83226  -0.82772
 Alpha  occ. eigenvalues --   -0.82693  -0.82212  -0.81638  -0.81274  -0.80703
 Alpha  occ. eigenvalues --   -0.80098  -0.78952  -0.78332  -0.77668  -0.77054
 Alpha  occ. eigenvalues --   -0.76787  -0.76394  -0.75994  -0.75468  -0.75204
 Alpha  occ. eigenvalues --   -0.74526  -0.72995  -0.72363  -0.71831  -0.71248
 Alpha  occ. eigenvalues --   -0.70905  -0.69495  -0.68998  -0.68339  -0.67784
 Alpha  occ. eigenvalues --   -0.67293  -0.67267  -0.66582  -0.65471  -0.65119
 Alpha  occ. eigenvalues --   -0.64839  -0.64733  -0.64569  -0.64443  -0.64198
 Alpha  occ. eigenvalues --   -0.63908  -0.62336  -0.61988  -0.60649  -0.60054
 Alpha  occ. eigenvalues --   -0.59888  -0.59319  -0.59156  -0.58661  -0.58642
 Alpha  occ. eigenvalues --   -0.58097  -0.57682  -0.57442  -0.57219  -0.56940
 Alpha  occ. eigenvalues --   -0.56457  -0.55958  -0.55937  -0.55848  -0.55600
 Alpha  occ. eigenvalues --   -0.55536  -0.55156  -0.54965  -0.54701  -0.54203
 Alpha  occ. eigenvalues --   -0.53956  -0.53780  -0.53390  -0.53331  -0.53231
 Alpha  occ. eigenvalues --   -0.52954  -0.52927  -0.52799  -0.52780  -0.52546
 Alpha  occ. eigenvalues --   -0.52288  -0.52141  -0.52017  -0.51677  -0.51574
 Alpha  occ. eigenvalues --   -0.51441  -0.51163  -0.50897  -0.50789  -0.50475
 Alpha  occ. eigenvalues --   -0.50221  -0.50076  -0.49679  -0.49617  -0.49578
 Alpha  occ. eigenvalues --   -0.49338  -0.49194  -0.49138  -0.48882  -0.48790
 Alpha  occ. eigenvalues --   -0.48619  -0.48610  -0.48578  -0.48354  -0.48107
 Alpha  occ. eigenvalues --   -0.48082  -0.47975  -0.47480  -0.47382  -0.47212
 Alpha  occ. eigenvalues --   -0.46838  -0.46641  -0.46613  -0.46395  -0.46338
 Alpha  occ. eigenvalues --   -0.45975  -0.45940  -0.45910  -0.45787  -0.45566
 Alpha  occ. eigenvalues --   -0.45538  -0.45182  -0.44897  -0.44643  -0.44466
 Alpha  occ. eigenvalues --   -0.44266  -0.44169  -0.44084  -0.44004  -0.43973
 Alpha  occ. eigenvalues --   -0.43774  -0.43609  -0.43572  -0.43492  -0.43382
 Alpha  occ. eigenvalues --   -0.43245  -0.43089  -0.42896  -0.42629  -0.42615
 Alpha  occ. eigenvalues --   -0.42560  -0.42392  -0.42249  -0.41859  -0.41659
 Alpha  occ. eigenvalues --   -0.41577  -0.41375  -0.41315  -0.41217  -0.41007
 Alpha  occ. eigenvalues --   -0.40832  -0.40785  -0.40599  -0.40449  -0.40383
 Alpha  occ. eigenvalues --   -0.40207  -0.40201  -0.39518  -0.39386  -0.39087
 Alpha  occ. eigenvalues --   -0.38786  -0.37946  -0.37814  -0.37605  -0.37326
 Alpha  occ. eigenvalues --   -0.37039  -0.36919  -0.36865  -0.36460  -0.36272
 Alpha  occ. eigenvalues --   -0.35926  -0.34544  -0.34380  -0.33859  -0.33671
 Alpha  occ. eigenvalues --   -0.33462  -0.33267  -0.32833  -0.31546  -0.31159
 Alpha  occ. eigenvalues --   -0.31030  -0.30623  -0.30021  -0.29616  -0.29594
 Alpha  occ. eigenvalues --   -0.29409  -0.29021  -0.28886  -0.24231  -0.23694
 Alpha  occ. eigenvalues --   -0.21291  -0.20774
 Alpha virt. eigenvalues --   -0.08920  -0.08467  -0.01941  -0.01354  -0.00193
 Alpha virt. eigenvalues --    0.00288   0.02084   0.02535   0.02872   0.03597
 Alpha virt. eigenvalues --    0.04587   0.05215   0.05302   0.05539   0.06145

 Mulliken charges:
               1
     1  Mg   0.840948
     2  C   -0.000770
     3  C   -0.093095
     4  C   -0.047139
     5  C   -0.067189
     6  N   -0.256374
     7  C   -0.051781
     8  C   -0.014203
     9  C   -0.087147
    10  C    0.046421
    11  C    0.104744
    12  C    0.053346
    13  C   -0.072171
    14  H    0.037630
    15  N   -0.433099
    16  C    0.168338
    17  C   -0.176778
    18  C   -0.004471
    19  C    0.148969
    20  C    0.110057
    21  C    0.011590
    22  O   -0.250850
    23  C    0.062676
    24  N   -0.340500
    25  C    0.040028
    26  C   -0.029670
    27  C   -0.027617
    28  C    0.070321
    29  C    0.076514
    30  C    0.103094
    31  C   -0.101193
    32  N   -0.311058
    33  C    0.080830
    34  C   -0.169002
    35  C    0.010492
    36  C    0.085523
    37  C    0.126190
    38  C    0.048882
    39  O   -0.186009
    40  C   -0.006456
    41  C    0.212591
    42  O   -0.252989
    43  O   -0.305611
    44  C    0.157258
    45  H   -0.017100
    46  H   -0.017795
    47  H   -0.043156
    48  H    0.001474
    49  H   -0.003599
    50  H    0.025753
    51  H    0.016036
    52  H    0.016987
    53  H    0.011244
    54  H    0.046120
    55  H    0.017624
    56  H    0.017701
    57  H    0.006477
    58  H    0.026894
    59  H    0.039426
    60  H    0.038026
    61  H    0.034866
    62  H    0.031072
    63  H    0.014944
    64  H    0.011879
    65  H    0.023142
    66  H    0.013946
    67  H    0.005206
    68  H    0.004570
    69  H    0.002007
    70  H    0.026617
    71  H    0.045964
    72  H    0.063466
    73  H    0.050465
    74  H    0.006298
    75  H    0.046748
    76  H    0.035195
    77  H    0.042934
    78  H    0.045852
    79  H    0.055571
    80  Mg   0.837612
    81  C   -0.016375
    82  C   -0.087698
    83  C   -0.046211
    84  C   -0.065644
    85  N   -0.255280
    86  C   -0.047425
    87  C   -0.014479
    88  C   -0.090408
    89  C    0.046567
    90  C    0.114873
    91  C    0.080974
    92  C   -0.120005
    93  H    0.056744
    94  N   -0.423228
    95  C    0.162477
    96  C   -0.175295
    97  C   -0.008714
    98  C    0.151939
    99  C    0.099596
   100  C    0.014809
   101  O   -0.254140
   102  C    0.061657
   103  N   -0.350175
   104  C    0.037272
   105  C   -0.019531
   106  C   -0.034812
   107  C    0.089168
   108  C    0.073976
   109  C    0.034933
   110  C   -0.007559
   111  N   -0.324362
   112  C    0.079081
   113  C   -0.162865
   114  C    0.002395
   115  C    0.097069
   116  C    0.131292
   117  C    0.043545
   118  O   -0.187755
   119  C    0.000399
   120  C    0.211986
   121  O   -0.247064
   122  O   -0.307154
   123  C    0.155901
   124  H   -0.020010
   125  H   -0.016614
   126  H   -0.041073
   127  H   -0.003997
   128  H   -0.002842
   129  H    0.021286
   130  H    0.012989
   131  H    0.015224
   132  H    0.006806
   133  H    0.029830
   134  H    0.007483
   135  H    0.010208
   136  H    0.009333
   137  H    0.025258
   138  H    0.038036
   139  H    0.038101
   140  H    0.035209
   141  H    0.032795
   142  H    0.013683
   143  H    0.011889
   144  H    0.024312
   145  H    0.011493
   146  H    0.005121
   147  H    0.005444
   148  H    0.003491
   149  H    0.010235
   150  H    0.017551
   151  H    0.030994
   152  H    0.046769
   153  H    0.008069
   154  H    0.046243
   155  H    0.034049
   156  H    0.042113
   157  H    0.040825
   158  H    0.057483
 Sum of Mulliken charges =  -0.00000

 Dipole moment (field-independent basis, Debye):
    X=             -2.8546    Y=              6.7891    Z=              1.5272  Tot=              7.5215
 Quadrupole moment (field-independent basis, Debye-Ang):
   XX=           -485.8302   YY=           -537.7076   ZZ=           -468.7922
   XY=            -21.7119   XZ=            -16.5820   YZ=            -10.8649

 Normal termination of Gaussian 16 at Fri Sep 10 16:10:45 2021.
