 Gaussian 16, Revision A.03,
 Gaussian 16:  ES64L-G16RevA.03 25-Dec-2016

 -----------------------------------
 #p cam-b3lyp/Def2SVP td=(nstates=5)
 -----------------------------------

 --------------------------------
 TDDFT excited states in gaussian
 --------------------------------
 Symbolic Z-matrix:
 Charge =  0 Multiplicity = 1

                         Standard orientation:
 ---------------------------------------------------------------------
 Center     Atomic      Atomic             Coordinates (Angstroms)
 Number     Number       Type             X           Y           Z
 ---------------------------------------------------------------------
      1         12           0        5.166768   -0.667453    0.507634
      2          6           0        5.729467    1.979235   -1.835574
      3          6           0        6.286383    1.448090    2.939507
      4          6           0        5.109720   -3.120820    2.516205
      5          6           0        5.185155   -2.866273   -2.196162
      6          7           0        5.886666    1.424761    0.436683
      7          6           0        5.996651    2.346542   -0.514839
      8          6           0        6.349928    3.761421    0.033512
      9          6           0        7.039564    3.334444    1.406134
     10          6           0        6.337825    2.006131    1.627646
     11          6           0        8.538921    3.083219    1.282367
     12          6           0        5.076445    4.638284    0.280660
     13          6           0        5.343163    6.129988    0.502099
     14          1           0        4.386126    7.096735   -0.014455
     15          7           0        5.159385   -0.706264    2.482802
     16          6           0        5.641943    0.249015    3.313384
     17          6           0        5.403331   -0.246068    4.686206
     18          6           0        4.915600   -1.649651    4.585381
     19          6           0        5.068967   -1.893670    3.173889
     20          6           0        5.590437    0.598008    5.909430
     21          6           0        4.403917   -2.620929    5.601714
     22          8           0        4.251772   -3.862942    5.339363
     23          6           0        4.166177   -2.090154    6.956262
     24          7           0        5.368263   -2.727739    0.238830
     25          6           0        5.245074   -3.573212    1.267900
     26          6           0        5.144375   -4.994155    0.798091
     27          6           0        4.979655   -4.924504   -0.788657
     28          6           0        5.103412   -3.391713   -0.971703
     29          6           0        6.332394   -5.900693    1.148534
     30          6           0        3.751147   -5.643560   -1.400333
     31          6           0        2.481482   -4.937485   -0.980207
     32          7           0        5.233601   -0.490896   -1.654634
     33          6           0        5.254514   -1.539192   -2.585930
     34          6           0        5.410894   -0.929441   -3.919278
     35          6           0        5.487232    0.439071   -3.667899
     36          6           0        5.411384    0.667749   -2.264245
     37          6           0        5.523321   -1.634418   -5.150051
     38          6           0        5.639984    1.759613   -4.256705
     39          8           0        5.658468    2.199168   -5.407332
     40          6           0        5.925335    2.800389   -3.085728
     41          6           0        5.020815    3.983504   -3.298783
     42          8           0        3.783501    3.872388   -3.180152
     43          8           0        5.760255    5.100773   -3.372821
     44          6           0        4.921465    6.315511   -3.554467
     45          1           0        6.837439    1.939142    3.743961
     46          1           0        4.981184   -3.989848    3.164824
     47          1           0        5.114201   -3.483826   -3.093406
     48          1           0        7.055699    4.322987   -0.578823
     49          1           0        6.802787    4.027340    2.213323
     50          1           0        8.863472    3.113730    0.242340
     51          1           0        8.703580    2.091283    1.703607
     52          1           0        9.100619    3.773344    1.912446
     53          1           0        4.645329    4.381268    1.248205
     54          1           0        4.360612    4.516942   -0.533087
     55          1           0        6.357253    6.401587    0.207543
     56          1           0        5.310242    6.327455    1.573604
     57          1           0        6.113332    1.525586    5.679807
     58          1           0        6.271019    0.058310    6.567642
     59          1           0        4.649393    0.784850    6.426979
     60          1           0        5.096362   -1.680601    7.350686
     61          1           0        3.718031   -2.904782    7.524062
     62          1           0        3.467227   -1.255801    6.890906
     63          1           0        4.272454   -5.486795    1.226443
     64          1           0        5.831225   -5.364733   -1.307983
     65          1           0        6.053025   -6.788947    1.715687
     66          1           0        7.063274   -5.303148    1.692635
     67          1           0        6.919472   -6.235667    0.293813
     68          1           0        3.687079   -6.666138   -1.029962
     69          1           0        3.775514   -5.686155   -2.489297
     70          1           0        2.278829   -5.364531    0.001321
     71          1           0        1.673409   -5.160888   -1.677574
     72          1           0        2.647132   -3.868777   -0.842694
     73          1           0        4.894049   -1.103494   -5.864267
     74          1           0        5.210449   -2.672672   -5.041687
     75          1           0        6.592016   -1.538111   -5.341030
     76          1           0        6.978109    3.071820   -3.157241
     77          1           0        5.277360    6.819924   -4.452876
     78          1           0        4.965164    6.865674   -2.614352
     79          1           0        3.876178    6.145037   -3.814569
     80         12           0       -5.326035    0.642870    0.391216
     81          6           0       -5.234305   -1.805627   -2.230899
     82          6           0       -6.008386   -1.910243    2.547744
     83          6           0       -5.858074    2.816893    2.640218
     84          6           0       -5.773835    3.064304   -2.074921
     85          7           0       -5.564864   -1.533771    0.079052
     86          6           0       -5.446879   -2.358337   -0.950759
     87          6           0       -5.483169   -3.864339   -0.576309
     88          6           0       -6.289820   -3.748696    0.807454
     89          6           0       -5.907506   -2.321624    1.194718
     90          6           0       -7.798087   -3.808100    0.631614
     91          6           0       -4.048417   -4.460406   -0.356736
     92          6           0       -3.989608   -5.988229   -0.293028
     93          1           0       -2.823829   -6.663970   -0.855882
     94          7           0       -5.370131    0.462406    2.367090
     95          6           0       -5.642390   -0.652921    3.076456
     96          6           0       -5.568071   -0.257834    4.491568
     97          6           0       -5.392044    1.218423    4.557810
     98          6           0       -5.557734    1.566584    3.160870
     99          6           0       -5.583210   -1.252331    5.615923
    100          6           0       -5.131989    2.162219    5.692625
    101          8           0       -5.251507    3.430840    5.554215
    102          6           0       -4.824393    1.552842    6.994750
    103          7           0       -5.964537    2.620071    0.318095
    104          6           0       -6.061854    3.357010    1.438528
    105          6           0       -6.271395    4.817005    1.114662
    106          6           0       -6.051925    4.942581   -0.464467
    107          6           0       -5.831648    3.453126   -0.808576
    108          6           0       -7.638640    5.391082    1.485418
    109          6           0       -4.998813    5.976622   -0.948615
    110          6           0       -3.613487    5.534526   -0.535323
    111          7           0       -5.296182    0.687189   -1.768692
    112          6           0       -5.534013    1.801879   -2.602340
    113          6           0       -5.518903    1.313876   -3.996632
    114          6           0       -5.294441   -0.065752   -3.875351
    115          6           0       -5.198003   -0.416316   -2.501560
    116          6           0       -5.745352    2.105678   -5.157625
    117          6           0       -5.127742   -1.306955   -4.596695
    118          8           0       -5.028220   -1.615274   -5.783613
    119          6           0       -5.207471   -2.508809   -3.559592
    120          6           0       -4.058247   -3.438760   -3.837055
    121          8           0       -2.885522   -3.064681   -3.659914
    122          8           0       -4.536461   -4.677343   -4.055260
    123          6           0       -3.433472   -5.638020   -4.324199
    124          1           0       -6.448722   -2.600026    3.268293
    125          1           0       -5.941547    3.624424    3.371258
    126          1           0       -5.808113    3.772832   -2.905283
    127          1           0       -6.026500   -4.492441   -1.272044
    128          1           0       -5.916107   -4.456451    1.542842
    129          1           0       -8.082915   -3.799543   -0.409994
    130          1           0       -8.187875   -2.934552    1.137614
    131          1           0       -8.205966   -4.671969    1.164241
    132          1           0       -3.711109   -4.216886    0.658968
    133          1           0       -3.368827   -4.103558   -1.106019
    134          1           0       -4.914961   -6.451838   -0.655978
    135          1           0       -3.932140   -6.289857    0.755652
    136          1           0       -5.888419   -2.247229    5.268878
    137          1           0       -6.380952   -0.947378    6.301825
    138          1           0       -4.638886   -1.283310    6.163606
    139          1           0       -5.647936    0.909880    7.296141
    140          1           0       -4.581306    2.385921    7.657148
    141          1           0       -3.946609    0.907086    6.880205
    142          1           0       -5.539806    5.434392    1.621329
    143          1           0       -6.972838    5.251474   -0.980549
    144          1           0       -7.576480    6.264557    2.161626
    145          1           0       -8.229038    4.603629    1.934732
    146          1           0       -8.257713    5.691222    0.641697
    147          1           0       -5.171064    6.944423   -0.471277
    148          1           0       -5.014457    6.139211   -2.021144
    149          1           0       -3.539559    5.887886    0.497512
    150          1           0       -2.858802    5.999400   -1.166502
    151          1           0       -3.538801    4.441048   -0.515761
    152          1           0       -5.004782    1.806903   -5.887555
    153          1           0       -5.677787    3.168224   -4.933590
    154          1           0       -6.766280    1.802329   -5.404510
    155          1           0       -6.172480   -2.997783   -3.698351
    156          1           0       -3.650328   -6.112232   -5.286384
    157          1           0       -3.388158   -6.296910   -3.436752
    158          1           0       -2.446552   -5.229523   -4.507408
 ---------------------------------------------------------------------

 SCF Done:  E(RCAM-B3LYP) =  -4069.81143394     A.U. after   19 cycles

 Excitation energies and oscillator strengths:

 Excited State   1:      Singlet-A      1.6566 eV  748.45 nm  f=0.0050  <S**2>=0.000
     309 -> 316        0.12471
     310 -> 315       -0.11372
     311 -> 313        0.50886
     312 -> 314       -0.46177
 This state for optimization and/or second-order correction.
 Total Energy, E(TD-HF/TD-DFT) =  -4069.75055674
 Copying the excited state density for this state as the 1-particle RhoCI density.

 Excited State   2:      Singlet-A      1.6957 eV  731.15 nm  f=0.7182  <S**2>=0.000
     309 -> 316        0.11984
     310 -> 315        0.13270
     311 -> 313        0.46020
     312 -> 314        0.50697

 Excited State   3:      Singlet-A      2.1828 eV  568.00 nm  f=0.0228  <S**2>=0.000
     309 -> 313        0.57347
     310 -> 314        0.29235
     311 -> 316       -0.24119
     312 -> 315       -0.12233

 Excited State   4:      Singlet-A      2.1928 eV  565.40 nm  f=0.1608  <S**2>=0.000
     309 -> 313       -0.28980
     310 -> 314        0.57021
     311 -> 316        0.12692
     312 -> 315       -0.24917

 Excited State   5:      Singlet-A      2.5709 eV  482.26 nm  f=0.0000  <S**2>=0.000
     312 -> 313        0.70709

 The electronic state is 1-A.
 Alpha  occ. eigenvalues --  -46.87606 -46.87520 -19.26260 -19.26104 -19.19045
 Alpha  occ. eigenvalues --  -19.18819 -19.18705 -19.18632 -19.17968 -19.17908
 Alpha  occ. eigenvalues --  -14.42365 -14.42266 -14.41266 -14.41222 -14.39222
 Alpha  occ. eigenvalues --  -14.39219 -14.38452 -14.38385 -10.38975 -10.38882
 Alpha  occ. eigenvalues --  -10.35344 -10.35314 -10.34188 -10.34087 -10.31710
 Alpha  occ. eigenvalues --  -10.31522 -10.31209 -10.31168 -10.30905 -10.30742
 Alpha  occ. eigenvalues --  -10.30369 -10.30318 -10.30259 -10.30213 -10.30039
 Alpha  occ. eigenvalues --  -10.30014 -10.29753 -10.29731 -10.29444 -10.29307
 Alpha  occ. eigenvalues --  -10.29264 -10.29078 -10.28609 -10.28583 -10.28578
 Alpha  occ. eigenvalues --  -10.28389 -10.28272 -10.28183 -10.28024 -10.27949
 Alpha  occ. eigenvalues --  -10.27862 -10.27604 -10.27544 -10.27536 -10.27410
 Alpha  occ. eigenvalues --  -10.27383 -10.27361 -10.27353 -10.27344 -10.27338
 Alpha  occ. eigenvalues --  -10.27332 -10.27297 -10.27254 -10.27220 -10.26969
 Alpha  occ. eigenvalues --  -10.26926 -10.26586 -10.26537 -10.26378 -10.26356
 Alpha  occ. eigenvalues --  -10.26081 -10.25992 -10.25976 -10.25922 -10.25825
 Alpha  occ. eigenvalues --  -10.25790 -10.25664 -10.25591 -10.25315 -10.25301
 Alpha  occ. eigenvalues --  -10.24730 -10.24636 -10.24613 -10.24560 -10.24526
 Alpha  occ. eigenvalues --  -10.24428  -3.16348  -3.16269  -1.91229  -1.91151
 Alpha  occ. eigenvalues --   -1.90816  -1.90740  -1.90658  -1.90577  -1.16548
 Alpha  occ. eigenvalues --   -1.16449  -1.08515  -1.08423  -1.07112  -1.06888
 Alpha  occ. eigenvalues --   -1.06831  -1.06444  -1.04398  -1.04364  -1.03579
 Alpha  occ. eigenvalues --   -1.03529  -1.03046  -1.02901  -1.02224  -1.01973
 Alpha  occ. eigenvalues --   -0.91854  -0.91784  -0.89354  -0.89334  -0.89035
 Alpha  occ. eigenvalues --   -0.89017  -0.88112  -0.88085  -0.87659  -0.87640
 Alpha  occ. eigenvalues --   -0.87553  -0.87493  -0.87125  -0.87012  -0.84885
 Alpha  occ. eigenvalues --   -0.84814  -0.83755  -0.83738  -0.82844  -0.82838
 Alpha  occ. eigenvalues --   -0.82545  -0.82487  -0.81484  -0.81405  -0.80424
 Alpha  occ. eigenvalues --   -0.80328  -0.78627  -0.78509  -0.77038  -0.77019
 Alpha  occ. eigenvalues --   -0.76783  -0.76761  -0.75748  -0.75724  -0.74731
 Alpha  occ. eigenvalues --   -0.74680  -0.72584  -0.72559  -0.71500  -0.71458
 Alpha  occ. eigenvalues --   -0.69715  -0.69607  -0.68712  -0.68706  -0.67479
 Alpha  occ. eigenvalues --   -0.67469  -0.67097  -0.67064  -0.65153  -0.65110
 Alpha  occ. eigenvalues --   -0.64670  -0.64641  -0.64536  -0.64445  -0.64088
 Alpha  occ. eigenvalues --   -0.64068  -0.62168  -0.62117  -0.60286  -0.60223
 Alpha  occ. eigenvalues --   -0.59673  -0.59628  -0.58862  -0.58806  -0.58323
 Alpha  occ. eigenvalues --   -0.58297  -0.57428  -0.57393  -0.57137  -0.57111
 Alpha  occ. eigenvalues --   -0.56130  -0.56075  -0.55806  -0.55785  -0.55364
 Alpha  occ. eigenvalues --   -0.55348  -0.55158  -0.55119  -0.54363  -0.54341
 Alpha  occ. eigenvalues --   -0.53799  -0.53726  -0.53140  -0.53109  -0.53056
 Alpha  occ. eigenvalues --   -0.53028  -0.52785  -0.52739  -0.52617  -0.52579
 Alpha  occ. eigenvalues --   -0.52243  -0.52240  -0.51718  -0.51689  -0.51552
 Alpha  occ. eigenvalues --   -0.51454  -0.51068  -0.51006  -0.50452  -0.50382
 Alpha  occ. eigenvalues --   -0.49868  -0.49859  -0.49776  -0.49739  -0.49385
 Alpha  occ. eigenvalues --   -0.49360  -0.49086  -0.49039  -0.48982  -0.48925
 Alpha  occ. eigenvalues --   -0.48439  -0.48411  -0.48322  -0.48278  -0.48253
 Alpha  occ. eigenvalues --   -0.48240  -0.47532  -0.47480  -0.47136  -0.47005
 Alpha  occ. eigenvalues --   -0.46611  -0.46577  -0.46442  -0.46390  -0.46176
 Alpha  occ. eigenvalues --   -0.46139  -0.45975  -0.45954  -0.45692  -0.45624
 Alpha  occ. eigenvalues --   -0.45083  -0.45033  -0.44401  -0.44399  -0.44349
 Alpha  occ. eigenvalues --   -0.44342  -0.44013  -0.43968  -0.43944  -0.43926
 Alpha  occ. eigenvalues --   -0.43845  -0.43835  -0.43441  -0.43309  -0.43267
 Alpha  occ. eigenvalues --   -0.43216  -0.42847  -0.42823  -0.42772  -0.42520
 Alpha  occ. eigenvalues --   -0.42464  -0.42416  -0.41823  -0.41816  -0.41538
 Alpha  occ. eigenvalues --   -0.41523  -0.41365  -0.41339  -0.40972  -0.40867
 Alpha  occ. eigenvalues --   -0.40720  -0.40680  -0.40632  -0.40583  -0.40394
 Alpha  occ. eigenvalues --   -0.40358  -0.40128  -0.40076  -0.39271  -0.39244
 Alpha  occ. eigenvalues --   -0.38298  -0.38223  -0.37580  -0.37548  -0.37143
 Alpha  occ. eigenvalues --   -0.37133  -0.37087  -0.37076  -0.36660  -0.36528
 Alpha  occ. eigenvalues --   -0.36091  -0.36011  -0.34116  -0.34097  -0.33741
 Alpha  occ. eigenvalues --   -0.33572  -0.33039  -0.32998  -0.31235  -0.31190
 Alpha  occ. eigenvalues --   -0.30857  -0.30844  -0.29826  -0.29812  -0.29277
 Alpha  occ. eigenvalues --   -0.29201  -0.29120  -0.29064  -0.23899  -0.23893
 Alpha  occ. eigenvalues --   -0.20981  -0.20941
 Alpha virt. eigenvalues --   -0.08658  -0.08593  -0.01573  -0.01553   0.00082
 Alpha virt. eigenvalues --    0.00095   0.02348   0.02395   0.03300   0.03483
 Alpha virt. eigenvalues --    0.04841   0.04893   0.05280   0.05293   0.06235

 Mulliken charges:
               1
     1  Mg   0.839870
     2  C   -0.002843
     3  C   -0.094193
     4  C   -0.046140
     5  C   -0.062975
     6  N   -0.256717
     7  C   -0.052285
     8  C   -0.014081
     9  C   -0.086958
    10  C    0.046167
    11  C    0.104920
    12  C    0.053462
    13  C   -0.071536
    14  H    0.035681
    15  N   -0.432905
    16  C    0.168145
    17  C   -0.177556
    18  C   -0.004620
    19  C    0.148521
    20  C    0.110294
    21  C    0.011592
    22  O   -0.250714
    23  C    0.062765
    24  N   -0.341251
    25  C    0.041250
    26  C   -0.027834
    27  C   -0.024026
    28  C    0.075253
    29  C    0.076415
    30  C    0.034975
    31  C   -0.004268
    32  N   -0.310925
    33  C    0.081687
    34  C   -0.167692
    35  C    0.008588
    36  C    0.084072
    37  C    0.127016
    38  C    0.047010
    39  O   -0.187949
    40  C   -0.005723
    41  C    0.212817
    42  O   -0.256167
    43  O   -0.304999
    44  C    0.157834
    45  H   -0.018102
    46  H   -0.017734
    47  H   -0.040985
    48  H    0.000737
    49  H   -0.004232
    50  H    0.025301
    51  H    0.016292
    52  H    0.016260
    53  H    0.011452
    54  H    0.044442
    55  H    0.017619
    56  H    0.017911
    57  H    0.005829
    58  H    0.026170
    59  H    0.038905
    60  H    0.037483
    61  H    0.034251
    62  H    0.030938
    63  H    0.015758
    64  H    0.009050
    65  H    0.022296
    66  H    0.012388
    67  H    0.004477
    68  H    0.004617
    69  H    0.005169
    70  H    0.006355
    71  H    0.020557
    72  H    0.031215
    73  H    0.049413
    74  H    0.009752
    75  H    0.045298
    76  H    0.034770
    77  H    0.042663
    78  H    0.046051
    79  H    0.053642
    80  Mg   0.838737
    81  C   -0.016738
    82  C   -0.087669
    83  C   -0.045686
    84  C   -0.064399
    85  N   -0.254512
    86  C   -0.049726
    87  C   -0.015238
    88  C   -0.090529
    89  C    0.045638
    90  C    0.114451
    91  C    0.062412
    92  C   -0.077259
    93  H    0.033323
    94  N   -0.423297
    95  C    0.162739
    96  C   -0.174877
    97  C   -0.008299
    98  C    0.152038
    99  C    0.099475
   100  C    0.015047
   101  O   -0.253851
   102  C    0.061442
   103  N   -0.350164
   104  C    0.037532
   105  C   -0.019627
   106  C   -0.034923
   107  C    0.089260
   108  C    0.073849
   109  C    0.034677
   110  C   -0.007606
   111  N   -0.324436
   112  C    0.079356
   113  C   -0.161677
   114  C    0.002460
   115  C    0.097118
   116  C    0.131229
   117  C    0.043241
   118  O   -0.187528
   119  C    0.000513
   120  C    0.211215
   121  O   -0.250208
   122  O   -0.305671
   123  C    0.152357
   124  H   -0.020002
   125  H   -0.016133
   126  H   -0.039987
   127  H   -0.000926
   128  H   -0.004331
   129  H    0.022274
   130  H    0.014343
   131  H    0.015983
   132  H    0.014634
   133  H    0.037750
   134  H    0.020582
   135  H    0.020024
   136  H    0.008852
   137  H    0.025596
   138  H    0.039432
   139  H    0.038339
   140  H    0.035370
   141  H    0.033357
   142  H    0.014028
   143  H    0.012136
   144  H    0.024558
   145  H    0.011421
   146  H    0.005471
   147  H    0.005383
   148  H    0.004105
   149  H    0.009611
   150  H    0.019551
   151  H    0.031316
   152  H    0.047480
   153  H    0.009011
   154  H    0.046379
   155  H    0.034700
   156  H    0.043745
   157  H    0.048987
   158  H    0.052786
 Sum of Mulliken charges =  -0.00000

 Dipole moment (field-independent basis, Debye):
    X=              0.2600    Y=             -0.7839    Z=              6.8675  Tot=              6.9169
 Quadrupole moment (field-independent basis, Debye-Ang):
   XX=           -476.2010   YY=           -461.8460   ZZ=           -539.8103
   XY=             21.3515   XZ=              9.2428   YZ=              4.6493

 Normal termination of Gaussian 16 at Fri Sep 10 14:13:58 2021.
