 Gaussian 16, Revision A.03,
 Gaussian 16:  ES64L-G16RevA.03 25-Dec-2016

 -----------------------------------
 #p cam-b3lyp/Def2SVP td=(nstates=5)
 -----------------------------------

 --------------------------------
 TDDFT excited states in gaussian
 --------------------------------
 Symbolic Z-matrix:
 Charge =  0 Multiplicity = 1

                         Standard orientation:
 ---------------------------------------------------------------------
 Center     Atomic      Atomic             Coordinates (Angstroms)
 Number     Number       Type             X           Y           Z
 ---------------------------------------------------------------------
      1         12           0        7.533991    0.969714    0.563621
      2          6           0        7.959757   -2.389936   -0.595555
      3          6           0        8.513874    2.005492   -2.536388
      4          6           0        7.604205    3.931560    1.694620
      5          6           0        7.696830   -0.286511    3.810319
      6          7           0        8.133117   -0.146200   -1.251986
      7          6           0        8.196473   -1.431895   -1.583870
      8          6           0        8.464259   -1.665936   -3.100738
      9          6           0        9.167946   -0.278339   -3.449159
     10          6           0        8.542096    0.588837   -2.371086
     11          6           0       10.680051   -0.295044   -3.249758
     12          6           0        7.140916   -1.857663   -3.915436
     13          6           0        7.320095   -2.411604   -5.331910
     14          1           0        6.312685   -3.317937   -5.862035
     15          7           0        7.515468    2.703473   -0.383262
     16          6           0        7.936780    2.939495   -1.648993
     17          6           0        7.717675    4.382060   -1.889161
     18          6           0        7.311978    5.001968   -0.597179
     19          6           0        7.488652    3.894469    0.307040
     20          6           0        7.847750    5.020732   -3.237838
     21          6           0        6.849997    6.377561   -0.233245
     22          8           0        6.771149    6.769518    0.981138
     23          6           0        6.573023    7.295272   -1.353127
     24          7           0        7.855189    1.754050    2.471312
     25          6           0        7.773747    3.069491    2.699277
     26          6           0        7.757931    3.368996    4.168966
     27          6           0        7.600238    1.960958    4.905385
     28          6           0        7.637078    1.038796    3.661789
     29          6           0        8.993609    4.096055    4.717143
     30          6           0        6.419186    1.814611    5.897411
     31          6           0        5.108281    1.857670    5.144568
     32          7           0        7.605229   -0.996125    1.480926
     33          6           0        7.692565   -1.284803    2.850492
     34          6           0        7.822729   -2.748139    2.976087
     35          6           0        7.818713   -3.210665    1.661592
     36          6           0        7.720362   -2.104113    0.770434
     37          6           0        7.983757   -3.469154    4.192081
     38          6           0        7.899426   -4.380354    0.801841
     39          8           0        7.900452   -5.597535    0.991473
     40          6           0        8.116649   -3.886844   -0.696522
     41          6           0        7.147197   -4.638295   -1.567609
     42          8           0        5.917522   -4.452203   -1.464479
     43          8           0        7.821795   -5.273616   -2.538087
     44          6           0        6.915935   -6.014982   -3.455664
     45          1           0        9.030384    2.447611   -3.390607
     46          1           0        7.521354    4.928599    2.132214
     47          1           0        7.667507   -0.757267    4.794687
     48          1           0        9.140777   -2.491997   -3.320672
     49          1           0        8.886338    0.083837   -4.437718
     50          1           0       11.009354   -1.220211   -2.776952
     51          1           0       10.898499    0.558989   -2.608351
     52          1           0       11.196944   -0.103282   -4.190410
     53          1           0        6.718714   -0.880615   -4.150351
     54          1           0        6.438754   -2.487550   -3.368137
     55          1           0        8.318903   -2.824961   -5.474838
     56          1           0        7.268640   -1.578824   -6.033359
     57          1           0        8.318102    4.349387   -3.955201
     58          1           0        8.553703    5.844393   -3.133335
     59          1           0        6.894051    5.398528   -3.606701
     60          1           0        7.475482    7.413364   -1.953269
     61          1           0        6.168522    8.202405   -0.905535
     62          1           0        5.827809    6.840400   -2.006347
     63          1           0        6.912833    4.004933    4.429388
     64          1           0        8.479164    1.709360    5.499407
     65          1           0        8.761832    5.035337    5.219869
     66          1           0        9.685296    4.255297    3.890401
     67          1           0        9.604716    3.507117    5.400602
     68          1           0        6.411391    2.644869    6.602787
     69          1           0        6.453333    0.890033    6.473815
     70          1           0        4.923822    2.926043    5.037867
     71          1           0        4.319100    1.381519    5.727394
     72          1           0        5.211401    1.443040    4.141606
     73          1           0        7.329910   -4.338231    4.120264
     74          1           0        7.730248   -2.852895    5.054381
     75          1           0        9.046434   -3.706877    4.146674
     76          1           0        9.152575   -4.107404   -0.952128
     77          1           0        7.248379   -7.053067   -3.465415
     78          1           0        6.921625   -5.472965   -4.401492
     79          1           0        5.883938   -6.132505   -3.123235
     80         12           0       -8.299569    0.189280   -0.230777
     81          6           0       -5.816952   -2.382786    0.085639
     82          6           0       -5.835643    2.210276   -1.447031
     83          6           0      -10.353141    2.604494   -0.100278
     84          6           0      -10.252589   -1.611363    2.025115
     85          7           0       -6.144348   -0.156234   -0.588387
     86          6           0       -5.325013   -1.192125   -0.488612
     87          6           0       -3.920453   -0.963318   -1.108647
     88          6           0       -3.876584    0.639509   -1.019785
     89          6           0       -5.376086    0.927427   -1.055590
     90          6           0       -3.322745    1.154233    0.298422
     91          6           0       -3.835309   -1.458741   -2.595024
     92          6           0       -2.416897   -1.550968   -3.161898
     93          1           0       -2.110256   -2.628824   -4.098196
     94          7           0       -8.266385    1.953706   -1.138673
     95          6           0       -7.180491    2.617820   -1.587081
     96          6           0       -7.685684    3.876097   -2.157767
     97          6           0       -9.140785    3.974610   -1.861640
     98          6           0       -9.309234    2.833108   -0.984903
     99          6           0       -6.828182    4.804118   -2.968261
    100          6           0      -10.202097    4.944117   -2.285769
    101          8           0      -11.350615    4.976235   -1.717707
    102          6           0       -9.825369    5.916655   -3.321985
    103          7           0       -9.955316    0.569006    0.967828
    104          6           0      -10.705507    1.669294    0.782073
    105          6           0      -11.991570    1.592004    1.569761
    106          6           0      -12.059638    0.097792    2.135679
    107          6           0      -10.698047   -0.426809    1.629444
    108          6           0      -12.122851    2.580998    2.727796
    109          6           0      -13.336778   -0.722313    1.805538
    110          6           0      -13.395949   -1.010771    0.322748
    111          7           0       -8.185562   -1.743537    0.728009
    112          6           0       -9.097551   -2.289710    1.657546
    113          6           0       -8.534967   -3.576990    2.114526
    114          6           0       -7.314027   -3.680311    1.431051
    115          6           0       -7.119301   -2.528555    0.621712
    116          6           0       -9.120750   -4.445607    3.078106
    117          6           0       -6.140689   -4.496840    1.218334
    118          8           0       -5.790700   -5.622906    1.569334
    119          6           0       -5.060033   -3.634188    0.434489
    120          6           0       -4.529972   -4.470934   -0.697495
    121          8           0       -5.273214   -4.808863   -1.635590
    122          8           0       -3.190558   -4.550236   -0.597198
    123          6           0       -2.617297   -5.361142   -1.704279
    124          1           0       -5.098323    2.993807   -1.623973
    125          1           0      -11.144583    3.357551   -0.100203
    126          1           0      -10.846803   -2.278427    2.653305
    127          1           0       -3.099814   -1.389604   -0.544202
    128          1           0       -3.384832    1.069939   -1.888266
    129          1           0       -3.159586    0.355233    1.006316
    130          1           0       -4.060916    1.849530    0.676197
    131          1           0       -2.417125    1.741950    0.123004
    132          1           0       -4.251286   -0.686104   -3.254359
    133          1           0       -4.332993   -2.401828   -2.711388
    134          1           0       -1.654344   -1.496530   -2.375449
    135          1           0       -2.230947   -0.667270   -3.777141
    136          1           0       -5.764479    4.552116   -2.876439
    137          1           0       -6.912420    5.796824   -2.512969
    138          1           0       -7.144113    4.865967   -4.011827
    139          1           0       -8.977100    6.502528   -2.976100
    140          1           0      -10.740542    6.464274   -3.555342
    141          1           0       -9.488892    5.369409   -4.209638
    142          1           0      -12.848067    1.764712    0.929693
    143          1           0      -12.015979    0.075883    3.234517
    144          1           0      -13.019113    3.225244    2.652112
    145          1           0      -11.224366    3.182470    2.766517
    146          1           0      -12.142755    2.131380    3.719087
    147          1           0      -14.231577   -0.142480    2.044870
    148          1           0      -13.403088   -1.657143    2.352067
    149          1           0      -13.832336   -0.096000   -0.089386
    150          1           0      -14.028751   -1.873686    0.125308
    151          1           0      -12.389250   -1.114565   -0.098483
    152          1           0       -9.020615   -5.451390    2.692242
    153          1           0      -10.162584   -4.191177    3.261415
    154          1           0       -8.487673   -4.232143    3.943504
    155          1           0       -4.277980   -3.364417    1.145267
    156          1           0       -2.026344   -6.158631   -1.243329
    157          1           0       -2.077861   -4.644211   -2.351408
    158          1           0       -3.305763   -5.933848   -2.314589
 ---------------------------------------------------------------------

 SCF Done:  E(RCAM-B3LYP) =  -4069.81177462     A.U. after   19 cycles

 Excitation energies and oscillator strengths:

 Excited State   1:      Singlet-A      1.6690 eV  742.85 nm  f=0.0123  <S**2>=0.000
     309 -> 315       -0.10721
     310 -> 316        0.13463
     311 -> 313       -0.42580
     312 -> 314        0.53839
 This state for optimization and/or second-order correction.
 Total Energy, E(TD-HF/TD-DFT) =  -4069.75043869
 Copying the excited state density for this state as the 1-particle RhoCI density.

 Excited State   2:      Singlet-A      1.6856 eV  735.55 nm  f=0.7408  <S**2>=0.000
     309 -> 315        0.13882
     310 -> 316        0.10909
     311 -> 313        0.53749
     312 -> 314        0.42519

 Excited State   3:      Singlet-A      2.1853 eV  567.35 nm  f=0.0952  <S**2>=0.000
     310 -> 314        0.63922
     312 -> 316       -0.27100

 Excited State   4:      Singlet-A      2.1926 eV  565.47 nm  f=0.1055  <S**2>=0.000
     309 -> 313        0.63720
     311 -> 315       -0.27693

 Excited State   5:      Singlet-A      2.7197 eV  455.87 nm  f=0.0000  <S**2>=0.000
     312 -> 313        0.70696

 The electronic state is 1-A.
 Alpha  occ. eigenvalues --  -46.87942 -46.87563 -19.26409 -19.26118 -19.19154
 Alpha  occ. eigenvalues --  -19.18972 -19.18971 -19.18640 -19.18290 -19.17923
 Alpha  occ. eigenvalues --  -14.42592 -14.42394 -14.41589 -14.41263 -14.39549
 Alpha  occ. eigenvalues --  -14.39256 -14.38727 -14.38500 -10.39213 -10.38900
 Alpha  occ. eigenvalues --  -10.35606 -10.35319 -10.34510 -10.34096 -10.31798
 Alpha  occ. eigenvalues --  -10.31540 -10.31476 -10.31196 -10.31055 -10.30913
 Alpha  occ. eigenvalues --  -10.30706 -10.30647 -10.30348 -10.30301 -10.30257
 Alpha  occ. eigenvalues --  -10.30057 -10.30053 -10.29799 -10.29769 -10.29397
 Alpha  occ. eigenvalues --  -10.29347 -10.29305 -10.28890 -10.28688 -10.28571
 Alpha  occ. eigenvalues --  -10.28507 -10.28468 -10.28301 -10.28251 -10.28008
 Alpha  occ. eigenvalues --  -10.27928 -10.27903 -10.27866 -10.27728 -10.27636
 Alpha  occ. eigenvalues --  -10.27627 -10.27576 -10.27569 -10.27543 -10.27444
 Alpha  occ. eigenvalues --  -10.27399 -10.27374 -10.27374 -10.27301 -10.27285
 Alpha  occ. eigenvalues --  -10.26896 -10.26864 -10.26585 -10.26540 -10.26360
 Alpha  occ. eigenvalues --  -10.26353 -10.26308 -10.26154 -10.26073 -10.25940
 Alpha  occ. eigenvalues --  -10.25883 -10.25843 -10.25757 -10.25549 -10.25331
 Alpha  occ. eigenvalues --  -10.24966 -10.24927 -10.24829 -10.24770 -10.24668
 Alpha  occ. eigenvalues --  -10.24595  -3.16686  -3.16313  -1.91568  -1.91195
 Alpha  occ. eigenvalues --   -1.91154  -1.90996  -1.90783  -1.90620  -1.16759
 Alpha  occ. eigenvalues --   -1.16422  -1.08746  -1.08522  -1.07374  -1.06894
 Alpha  occ. eigenvalues --   -1.06775  -1.06752  -1.04722  -1.04389  -1.03901
 Alpha  occ. eigenvalues --   -1.03564  -1.03375  -1.02944  -1.02551  -1.02013
 Alpha  occ. eigenvalues --   -0.92107  -0.91870  -0.89653  -0.89404  -0.89326
 Alpha  occ. eigenvalues --   -0.89018  -0.88419  -0.88136  -0.87994  -0.87813
 Alpha  occ. eigenvalues --   -0.87694  -0.87578  -0.87424  -0.87039  -0.85123
 Alpha  occ. eigenvalues --   -0.84874  -0.84067  -0.83788  -0.83120  -0.82856
 Alpha  occ. eigenvalues --   -0.82789  -0.82532  -0.81716  -0.81437  -0.80734
 Alpha  occ. eigenvalues --   -0.80310  -0.78939  -0.78546  -0.77354  -0.77068
 Alpha  occ. eigenvalues --   -0.77035  -0.76761  -0.76054  -0.75698  -0.75026
 Alpha  occ. eigenvalues --   -0.74703  -0.72907  -0.72600  -0.71804  -0.71470
 Alpha  occ. eigenvalues --   -0.70039  -0.69679  -0.69013  -0.68706  -0.67780
 Alpha  occ. eigenvalues --   -0.67494  -0.67369  -0.67076  -0.65425  -0.65138
 Alpha  occ. eigenvalues --   -0.64989  -0.64756  -0.64659  -0.64519  -0.64403
 Alpha  occ. eigenvalues --   -0.64109  -0.62427  -0.62113  -0.60587  -0.60255
 Alpha  occ. eigenvalues --   -0.59942  -0.59673  -0.59122  -0.58885  -0.58638
 Alpha  occ. eigenvalues --   -0.58312  -0.57713  -0.57444  -0.57407  -0.57135
 Alpha  occ. eigenvalues --   -0.56444  -0.56110  -0.56101  -0.55717  -0.55661
 Alpha  occ. eigenvalues --   -0.55468  -0.55332  -0.55131  -0.54652  -0.54354
 Alpha  occ. eigenvalues --   -0.54035  -0.53780  -0.53439  -0.53363  -0.53126
 Alpha  occ. eigenvalues --   -0.53051  -0.53019  -0.52906  -0.52768  -0.52574
 Alpha  occ. eigenvalues --   -0.52570  -0.52321  -0.52029  -0.51783  -0.51760
 Alpha  occ. eigenvalues --   -0.51533  -0.51326  -0.51080  -0.50730  -0.50402
 Alpha  occ. eigenvalues --   -0.50165  -0.50065  -0.49879  -0.49783  -0.49657
 Alpha  occ. eigenvalues --   -0.49382  -0.49349  -0.49227  -0.49084  -0.48974
 Alpha  occ. eigenvalues --   -0.48721  -0.48602  -0.48578  -0.48425  -0.48285
 Alpha  occ. eigenvalues --   -0.48236  -0.47834  -0.47481  -0.47434  -0.47018
 Alpha  occ. eigenvalues --   -0.46931  -0.46696  -0.46604  -0.46495  -0.46427
 Alpha  occ. eigenvalues --   -0.46291  -0.46170  -0.45971  -0.45943  -0.45681
 Alpha  occ. eigenvalues --   -0.45331  -0.45117  -0.44706  -0.44651  -0.44388
 Alpha  occ. eigenvalues --   -0.44360  -0.44283  -0.44225  -0.44154  -0.44012
 Alpha  occ. eigenvalues --   -0.43978  -0.43826  -0.43623  -0.43523  -0.43398
 Alpha  occ. eigenvalues --   -0.43262  -0.43159  -0.42830  -0.42804  -0.42785
 Alpha  occ. eigenvalues --   -0.42726  -0.42470  -0.42144  -0.41860  -0.41836
 Alpha  occ. eigenvalues --   -0.41673  -0.41552  -0.41337  -0.41274  -0.41010
 Alpha  occ. eigenvalues --   -0.40977  -0.40879  -0.40703  -0.40625  -0.40587
 Alpha  occ. eigenvalues --   -0.40395  -0.40385  -0.40085  -0.39575  -0.39349
 Alpha  occ. eigenvalues --   -0.38602  -0.38258  -0.37894  -0.37518  -0.37455
 Alpha  occ. eigenvalues --   -0.37406  -0.37169  -0.37077  -0.36843  -0.36596
 Alpha  occ. eigenvalues --   -0.36326  -0.36092  -0.34425  -0.34150  -0.33907
 Alpha  occ. eigenvalues --   -0.33691  -0.33325  -0.33072  -0.31501  -0.31198
 Alpha  occ. eigenvalues --   -0.31175  -0.30869  -0.30148  -0.29823  -0.29594
 Alpha  occ. eigenvalues --   -0.29456  -0.29235  -0.29110  -0.24221  -0.23934
 Alpha  occ. eigenvalues --   -0.21266  -0.21019
 Alpha virt. eigenvalues --   -0.08914  -0.08694  -0.01892  -0.01588  -0.00205
 Alpha virt. eigenvalues --    0.00065   0.02070   0.02317   0.02931   0.03315
 Alpha virt. eigenvalues --    0.04578   0.04846   0.04967   0.05347   0.06035

 Mulliken charges:
               1
     1  Mg   0.837857
     2  C   -0.003199
     3  C   -0.094312
     4  C   -0.045974
     5  C   -0.063838
     6  N   -0.256800
     7  C   -0.052485
     8  C   -0.013928
     9  C   -0.086935
    10  C    0.046077
    11  C    0.104748
    12  C    0.053524
    13  C   -0.071790
    14  H    0.035932
    15  N   -0.433134
    16  C    0.168067
    17  C   -0.177393
    18  C   -0.004261
    19  C    0.148418
    20  C    0.110166
    21  C    0.011831
    22  O   -0.249621
    23  C    0.062712
    24  N   -0.341107
    25  C    0.041166
    26  C   -0.028171
    27  C   -0.024101
    28  C    0.074822
    29  C    0.076088
    30  C    0.035096
    31  C   -0.004542
    32  N   -0.310573
    33  C    0.080410
    34  C   -0.169367
    35  C    0.008616
    36  C    0.082865
    37  C    0.127229
    38  C    0.046280
    39  O   -0.187732
    40  C   -0.005361
    41  C    0.213118
    42  O   -0.257632
    43  O   -0.304619
    44  C    0.157671
    45  H   -0.017472
    46  H   -0.016810
    47  H   -0.041050
    48  H    0.001260
    49  H   -0.004127
    50  H    0.025674
    51  H    0.016558
    52  H    0.016867
    53  H    0.010631
    54  H    0.043724
    55  H    0.018342
    56  H    0.017902
    57  H    0.005970
    58  H    0.027063
    59  H    0.038848
    60  H    0.037702
    61  H    0.035542
    62  H    0.030640
    63  H    0.016367
    64  H    0.009832
    65  H    0.023319
    66  H    0.012645
    67  H    0.005044
    68  H    0.006638
    69  H    0.005205
    70  H    0.008469
    71  H    0.018418
    72  H    0.028456
    73  H    0.048129
    74  H    0.009390
    75  H    0.046324
    76  H    0.035485
    77  H    0.043498
    78  H    0.046332
    79  H    0.053367
    80  Mg   0.837582
    81  C   -0.016828
    82  C   -0.087855
    83  C   -0.045688
    84  C   -0.065112
    85  N   -0.254573
    86  C   -0.049734
    87  C   -0.015150
    88  C   -0.090437
    89  C    0.045757
    90  C    0.114457
    91  C    0.062611
    92  C   -0.078034
    93  H    0.034912
    94  N   -0.423451
    95  C    0.162829
    96  C   -0.174780
    97  C   -0.008019
    98  C    0.152064
    99  C    0.099464
   100  C    0.015416
   101  O   -0.253418
   102  C    0.061267
   103  N   -0.350081
   104  C    0.037460
   105  C   -0.019771
   106  C   -0.034801
   107  C    0.088988
   108  C    0.073731
   109  C    0.034783
   110  C   -0.007639
   111  N   -0.324132
   112  C    0.078557
   113  C   -0.163259
   114  C    0.002447
   115  C    0.096147
   116  C    0.131505
   117  C    0.042325
   118  O   -0.187196
   119  C    0.001111
   120  C    0.211277
   121  O   -0.251670
   122  O   -0.304973
   123  C    0.152041
   124  H   -0.019841
   125  H   -0.015843
   126  H   -0.040612
   127  H    0.000705
   128  H   -0.004629
   129  H    0.022984
   130  H    0.014035
   131  H    0.016427
   132  H    0.013192
   133  H    0.037622
   134  H    0.022797
   135  H    0.018544
   136  H    0.008560
   137  H    0.025904
   138  H    0.039355
   139  H    0.038126
   140  H    0.036122
   141  H    0.033716
   142  H    0.014213
   143  H    0.012314
   144  H    0.024915
   145  H    0.011637
   146  H    0.005537
   147  H    0.006070
   148  H    0.003602
   149  H    0.010816
   150  H    0.017796
   151  H    0.030227
   152  H    0.046080
   153  H    0.008296
   154  H    0.047027
   155  H    0.035843
   156  H    0.045552
   157  H    0.050170
   158  H    0.052608
 Sum of Mulliken charges =  -0.00000

 Dipole moment (field-independent basis, Debye):
    X=              4.4772    Y=              6.3782    Z=             -3.5889  Tot=              8.5795
 Quadrupole moment (field-independent basis, Debye-Ang):
   XX=           -496.4934   YY=           -563.5594   ZZ=           -461.8450
   XY=             10.5531   XZ=            -41.5258   YZ=             -5.5936

 Normal termination of Gaussian 16 at Sun Sep 12 03:31:35 2021.
