 Gaussian 16, Revision A.03,
 Gaussian 16:  ES64L-G16RevA.03 25-Dec-2016

 -----------------------------------
 #p cam-b3lyp/Def2SVP td=(nstates=5)
 -----------------------------------

 --------------------------------
 TDDFT excited states in gaussian
 --------------------------------
 Symbolic Z-matrix:
 Charge =  0 Multiplicity = 1

                         Standard orientation:
 ---------------------------------------------------------------------
 Center     Atomic      Atomic             Coordinates (Angstroms)
 Number     Number       Type             X           Y           Z
 ---------------------------------------------------------------------
      1         12           0       -4.065314    0.942823   -0.152171
      2          6           0       -4.640751   -2.139607    1.574012
      3          6           0       -4.824078    2.544994    2.763372
      4          6           0       -4.007579    3.673116   -1.764247
      5          6           0       -4.466614   -0.821138   -3.130939
      6          7           0       -4.641759    0.188569    1.847693
      7          6           0       -4.768247   -1.016526    2.394426
      8          6           0       -4.974486   -0.976018    3.938187
      9          6           0       -5.572553    0.495697    4.073720
     10          6           0       -4.948328    1.126005    2.841252
     11          6           0       -7.090805    0.551228    3.938332
     12          6           0       -3.626820   -1.121186    4.722059
     13          6           0       -3.769565   -1.418188    6.217641
     14          1           0       -2.795296   -2.291608    6.854262
     15          7           0       -3.892290    2.804302    0.486428
     16          6           0       -4.234852    3.276115    1.709265
     17          6           0       -3.915000    4.719765    1.693392
     18          6           0       -3.536187    5.086601    0.300544
     19          6           0       -3.825879    3.859220   -0.395869
     20          6           0       -3.938143    5.581182    2.918617
     21          6           0       -3.008343    6.347090   -0.308291
     22          8           0       -2.965644    6.525320   -1.573591
     23          6           0       -2.619752    7.416661    0.628757
     24          7           0       -4.431427    1.419590   -2.151243
     25          6           0       -4.279910    2.669959   -2.601359
     26          6           0       -4.318444    2.719200   -4.100035
     27          6           0       -4.285155    1.200842   -4.593225
     28          6           0       -4.317436    0.503017   -3.211101
     29          6           0       -5.532279    3.429144   -4.715334
     30          6           0       -3.166115    0.809920   -5.590897
     31          6           0       -1.819346    0.886280   -4.907173
     32          7           0       -4.303821   -1.138359   -0.720361
     33          6           0       -4.476718   -1.643868   -2.016988
     34          6           0       -4.703516   -3.095089   -1.888187
     35          6           0       -4.663027   -3.331855   -0.515545
     36          6           0       -4.452117   -2.102131    0.171178
     37          6           0       -4.969087   -3.995215   -2.957616
     38          6           0       -4.773439   -4.333903    0.532103
     39          8           0       -4.859407   -5.562616    0.551239
     40          6           0       -4.885040   -3.584338    1.932647
     41          6           0       -3.922088   -4.246102    2.880329
     42          8           0       -2.689865   -4.165667    2.699988
     43          8           0       -4.585853   -4.662842    3.969496
     44          6           0       -3.683361   -5.302540    4.963704
     45          1           0       -5.269153    3.157754    3.549739
     46          1           0       -3.884814    4.575354   -2.367019
     47          1           0       -4.515418   -1.449835   -4.021900
     48          1           0       -5.689225   -1.704987    4.320519
     49          1           0       -5.220333    0.996673    4.975211
     50          1           0       -7.499933   -0.414495    3.641828
     51          1           0       -7.287369    1.299868    3.170612
     52          1           0       -7.547513    0.932119    4.852179
     53          1           0       -3.133666   -0.150427    4.771930
     54          1           0       -2.993111   -1.880536    4.262573
     55          1           0       -4.783781   -1.731602    6.466733
     56          1           0       -3.631802   -0.486028    6.765637
     57          1           0       -4.413097    5.072742    3.756741
     58          1           0       -4.595930    6.423068    2.703552
     59          1           0       -2.945718    5.947814    3.181308
     60          1           0       -3.482268    7.695294    1.234545
     61          1           0       -2.182429    8.206445    0.018970
     62          1           0       -1.872728    7.026000    1.320340
     63          1           0       -3.449464    3.242707   -4.496571
     64          1           0       -5.206377    0.915726   -5.101883
     65          1           0       -5.267874    4.253394   -5.378212
     66          1           0       -6.170896    3.771265   -3.901447
     67          1           0       -6.211900    2.778726   -5.265323
     68          1           0       -3.141800    1.508818   -6.426299
     69          1           0       -3.286121   -0.192957   -6.000882
     70          1           0       -1.563874    1.942087   -4.989872
     71          1           0       -1.091114    0.266198   -5.430993
     72          1           0       -1.898132    0.652297   -3.845321
     73          1           0       -4.367680   -4.883585   -2.765057
     74          1           0       -4.720897   -3.549977   -3.920823
     75          1           0       -6.040907   -4.147638   -2.831815
     76          1           0       -5.918703   -3.686801    2.261531
     77          1           0       -4.078696   -6.298912    5.161660
     78          1           0       -3.608489   -4.611796    5.803747
     79          1           0       -2.678406   -5.545123    4.616491
     80         12           0        4.867035   -0.038872    0.021383
     81          6           0        2.194012   -1.929832   -1.447731
     82          6           0        3.041741    2.767322   -0.632998
     83          6           0        7.385522    1.682517    0.894002
     84          6           0        6.918468   -2.811042   -0.481022
     85          7           0        2.887605    0.252206   -0.921696
     86          6           0        1.936438   -0.544473   -1.385301
     87          6           0        0.605700    0.176111   -1.730937
     88          6           0        1.188555    1.651929   -1.978122
     89          6           0        2.433875    1.573600   -1.097369
     90          6           0        1.631825    1.891591   -3.411793
     91          6           0       -0.413593    0.153410   -0.538234
     92          6           0       -1.841522    0.563840   -0.904725
     93          1           0       -2.952108   -0.102430   -0.230069
     94          7           0        4.994602    1.864813    0.567531
     95          6           0        4.155337    2.866244    0.229817
     96          6           0        4.696112    4.076659    0.867492
     97          6           0        6.013154    3.739467    1.472808
     98          6           0        6.195765    2.391628    0.972719
     99          6           0        3.938396    5.371015    0.930363
    100          6           0        6.958576    4.508102    2.345487
    101          8           0        8.156668    4.105550    2.558465
    102          6           0        6.471134    5.793103    2.867646
    103          7           0        6.911376   -0.415884   -0.008344
    104          6           0        7.786949    0.481254    0.477913
    105          6           0        9.167469   -0.117422    0.604983
    106          6           0        8.984304   -1.682023    0.329224
    107          6           0        7.478227   -1.704177   -0.012321
    108          6           0       10.226494    0.445545   -0.342605
    109          6           0        9.509196   -2.655117    1.420205
    110          6           0        8.677214   -2.520644    2.675234
    111          7           0        4.592131   -2.078481   -0.636246
    112          6           0        5.590172   -3.064186   -0.798714
    113          6           0        4.935174   -4.255982   -1.375798
    114          6           0        3.595321   -3.869994   -1.531675
    115          6           0        3.431239   -2.525334   -1.102203
    116          6           0        5.583568   -5.473586   -1.726694
    117          6           0        2.284619   -4.290792   -1.971792
    118          8           0        1.796281   -5.353391   -2.354062
    119          6           0        1.344719   -3.011719   -2.055050
    120          6           0        0.044570   -3.345733   -1.376400
    121          8           0        0.009650   -3.572812   -0.154186
    122          8           0       -0.968786   -3.129557   -2.234752
    123          6           0       -2.280183   -3.436284   -1.603900
    124          1           0        2.656914    3.720723   -0.996058
    125          1           0        8.266627    2.194754    1.287362
    126          1           0        7.469789   -3.748971   -0.575909
    127          1           0        0.113373   -0.184010   -2.626310
    128          1           0        0.506779    2.413040   -1.607653
    129          1           0        1.591164    0.988440   -4.002392
    130          1           0        2.648565    2.256627   -3.348223
    131          1           0        1.047735    2.702464   -3.856403
    132          1           0       -0.161102    0.958364    0.163927
    133          1           0       -0.424513   -0.808994   -0.064652
    134          1           0       -2.001723    0.574517   -1.989706
    135          1           0       -1.992730    1.602614   -0.601245
    136          1           0        3.072738    5.363501    0.256588
    137          1           0        4.594941    6.146102    0.520436
    138          1           0        3.659592    5.646790    1.949618
    139          1           0        6.203347    6.442124    2.037269
    140          1           0        7.252948    6.150553    3.540618
    141          1           0        5.551703    5.613641    3.436023
    142          1           0        9.557794    0.019655    1.605960
    143          1           0        9.517135   -2.000858   -0.578667
    144          1           0       11.110469    0.853013    0.183357
    145          1           0        9.764772    1.207316   -0.956647
    146          1           0       10.600135   -0.255870   -1.086661
    147          1           0       10.533807   -2.395726    1.697790
    148          1           0        9.513598   -3.693707    1.106674
    149          1           0        9.125339   -1.657865    3.177109
    150          1           0        8.757117   -3.417809    3.285763
    151          1           0        7.640242   -2.259689    2.433912
    152          1           0        4.946361   -6.276574   -1.380740
    153          1           0        6.576993   -5.535952   -1.287391
    154          1           0        5.621539   -5.367971   -2.814206
    155          1           0        1.206479   -2.774912   -3.110700
    156          1           0       -2.780776   -4.167032   -2.246633
    157          1           0       -2.781229   -2.459666   -1.466329
    158          1           0       -2.269723   -3.960788   -0.655614
 ---------------------------------------------------------------------

 SCF Done:  E(RCAM-B3LYP) =  -4069.72936587     A.U. after   19 cycles

 Excitation energies and oscillator strengths:

 Excited State   1:      Singlet-A      1.6175 eV  766.51 nm  f=0.0330  <S**2>=0.000
     309 -> 315        0.14084
     311 -> 313        0.57682
     312 -> 314       -0.37462
 This state for optimization and/or second-order correction.
 Total Energy, E(TD-HF/TD-DFT) =  -4069.66992335
 Copying the excited state density for this state as the 1-particle RhoCI density.

 Excited State   2:      Singlet-A      1.6987 eV  729.89 nm  f=0.6350  <S**2>=0.000
     309 -> 315        0.10287
     310 -> 316        0.15028
     311 -> 313        0.37006
     312 -> 314        0.57456

 Excited State   3:      Singlet-A      2.1064 eV  588.60 nm  f=0.0828  <S**2>=0.000
     309 -> 313        0.64165
     311 -> 315       -0.25815
     312 -> 313       -0.10138

 Excited State   4:      Singlet-A      2.1788 eV  569.04 nm  f=0.1080  <S**2>=0.000
     310 -> 314        0.62753
     312 -> 313        0.15299
     312 -> 316       -0.26418

 Excited State   5:      Singlet-A      2.2037 eV  562.61 nm  f=0.0100  <S**2>=0.000
     310 -> 314       -0.13821
     312 -> 313        0.68152

 The electronic state is 1-A.
 Alpha  occ. eigenvalues --  -46.87337 -46.86882 -19.26173 -19.24555 -19.19321
 Alpha  occ. eigenvalues --  -19.18906 -19.18620 -19.18474 -19.17799 -19.17525
 Alpha  occ. eigenvalues --  -14.42639 -14.42199 -14.41618 -14.41031 -14.39544
 Alpha  occ. eigenvalues --  -14.39396 -14.39035 -14.38252 -10.38969 -10.37762
 Alpha  occ. eigenvalues --  -10.35946 -10.35160 -10.34834 -10.33668 -10.31790
 Alpha  occ. eigenvalues --  -10.31489 -10.31263 -10.30957 -10.30953 -10.30895
 Alpha  occ. eigenvalues --  -10.30706 -10.30568 -10.30348 -10.30103 -10.30072
 Alpha  occ. eigenvalues --  -10.30005 -10.29866 -10.29782 -10.29573 -10.29138
 Alpha  occ. eigenvalues --  -10.29082 -10.29049 -10.29000 -10.28928 -10.28729
 Alpha  occ. eigenvalues --  -10.28633 -10.28525 -10.28514 -10.28335 -10.28050
 Alpha  occ. eigenvalues --  -10.28025 -10.27952 -10.27950 -10.27894 -10.27861
 Alpha  occ. eigenvalues --  -10.27820 -10.27680 -10.27645 -10.27399 -10.27353
 Alpha  occ. eigenvalues --  -10.27277 -10.27250 -10.27154 -10.27128 -10.27102
 Alpha  occ. eigenvalues --  -10.26899 -10.26787 -10.26738 -10.26705 -10.26639
 Alpha  occ. eigenvalues --  -10.26581 -10.26445 -10.26324 -10.26259 -10.25924
 Alpha  occ. eigenvalues --  -10.25819 -10.25684 -10.25621 -10.25526 -10.25488
 Alpha  occ. eigenvalues --  -10.25413 -10.25267 -10.25182 -10.24521 -10.24494
 Alpha  occ. eigenvalues --  -10.24363  -3.16287  -3.16087  -1.91227  -1.90970
 Alpha  occ. eigenvalues --   -1.90711  -1.90612  -1.90559  -1.90395  -1.16525
 Alpha  occ. eigenvalues --   -1.15066  -1.09065  -1.08071  -1.07724  -1.06732
 Alpha  occ. eigenvalues --   -1.06523  -1.05580  -1.05147  -1.04175  -1.04107
 Alpha  occ. eigenvalues --   -1.04088  -1.03347  -1.03011  -1.02715  -1.01776
 Alpha  occ. eigenvalues --   -0.92472  -0.91530  -0.90053  -0.89624  -0.89191
 Alpha  occ. eigenvalues --   -0.89105  -0.88982  -0.88736  -0.88034  -0.87942
 Alpha  occ. eigenvalues --   -0.87701  -0.87503  -0.87412  -0.86855  -0.85268
 Alpha  occ. eigenvalues --   -0.84953  -0.84466  -0.83556  -0.83434  -0.82935
 Alpha  occ. eigenvalues --   -0.82697  -0.82446  -0.81931  -0.80998  -0.80888
 Alpha  occ. eigenvalues --   -0.79857  -0.79326  -0.78334  -0.77792  -0.77456
 Alpha  occ. eigenvalues --   -0.77139  -0.76599  -0.76224  -0.75497  -0.75218
 Alpha  occ. eigenvalues --   -0.74463  -0.73407  -0.72413  -0.72068  -0.71267
 Alpha  occ. eigenvalues --   -0.70472  -0.69578  -0.69362  -0.69133  -0.68165
 Alpha  occ. eigenvalues --   -0.67609  -0.67442  -0.67195  -0.65671  -0.65230
 Alpha  occ. eigenvalues --   -0.65146  -0.64930  -0.64716  -0.64451  -0.64211
 Alpha  occ. eigenvalues --   -0.63871  -0.62481  -0.61528  -0.60827  -0.60439
 Alpha  occ. eigenvalues --   -0.60055  -0.59585  -0.59476  -0.58957  -0.58632
 Alpha  occ. eigenvalues --   -0.58082  -0.57986  -0.57593  -0.57028  -0.57016
 Alpha  occ. eigenvalues --   -0.56784  -0.56180  -0.56135  -0.55881  -0.55856
 Alpha  occ. eigenvalues --   -0.55416  -0.55234  -0.54929  -0.54787  -0.54408
 Alpha  occ. eigenvalues --   -0.54213  -0.54002  -0.53671  -0.53620  -0.53538
 Alpha  occ. eigenvalues --   -0.53211  -0.53190  -0.53019  -0.52927  -0.52777
 Alpha  occ. eigenvalues --   -0.52527  -0.52303  -0.52148  -0.51782  -0.51583
 Alpha  occ. eigenvalues --   -0.51502  -0.51278  -0.50999  -0.50966  -0.50666
 Alpha  occ. eigenvalues --   -0.50486  -0.50271  -0.50041  -0.49836  -0.49691
 Alpha  occ. eigenvalues --   -0.49638  -0.49488  -0.49300  -0.49119  -0.49110
 Alpha  occ. eigenvalues --   -0.48874  -0.48800  -0.48722  -0.48381  -0.48219
 Alpha  occ. eigenvalues --   -0.48092  -0.47978  -0.47758  -0.47716  -0.47454
 Alpha  occ. eigenvalues --   -0.47071  -0.46974  -0.46775  -0.46536  -0.46476
 Alpha  occ. eigenvalues --   -0.46373  -0.46034  -0.45936  -0.45652  -0.45399
 Alpha  occ. eigenvalues --   -0.45238  -0.44949  -0.44905  -0.44810  -0.44685
 Alpha  occ. eigenvalues --   -0.44618  -0.44527  -0.44259  -0.44073  -0.43906
 Alpha  occ. eigenvalues --   -0.43875  -0.43789  -0.43638  -0.43418  -0.43390
 Alpha  occ. eigenvalues --   -0.43322  -0.43031  -0.42858  -0.42658  -0.42623
 Alpha  occ. eigenvalues --   -0.42417  -0.42351  -0.42233  -0.41931  -0.41747
 Alpha  occ. eigenvalues --   -0.41579  -0.41406  -0.41312  -0.41187  -0.41058
 Alpha  occ. eigenvalues --   -0.41007  -0.40949  -0.40599  -0.40543  -0.40360
 Alpha  occ. eigenvalues --   -0.40303  -0.40192  -0.39782  -0.39748  -0.39313
 Alpha  occ. eigenvalues --   -0.39114  -0.38681  -0.37995  -0.37695  -0.37591
 Alpha  occ. eigenvalues --   -0.37020  -0.37007  -0.36874  -0.36572  -0.36261
 Alpha  occ. eigenvalues --   -0.36091  -0.35011  -0.34022  -0.33902  -0.33534
 Alpha  occ. eigenvalues --   -0.33452  -0.32968  -0.32483  -0.31827  -0.31182
 Alpha  occ. eigenvalues --   -0.31028  -0.30613  -0.30401  -0.29773  -0.29584
 Alpha  occ. eigenvalues --   -0.29349  -0.29022  -0.28828  -0.24221  -0.23677
 Alpha  occ. eigenvalues --   -0.21533  -0.20805
 Alpha virt. eigenvalues --   -0.09189  -0.08456  -0.02321  -0.01379  -0.00525
 Alpha virt. eigenvalues --    0.00269   0.01386   0.02621   0.03519   0.04188
 Alpha virt. eigenvalues --    0.04919   0.05073   0.05272   0.06219   0.06467

 Mulliken charges:
               1
     1  Mg   0.403917
     2  C    0.022181
     3  C   -0.095860
     4  C   -0.037333
     5  C   -0.036492
     6  N   -0.246333
     7  C   -0.057219
     8  C   -0.015434
     9  C   -0.086177
    10  C    0.054069
    11  C    0.104833
    12  C    0.052899
    13  C   -0.072529
    14  H    0.039152
    15  N   -0.417054
    16  C    0.174507
    17  C   -0.177357
    18  C   -0.006000
    19  C    0.143511
    20  C    0.110415
    21  C    0.009617
    22  O   -0.249981
    23  C    0.063143
    24  N   -0.303971
    25  C    0.045778
    26  C   -0.026690
    27  C   -0.019068
    28  C    0.051122
    29  C    0.076903
    30  C    0.039118
    31  C    0.016428
    32  N   -0.322839
    33  C    0.094595
    34  C   -0.256306
    35  C   -0.034621
    36  C    0.085170
    37  C    0.152978
    38  C    0.034977
    39  O   -0.179136
    40  C   -0.009536
    41  C    0.210251
    42  O   -0.243387
    43  O   -0.306609
    44  C    0.156363
    45  H   -0.018512
    46  H   -0.018088
    47  H   -0.044331
    48  H    0.001389
    49  H   -0.003407
    50  H    0.026053
    51  H    0.016726
    52  H    0.017414
    53  H    0.011873
    54  H    0.049666
    55  H    0.017479
    56  H    0.017474
    57  H    0.007600
    58  H    0.027601
    59  H    0.039332
    60  H    0.039007
    61  H    0.035509
    62  H    0.030044
    63  H    0.013726
    64  H    0.009949
    65  H    0.023292
    66  H    0.013866
    67  H    0.005866
    68  H    0.007339
    69  H    0.007564
    70  H    0.009606
    71  H    0.022301
    72  H   -0.000797
    73  H    0.051820
    74  H    0.012400
    75  H    0.048372
    76  H    0.035884
    77  H    0.043042
    78  H    0.045668
    79  H    0.058513
    80  Mg   0.837407
    81  C   -0.014302
    82  C   -0.088668
    83  C   -0.046353
    84  C   -0.066011
    85  N   -0.254394
    86  C   -0.047701
    87  C   -0.020076
    88  C   -0.093828
    89  C    0.044408
    90  C    0.114751
    91  C    0.143265
    92  C   -0.168494
    93  H    0.226360
    94  N   -0.423281
    95  C    0.161937
    96  C   -0.175166
    97  C   -0.008827
    98  C    0.151938
    99  C    0.099172
   100  C    0.014860
   101  O   -0.254079
   102  C    0.061638
   103  N   -0.350364
   104  C    0.037303
   105  C   -0.019522
   106  C   -0.034865
   107  C    0.089507
   108  C    0.073966
   109  C    0.034938
   110  C   -0.007570
   111  N   -0.324297
   112  C    0.079158
   113  C   -0.163466
   114  C    0.003379
   115  C    0.095802
   116  C    0.131320
   117  C    0.042874
   118  O   -0.185575
   119  C    0.007530
   120  C    0.213754
   121  O   -0.244140
   122  O   -0.314275
   123  C    0.250672
   124  H   -0.018297
   125  H   -0.016635
   126  H   -0.041074
   127  H   -0.004750
   128  H    0.000548
   129  H    0.021670
   130  H    0.012870
   131  H    0.019899
   132  H    0.013084
   133  H    0.046157
   134  H    0.075841
   135  H    0.129327
   136  H    0.009351
   137  H    0.025674
   138  H    0.036782
   139  H    0.037986
   140  H    0.035361
   141  H    0.032564
   142  H    0.013710
   143  H    0.011936
   144  H    0.024355
   145  H    0.011502
   146  H    0.005091
   147  H    0.005543
   148  H    0.003491
   149  H    0.010389
   150  H    0.017463
   151  H    0.030780
   152  H    0.047013
   153  H    0.007696
   154  H    0.046178
   155  H    0.030597
   156  H    0.004688
   157  H    0.046515
   158  H    0.052774
 Sum of Mulliken charges =  -0.00000

 Dipole moment (field-independent basis, Debye):
    X=             -3.1686    Y=              6.8839    Z=              1.7045  Tot=              7.7674
 Quadrupole moment (field-independent basis, Debye-Ang):
   XX=           -491.1584   YY=           -542.1883   ZZ=           -472.2006
   XY=            -30.5184   XZ=            -19.2997   YZ=              5.7088

 Normal termination of Gaussian 16 at Thu Sep  9 22:11:45 2021.
