 Gaussian 16, Revision A.03,
 Gaussian 16:  ES64L-G16RevA.03 25-Dec-2016

 -----------------------------------
 #p cam-b3lyp/Def2SVP td=(nstates=5)
 -----------------------------------

 --------------------------------
 TDDFT excited states in gaussian
 --------------------------------
 Symbolic Z-matrix:
 Charge =  0 Multiplicity = 1

                         Standard orientation:
 ---------------------------------------------------------------------
 Center     Atomic      Atomic             Coordinates (Angstroms)
 Number     Number       Type             X           Y           Z
 ---------------------------------------------------------------------
      1         12           0      -15.788453    0.613506   -0.488897
      2          6           0      -16.023125   -2.562445    1.145263
      3          6           0      -16.748479    2.035046    2.460787
      4          6           0      -16.028921    3.377661   -2.024554
      5          6           0      -15.961964   -1.098707   -3.519389
      6          7           0      -16.291515   -0.258246    1.482809
      7          6           0      -16.284380   -1.485050    1.994739
      8          6           0      -16.506459   -1.512406    3.536590
      9          6           0      -17.269335   -0.122654    3.705731
     10          6           0      -16.710939    0.609486    2.498217
     11          6           0      -18.782878   -0.236132    3.554702
     12          6           0      -15.157459   -1.525875    4.331417
     13          6           0      -15.277626   -1.879825    5.816554
     14          1           0      -14.215440   -2.654743    6.439940
     15          7           0      -15.833770    2.463558    0.202551
     16          6           0      -16.237788    2.858227    1.433930
     17          6           0      -16.084319    4.328728    1.461377
     18          6           0      -15.738416    4.775914    0.083527
     19          6           0      -15.880752    3.543990   -0.649604
     20          6           0      -16.215398    5.146541    2.709475
     21          6           0      -15.352624    6.105108   -0.484401
     22          8           0      -15.320197    6.323150   -1.743758
     23          6           0      -15.096023    7.184662    0.486042
     24          7           0      -16.190188    1.102567   -2.478134
     25          6           0      -16.178402    2.374413   -2.891961
     26          6           0      -16.210083    2.461799   -4.389058
     27          6           0      -16.000067    0.971787   -4.923389
     28          6           0      -15.963918    0.235571   -3.561424
     29          6           0      -17.491824    3.046540   -4.998343
     30          6           0      -14.835696    0.739234   -5.918667
     31          6           0      -13.512001    0.948529   -5.217865
     32          7           0      -15.783743   -1.464191   -1.116750
     33          6           0      -15.887373   -1.948779   -2.428661
     34          6           0      -15.948455   -3.419456   -2.342382
     35          6           0      -15.892447   -3.689250   -0.976395
     36          6           0      -15.828566   -2.463673   -0.253780
     37          6           0      -16.101061   -4.312971   -3.439094
     38          6           0      -15.896546   -4.726905    0.041992
     39          8           0      -15.842167   -5.957471    0.026369
     40          6           0      -16.104195   -4.035239    1.461254
     41          6           0      -15.079891   -4.610142    2.401253
     42          8           0      -13.863419   -4.385101    2.237185
     43          8           0      -15.700724   -5.130578    3.470951
     44          6           0      -14.739377   -5.691766    4.457376
     45          1           0      -17.266837    2.570527    3.258600
     46          1           0      -16.004807    4.304873   -2.600865
     47          1           0      -15.931587   -1.703137   -4.427792
     48          1           0      -17.136614   -2.328495    3.890604
     49          1           0      -16.983818    0.389108    4.624591
     50          1           0      -19.076927   -1.233208    3.227140
     51          1           0      -19.057167    0.506976    2.805670
     52          1           0      -19.287424    0.064108    4.473433
     53          1           0      -14.778498   -0.507197    4.413546
     54          1           0      -14.437668   -2.194853    3.858452
     55          1           0      -16.251543   -2.313437    6.045412
     56          1           0      -15.251394   -0.954105    6.391494
     57          1           0      -16.636166    4.563669    3.527864
     58          1           0      -16.963015    5.914044    2.510184
     59          1           0      -15.273360    5.615891    2.993390
     60          1           0      -15.989566    7.346054    1.089435
     61          1           0      -14.746543    8.036135   -0.096803
     62          1           0      -14.315025    6.861787    1.175058
     63          1           0      -15.403180    3.091774   -4.761168
     64          1           0      -16.878648    0.598516   -5.450113
     65          1           0      -17.317624    3.914113   -5.635271
     66          1           0      -18.171860    3.290468   -4.182658
     67          1           0      -18.088443    2.339115   -5.573680
     68          1           0      -14.884333    1.459974   -6.734213
     69          1           0      -14.837357   -0.258645   -6.357400
     70          1           0      -13.377773    2.028456   -5.268607
     71          1           0      -12.713643    0.430439   -5.750235
     72          1           0      -13.572273    0.676836   -4.163808
     73          1           0      -15.403979   -5.132399   -3.264216
     74          1           0      -15.897357   -3.815051   -4.386820
     75          1           0      -17.149536   -4.589718   -3.329700
     76          1           0      -17.122107   -4.263845    1.775446
     77          1           0      -15.020261   -6.731855    4.623370
     78          1           0      -14.750507   -5.021299    5.316884
     79          1           0      -13.710538   -5.808567    4.115051
     80         12           0       15.957597    0.725307    0.368426
     81          6           0       15.816938   -2.228892   -1.664309
     82          6           0       15.016607   -1.224376    3.004315
     83          6           0       15.634436    3.374449    2.084532
     84          6           0       15.762235    2.588566   -2.570249
     85          7           0       15.505442   -1.434210    0.524412
     86          6           0       15.545349   -2.469119   -0.301240
     87          6           0       15.358386   -3.848143    0.386459
     88          6           0       14.561481   -3.359581    1.692263
     89          6           0       15.081775   -1.925963    1.774011
     90          6           0       13.055478   -3.310611    1.494974
     91          6           0       16.726052   -4.517534    0.765163
     92          6           0       16.632844   -5.993974    1.156546
     93          1           0       17.728206   -6.883939    0.781545
     94          7           0       15.887670    0.980856    2.335249
     95          6           0       15.503257    0.076405    3.260163
     96          6           0       15.610559    0.758754    4.559029
     97          6           0       15.931792    2.190637    4.311545
     98          6           0       15.807193    2.243173    2.868701
     99          6           0       15.492261    0.036668    5.869765
    100          6           0       16.279456    3.327817    5.223766
    101          8           0       16.286866    4.542088    4.813486
    102          6           0       16.519748    2.987383    6.633675
    103          7           0       15.518562    2.691963   -0.143276
    104          6           0       15.490164    3.659318    0.790181
    105          6           0       15.427736    5.028139    0.155482
    106          6           0       15.665087    4.788096   -1.407726
    107          6           0       15.738026    3.245391   -1.418646
    108          6           0       14.122617    5.797156    0.359624
    109          6           0       16.817504    5.587305   -2.075469
    110          6           0       18.150465    5.114099   -1.541899
    111          7           0       16.000603    0.299085   -1.749244
    112          6           0       15.877894    1.225003   -2.808349
    113          6           0       15.850294    0.448277   -4.064681
    114          6           0       15.936375   -0.887626   -3.644643
    115          6           0       15.991913   -0.940852   -2.225636
    116          6           0       15.708253    0.988671   -5.373853
    117          6           0       15.982169   -2.265440   -4.078515
    118          8           0       16.055529   -2.830879   -5.168749
    119          6           0       15.779400   -3.201659   -2.810143
    120          6           0       16.831910   -4.275424   -2.852387
    121          8           0       18.035209   -3.986162   -2.729853
    122          8           0       16.234166   -5.480181   -2.811942
    123          6           0       17.237571   -6.577533   -2.840458
    124          1           0       14.507091   -1.696796    3.844604
    125          1           0       15.628425    4.324976    2.622987
    126          1           0       15.801781    3.101010   -3.533839
    127          1           0       14.758337   -4.556589   -0.171947
    128          1           0       14.860146   -3.924342    2.571590
    129          1           0       12.777205   -3.499915    0.468884
    130          1           0       12.752145   -2.315152    1.791768
    131          1           0       12.561780   -3.995879    2.189959
    132          1           0       17.081661   -4.093924    1.713234
    133          1           0       17.440770   -4.397764   -0.025710
    134          1           0       15.667596   -6.434078    0.878086
    135          1           0       16.655805   -6.066122    2.246627
    136          1           0       15.091350   -0.975714    5.736541
    137          1           0       14.725860    0.557622    6.453799
    138          1           0       16.426596    0.034266    6.435162
    139          1           0       15.635286    2.506703    7.044920
    140          1           0       16.841499    3.916598    7.107936
    141          1           0       17.329652    2.250989    6.682646
    142          1           0       16.214834    5.667284    0.536365
    143          1           0       14.781469    5.065135   -2.001281
    144          1           0       14.268287    6.785964    0.834095
    145          1           0       13.455222    5.185655    0.952215
    146          1           0       13.539845    5.965982   -0.544297
    147          1           0       16.740090    6.647302   -1.821343
    148          1           0       16.822485    5.515182   -3.157949
    149          1           0       18.254799    5.673398   -0.607347
    150          1           0       18.950110    5.357132   -2.238708
    151          1           0       18.116294    4.048655   -1.286363
    152          1           0       16.418555    0.469700   -6.003641
    153          1           0       15.879892    2.063022   -5.381282
    154          1           0       14.663300    0.738521   -5.575789
    155          1           0       14.771258   -3.614187   -2.865274
    156          1           0       16.978748   -7.225292   -3.683721
    157          1           0       17.213683   -7.030474   -1.831480
    158          1           0       18.260879   -6.314826   -3.081870
 ---------------------------------------------------------------------

 SCF Done:  E(RCAM-B3LYP) =  -4069.81177530     A.U. after   19 cycles

 Excitation energies and oscillator strengths:

 Excited State   1:      Singlet-A      1.6755 eV  739.98 nm  f=0.3439  <S**2>=0.000
     310 -> 316        0.17228
     312 -> 313        0.68096
     310 <- 316        0.10384
 This state for optimization and/or second-order correction.
 Total Energy, E(TD-HF/TD-DFT) =  -4069.75020129
 Copying the excited state density for this state as the 1-particle RhoCI density.

 Excited State   2:      Singlet-A      1.6799 eV  738.04 nm  f=0.4326  <S**2>=0.000
     309 -> 315        0.17428
     311 -> 314        0.68061
     309 <- 315        0.10436

 Excited State   3:      Singlet-A      2.1861 eV  567.15 nm  f=0.1005  <S**2>=0.000
     310 -> 313        0.64237
     312 -> 316       -0.27304

 Excited State   4:      Singlet-A      2.1926 eV  565.47 nm  f=0.1003  <S**2>=0.000
     309 -> 314        0.64059
     311 -> 315       -0.27828

 Excited State   5:      Singlet-A      3.0660 eV  404.38 nm  f=0.0000  <S**2>=0.000
     311 -> 313        0.70711

 The electronic state is 1-A.
 Alpha  occ. eigenvalues --  -46.87796 -46.87660 -19.26344 -19.26289 -19.19157
 Alpha  occ. eigenvalues --  -19.19024 -19.18814 -19.18716 -19.18171 -19.18049
 Alpha  occ. eigenvalues --  -14.42496 -14.42450 -14.41449 -14.41359 -14.39402
 Alpha  occ. eigenvalues --  -14.39352 -14.38599 -14.38587 -10.39087 -10.39084
 Alpha  occ. eigenvalues --  -10.35447 -10.35393 -10.34391 -10.34227 -10.31750
 Alpha  occ. eigenvalues --  -10.31686 -10.31406 -10.31307 -10.31022 -10.30909
 Alpha  occ. eigenvalues --  -10.30570 -10.30507 -10.30398 -10.30360 -10.30206
 Alpha  occ. eigenvalues --  -10.30142 -10.29920 -10.29895 -10.29630 -10.29437
 Alpha  occ. eigenvalues --  -10.29401 -10.29254 -10.28751 -10.28715 -10.28648
 Alpha  occ. eigenvalues --  -10.28544 -10.28404 -10.28365 -10.28135 -10.28118
 Alpha  occ. eigenvalues --  -10.28000 -10.27793 -10.27727 -10.27668 -10.27584
 Alpha  occ. eigenvalues --  -10.27520 -10.27499 -10.27483 -10.27481 -10.27467
 Alpha  occ. eigenvalues --  -10.27464 -10.27447 -10.27404 -10.27378 -10.27160
 Alpha  occ. eigenvalues --  -10.27047 -10.26708 -10.26688 -10.26418 -10.26408
 Alpha  occ. eigenvalues --  -10.26236 -10.26180 -10.26141 -10.26019 -10.26018
 Alpha  occ. eigenvalues --  -10.25935 -10.25851 -10.25843 -10.25433 -10.25400
 Alpha  occ. eigenvalues --  -10.24872 -10.24833 -10.24787 -10.24734 -10.24690
 Alpha  occ. eigenvalues --  -10.24684  -3.16539  -3.16410  -1.91421  -1.91292
 Alpha  occ. eigenvalues --   -1.91007  -1.90881  -1.90850  -1.90718  -1.16638
 Alpha  occ. eigenvalues --   -1.16638  -1.08657  -1.08629  -1.07215  -1.06968
 Alpha  occ. eigenvalues --   -1.06941  -1.06647  -1.04581  -1.04494  -1.03760
 Alpha  occ. eigenvalues --   -1.03663  -1.03234  -1.03039  -1.02411  -1.02111
 Alpha  occ. eigenvalues --   -0.91986  -0.91973  -0.89518  -0.89495  -0.89189
 Alpha  occ. eigenvalues --   -0.89147  -0.88285  -0.88222  -0.87870  -0.87793
 Alpha  occ. eigenvalues --   -0.87683  -0.87673  -0.87273  -0.87120  -0.84997
 Alpha  occ. eigenvalues --   -0.84983  -0.83935  -0.83878  -0.82966  -0.82933
 Alpha  occ. eigenvalues --   -0.82651  -0.82650  -0.81594  -0.81588  -0.80597
 Alpha  occ. eigenvalues --   -0.80441  -0.78797  -0.78635  -0.77219  -0.77143
 Alpha  occ. eigenvalues --   -0.76936  -0.76896  -0.75925  -0.75836  -0.74897
 Alpha  occ. eigenvalues --   -0.74803  -0.72774  -0.72699  -0.71672  -0.71580
 Alpha  occ. eigenvalues --   -0.69905  -0.69760  -0.68874  -0.68825  -0.67641
 Alpha  occ. eigenvalues --   -0.67601  -0.67221  -0.67198  -0.65288  -0.65269
 Alpha  occ. eigenvalues --   -0.64854  -0.64769  -0.64652  -0.64621  -0.64268
 Alpha  occ. eigenvalues --   -0.64205  -0.62300  -0.62276  -0.60441  -0.60340
 Alpha  occ. eigenvalues --   -0.59805  -0.59794  -0.58992  -0.58987  -0.58504
 Alpha  occ. eigenvalues --   -0.58425  -0.57586  -0.57552  -0.57309  -0.57237
 Alpha  occ. eigenvalues --   -0.56310  -0.56203  -0.55982  -0.55883  -0.55520
 Alpha  occ. eigenvalues --   -0.55451  -0.55339  -0.55248  -0.54524  -0.54487
 Alpha  occ. eigenvalues --   -0.53909  -0.53896  -0.53299  -0.53227  -0.53223
 Alpha  occ. eigenvalues --   -0.53140  -0.52916  -0.52900  -0.52756  -0.52668
 Alpha  occ. eigenvalues --   -0.52436  -0.52403  -0.51915  -0.51884  -0.51656
 Alpha  occ. eigenvalues --   -0.51618  -0.51200  -0.51196  -0.50571  -0.50476
 Alpha  occ. eigenvalues --   -0.50030  -0.49978  -0.49918  -0.49868  -0.49515
 Alpha  occ. eigenvalues --   -0.49487  -0.49215  -0.49201  -0.49102  -0.49097
 Alpha  occ. eigenvalues --   -0.48594  -0.48556  -0.48460  -0.48446  -0.48377
 Alpha  occ. eigenvalues --   -0.48339  -0.47695  -0.47593  -0.47297  -0.47118
 Alpha  occ. eigenvalues --   -0.46797  -0.46708  -0.46557  -0.46551  -0.46359
 Alpha  occ. eigenvalues --   -0.46270  -0.46163  -0.46085  -0.45823  -0.45820
 Alpha  occ. eigenvalues --   -0.45210  -0.45200  -0.44579  -0.44512  -0.44507
 Alpha  occ. eigenvalues --   -0.44474  -0.44144  -0.44125  -0.44089  -0.44078
 Alpha  occ. eigenvalues --   -0.44020  -0.43938  -0.43551  -0.43497  -0.43386
 Alpha  occ. eigenvalues --   -0.43384  -0.43027  -0.42928  -0.42899  -0.42701
 Alpha  occ. eigenvalues --   -0.42655  -0.42555  -0.42009  -0.41964  -0.41704
 Alpha  occ. eigenvalues --   -0.41668  -0.41535  -0.41457  -0.41141  -0.40988
 Alpha  occ. eigenvalues --   -0.40870  -0.40823  -0.40721  -0.40697  -0.40570
 Alpha  occ. eigenvalues --   -0.40494  -0.40236  -0.40224  -0.39439  -0.39428
 Alpha  occ. eigenvalues --   -0.38468  -0.38351  -0.37750  -0.37651  -0.37319
 Alpha  occ. eigenvalues --   -0.37266  -0.37265  -0.37197  -0.36768  -0.36716
 Alpha  occ. eigenvalues --   -0.36216  -0.36194  -0.34286  -0.34253  -0.33859
 Alpha  occ. eigenvalues --   -0.33774  -0.33187  -0.33175  -0.31343  -0.31275
 Alpha  occ. eigenvalues --   -0.31036  -0.30972  -0.30030  -0.29954  -0.29449
 Alpha  occ. eigenvalues --   -0.29327  -0.29322  -0.29211  -0.24080  -0.24036
 Alpha  occ. eigenvalues --   -0.21127  -0.21116
 Alpha virt. eigenvalues --   -0.08791  -0.08774  -0.01749  -0.01684  -0.00058
 Alpha virt. eigenvalues --   -0.00029   0.02200   0.02208   0.03122   0.03225
 Alpha virt. eigenvalues --    0.04717   0.04732   0.05094   0.05169   0.06174

 Mulliken charges:
               1
     1  Mg   0.838741
     2  C   -0.002975
     3  C   -0.094136
     4  C   -0.045891
     5  C   -0.063940
     6  N   -0.256785
     7  C   -0.052487
     8  C   -0.013992
     9  C   -0.087022
    10  C    0.046342
    11  C    0.104812
    12  C    0.053475
    13  C   -0.071792
    14  H    0.036066
    15  N   -0.433159
    16  C    0.168432
    17  C   -0.177150
    18  C   -0.003990
    19  C    0.148735
    20  C    0.110179
    21  C    0.012289
    22  O   -0.249597
    23  C    0.062472
    24  N   -0.341145
    25  C    0.041268
    26  C   -0.028172
    27  C   -0.023979
    28  C    0.074827
    29  C    0.076166
    30  C    0.035137
    31  C   -0.004515
    32  N   -0.310461
    33  C    0.080398
    34  C   -0.169718
    35  C    0.008350
    36  C    0.082994
    37  C    0.127312
    38  C    0.046117
    39  O   -0.188471
    40  C   -0.005351
    41  C    0.212878
    42  O   -0.257122
    43  O   -0.304788
    44  C    0.157701
    45  H   -0.017604
    46  H   -0.016814
    47  H   -0.041476
    48  H    0.000925
    49  H   -0.004041
    50  H    0.025470
    51  H    0.016462
    52  H    0.016654
    53  H    0.011209
    54  H    0.044105
    55  H    0.017874
    56  H    0.017955
    57  H    0.005867
    58  H    0.026837
    59  H    0.039560
    60  H    0.037349
    61  H    0.035676
    62  H    0.031502
    63  H    0.016573
    64  H    0.009469
    65  H    0.023234
    66  H    0.012541
    67  H    0.004762
    68  H    0.006390
    69  H    0.004736
    70  H    0.008795
    71  H    0.018167
    72  H    0.028959
    73  H    0.047556
    74  H    0.009131
    75  H    0.046007
    76  H    0.035145
    77  H    0.042924
    78  H    0.046396
    79  H    0.053655
    80  Mg   0.837797
    81  C   -0.016814
    82  C   -0.087775
    83  C   -0.045522
    84  C   -0.064883
    85  N   -0.254569
    86  C   -0.049817
    87  C   -0.015099
    88  C   -0.090483
    89  C    0.045753
    90  C    0.114354
    91  C    0.062504
    92  C   -0.077912
    93  H    0.034913
    94  N   -0.423472
    95  C    0.162921
    96  C   -0.174629
    97  C   -0.007815
    98  C    0.152144
    99  C    0.099369
   100  C    0.015568
   101  O   -0.253215
   102  C    0.061199
   103  N   -0.350045
   104  C    0.037533
   105  C   -0.019848
   106  C   -0.034805
   107  C    0.088914
   108  C    0.073658
   109  C    0.034728
   110  C   -0.007669
   111  N   -0.324107
   112  C    0.078453
   113  C   -0.163139
   114  C    0.002261
   115  C    0.096185
   116  C    0.131494
   117  C    0.042394
   118  O   -0.187821
   119  C    0.000906
   120  C    0.211275
   121  O   -0.251039
   122  O   -0.305610
   123  C    0.152022
   124  H   -0.019618
   125  H   -0.015597
   126  H   -0.040464
   127  H   -0.000593
   128  H   -0.004301
   129  H    0.022510
   130  H    0.014424
   131  H    0.016359
   132  H    0.013901
   133  H    0.037669
   134  H    0.020844
   135  H    0.019602
   136  H    0.008795
   137  H    0.026143
   138  H    0.039791
   139  H    0.038256
   140  H    0.036374
   141  H    0.033904
   142  H    0.014384
   143  H    0.012430
   144  H    0.025112
   145  H    0.011655
   146  H    0.005684
   147  H    0.006246
   148  H    0.003655
   149  H    0.010920
   150  H    0.017925
   151  H    0.030116
   152  H    0.046009
   153  H    0.008494
   154  H    0.046986
   155  H    0.035094
   156  H    0.043950
   157  H    0.049516
   158  H    0.053565
 Sum of Mulliken charges =  -0.00000

 Dipole moment (field-independent basis, Debye):
    X=             -4.1851    Y=              2.1248    Z=              6.4811  Tot=              8.0021
 Quadrupole moment (field-independent basis, Debye-Ang):
   XX=           -516.7318   YY=           -524.1829   ZZ=           -474.7887
   XY=            -60.0600   XZ=             17.6784   YZ=            -23.2160

 Normal termination of Gaussian 16 at Sun Sep 12 21:18:14 2021.
