 Gaussian 16, Revision A.03,
 Gaussian 16:  ES64L-G16RevA.03 25-Dec-2016

 -----------------------------------
 #p cam-b3lyp/Def2SVP td=(nstates=5)
 -----------------------------------

 --------------------------------
 TDDFT excited states in gaussian
 --------------------------------
 Symbolic Z-matrix:
 Charge =  0 Multiplicity = 1

                         Standard orientation:
 ---------------------------------------------------------------------
 Center     Atomic      Atomic             Coordinates (Angstroms)
 Number     Number       Type             X           Y           Z
 ---------------------------------------------------------------------
      1         12           0        6.179095    0.963399    0.559808
      2          6           0        6.680724   -2.288752   -0.848772
      3          6           0        7.157842    2.252247   -2.444188
      4          6           0        6.181616    3.830965    1.913942
      5          6           0        6.346342   -0.533784    3.702439
      6          7           0        6.812627    0.001578   -1.330744
      7          6           0        6.904310   -1.253488   -1.759201
      8          6           0        7.186676   -1.365580   -3.287298
      9          6           0        7.864213    0.058250   -3.523198
     10          6           0        7.213830    0.827941   -2.387195
     11          6           0        9.375015    0.056311   -3.313492
     12          6           0        5.872843   -1.520662   -4.124867
     13          6           0        6.072483   -1.961083   -5.577977
     14          1           0        5.087210   -2.844031   -6.183772
     15          7           0        6.131434    2.763738   -0.252200
     16          6           0        6.556084    3.104092   -1.492812
     17          6           0        6.309216    4.556168   -1.624010
     18          6           0        5.882578    5.067376   -0.291816
     19          6           0        6.075878    3.897736    0.526691
     20          6           0        6.435036    5.298486   -2.918956
     21          6           0        5.390321    6.401716    0.172246
     22          8           0        5.295604    6.698087    1.412313
     23          6           0        5.102013    7.396654   -0.876571
     24          7           0        6.471828    1.605869    2.524286
     25          6           0        6.362134    2.898170    2.851254
     26          6           0        6.330656    3.084118    4.339331
     27          6           0        6.196878    1.621075    4.964920
     28          6           0        6.260583    0.797553    3.654949
     29          6           0        7.547677    3.791493    4.951288
     30          6           0        5.012617    1.375984    5.933360
     31          6           0        3.706036    1.450473    5.175471
     32          7           0        6.284377   -1.064992    1.325047
     33          6           0        6.368656   -1.455698    2.669264
     34          6           0        6.527771   -2.921486    2.683927
     35          6           0        6.541731   -3.282199    1.337994
     36          6           0        6.426670   -2.112948    0.533067
     37          6           0        6.695529   -3.729985    3.842643
     38          6           0        6.651842   -4.380938    0.392211
     39          8           0        6.676419   -5.608792    0.488458
     40          6           0        6.868720   -3.770166   -1.062350
     41          6           0        5.920462   -4.471907   -1.995985
     42          8           0        4.686608   -4.318633   -1.888860
     43          8           0        6.614161   -5.017722   -3.006634
     44          6           0        5.729578   -5.704598   -3.985342
     45          1           0        7.670792    2.768494   -3.258014
     46          1           0        6.075633    4.789810    2.425626
     47          1           0        6.320204   -1.078875    4.647768
     48          1           0        7.881293   -2.158856   -3.564145
     49          1           0        7.581730    0.489261   -4.483487
     50          1           0        9.720005   -0.895577   -2.909992
     51          1           0        9.571846    0.862990   -2.607079
     52          1           0        9.894008    0.329594   -4.232589
     53          1           0        5.432371   -0.537075   -4.287966
     54          1           0        5.180105   -2.204315   -3.632871
     55          1           0        7.080410   -2.342444   -5.743975
     56          1           0        6.008647   -1.078319   -6.214257
     57          1           0        6.923622    4.693372   -3.681626
     58          1           0        7.123375    6.125574   -2.746259
     59          1           0        5.476263    5.684401   -3.265590
     60          1           0        6.005769    7.578114   -1.458677
     61          1           0        4.676219    8.258740   -0.364364
     62          1           0        4.370484    6.978359   -1.568556
     63          1           0        5.471106    3.681430    4.640690
     64          1           0        7.076859    1.342279    5.545074
     65          1           0        7.293553    4.684836    5.522309
     66          1           0        8.241345    4.027115    4.144692
     67          1           0        8.166188    3.164269    5.592732
     68          1           0        4.983325    2.149594    6.699920
     69          1           0        5.061832    0.410920    6.437822
     70          1           0        3.500558    2.520013    5.149086
     71          1           0        2.922938    0.915639    5.713914
     72          1           0        3.824105    1.115824    4.144668
     73          1           0        6.059996   -4.603812    3.699491
     74          1           0        6.423914   -3.186565    4.747366
     75          1           0        7.763099   -3.942447    3.787788
     76          1           0        7.910564   -3.949986   -1.325691
     77          1           0        6.083149   -6.732113   -4.071564
     78          1           0        5.730387   -5.091882   -4.886998
     79          1           0        4.698046   -5.867598   -3.671158
     80         12           0       -6.992714    0.104656   -0.256959
     81          6           0       -4.345898   -2.248677    0.322038
     82          6           0       -4.581740    2.442804   -0.852694
     83          6           0       -9.281134    2.301274   -0.330568
     84          6           0       -9.108743   -2.061997    1.467495
     85          7           0       -4.783906   -0.009604   -0.238084
     86          6           0       -3.889789   -0.971355   -0.065047
     87          6           0       -2.430622   -0.560746   -0.399401
     88          6           0       -2.572698    1.024887   -0.188598
     89          6           0       -4.064719    1.177136   -0.477358
     90          6           0       -2.315586    1.467192    1.242353
     91          6           0       -2.034865   -0.910595   -1.876892
     92          6           0       -0.537479   -0.821904   -2.179758
     93          1           0        0.040454   -1.778729   -3.119422
     94          7           0       -6.987979    1.939277   -1.013733
     95          6           0       -5.916795    2.737143   -1.206730
     96          6           0       -6.444526    3.990420   -1.767925
     97          6           0       -7.931125    3.928991   -1.736783
     98          6           0       -8.128696    2.702649   -0.990366
     99          6           0       -5.561472    5.061809   -2.338691
    100          6           0       -8.998342    4.832054   -2.276901
    101          8           0      -10.225393    4.708224   -1.927818
    102          6           0       -8.551142    5.924129   -3.153753
    103          7           0       -8.863333    0.222641    0.642601
    104          6           0       -9.681530    1.262282    0.402572
    105          6           0      -11.070073    0.997664    0.933919
    106          6           0      -11.077691   -0.541383    1.368516
    107          6           0       -9.600827   -0.892131    1.083501
    108          6           0      -11.505730    1.862364    2.116660
    109          6           0      -12.183407   -1.441320    0.751917
    110          6           0      -11.951426   -1.599361   -0.733547
    111          7           0       -6.844465   -1.888153    0.564493
    112          6           0       -7.842062   -2.596517    1.269548
    113          6           0       -7.235178   -3.863108    1.727682
    114          6           0       -5.909537   -3.792907    1.273561
    115          6           0       -5.699123   -2.560064    0.598773
    116          6           0       -7.885310   -4.864614    2.502552
    117          6           0       -4.637419   -4.476741    1.220812
    118          8           0       -4.237156   -5.593259    1.547763
    119          6           0       -3.533671   -3.452253    0.712304
    120          6           0       -2.728298   -4.132006   -0.360923
    121          8           0       -3.256004   -4.450409   -1.441092
    122          8           0       -1.426325   -4.097721   -0.023180
    123          6           0       -0.585754   -4.750139   -1.062222
    124          1           0       -3.911891    3.302948   -0.834706
    125          1           0      -10.135511    2.976069   -0.421009
    126          1           0       -9.729759   -2.834191    1.926532
    127          1           0       -1.680967   -0.959589    0.273443
    128          1           0       -1.984915    1.574700   -0.919056
    129          1           0       -2.195227    0.625918    1.908619
    130          1           0       -3.177782    2.055563    1.527807
    131          1           0       -1.460544    2.148320    1.278506
    132          1           0       -2.408414   -0.122869   -2.543735
    133          1           0       -2.401953   -1.880759   -2.150120
    134          1           0        0.065633   -0.769257   -1.265191
    135          1           0       -0.341261    0.126804   -2.685190
    136          1           0       -4.509654    4.900474   -2.072171
    137          1           0       -5.828560    5.997715   -1.836080
    138          1           0       -5.694719    5.188291   -3.415223
    139          1           0       -7.843237    6.551303   -2.617102
    140          1           0       -9.464067    6.404917   -3.510533
    141          1           0       -8.008617    5.491902   -4.001972
    142          1           0      -11.814765    1.148561    0.162063
    143          1           0      -11.224880   -0.658013    2.452282
    144          1           0      -12.437954    2.426511    1.924910
    145          1           0      -10.696592    2.537208    2.362456
    146          1           0      -11.651089    1.325431    3.052490
    147          1           0      -13.162484   -0.969261    0.864644
    148          1           0      -12.245070   -2.423667    1.208178
    149          1           0      -12.403227   -0.694766   -1.151486
    150          1           0      -12.445079   -2.495029   -1.105197
    151          1           0      -10.881315   -1.572736   -0.969797
    152          1           0       -7.613440   -5.818277    2.069982
    153          1           0       -8.964123   -4.723630    2.509972
    154          1           0       -7.439570   -4.673130    3.482302
    155          1           0       -2.921007   -3.177457    1.571789
    156          1           0       -0.003591   -5.528740   -0.559657
    157          1           0       -0.020314   -3.931768   -1.546251
    158          1           0       -1.092364   -5.325900   -1.827919
 ---------------------------------------------------------------------

 SCF Done:  E(RCAM-B3LYP) =  -4069.81215420     A.U. after   19 cycles

 Excitation energies and oscillator strengths:

 Excited State   1:      Singlet-A      1.6634 eV  745.37 nm  f=0.0046  <S**2>=0.000
     309 -> 315       -0.11464
     310 -> 316        0.12631
     311 -> 313       -0.45931
     312 -> 314        0.51056
 This state for optimization and/or second-order correction.
 Total Energy, E(TD-HF/TD-DFT) =  -4069.75102549
 Copying the excited state density for this state as the 1-particle RhoCI density.

 Excited State   2:      Singlet-A      1.6900 eV  733.64 nm  f=0.7314  <S**2>=0.000
     309 -> 315        0.13240
     310 -> 316        0.11820
     311 -> 313        0.50921
     312 -> 314        0.45821

 Excited State   3:      Singlet-A      2.1844 eV  567.58 nm  f=0.1023  <S**2>=0.000
     310 -> 314        0.64006
     312 -> 316       -0.27066

 Excited State   4:      Singlet-A      2.1929 eV  565.40 nm  f=0.0995  <S**2>=0.000
     309 -> 313        0.63785
     311 -> 315       -0.27722

 Excited State   5:      Singlet-A      2.5625 eV  483.83 nm  f=0.0000  <S**2>=0.000
     312 -> 313        0.70677

 The electronic state is 1-A.
 Alpha  occ. eigenvalues --  -46.88049 -46.87483 -19.26526 -19.25776 -19.19299
 Alpha  occ. eigenvalues --  -19.19076 -19.18718 -19.18578 -19.18386 -19.17811
 Alpha  occ. eigenvalues --  -14.42691 -14.42311 -14.41690 -14.41186 -14.39655
 Alpha  occ. eigenvalues --  -14.39179 -14.38830 -14.38418 -10.39349 -10.38649
 Alpha  occ. eigenvalues --  -10.35710 -10.35259 -10.34607 -10.33977 -10.31898
 Alpha  occ. eigenvalues --  -10.31633 -10.31155 -10.31106 -10.30949 -10.30819
 Alpha  occ. eigenvalues --  -10.30803 -10.30748 -10.30446 -10.30221 -10.30172
 Alpha  occ. eigenvalues --  -10.30150 -10.29990 -10.29867 -10.29722 -10.29497
 Alpha  occ. eigenvalues --  -10.29277 -10.29227 -10.28977 -10.28754 -10.28610
 Alpha  occ. eigenvalues --  -10.28445 -10.28334 -10.28237 -10.28214 -10.28023
 Alpha  occ. eigenvalues --  -10.27961 -10.27911 -10.27828 -10.27824 -10.27727
 Alpha  occ. eigenvalues --  -10.27716 -10.27666 -10.27644 -10.27491 -10.27389
 Alpha  occ. eigenvalues --  -10.27387 -10.27345 -10.27297 -10.27278 -10.27241
 Alpha  occ. eigenvalues --  -10.26953 -10.26743 -10.26690 -10.26425 -10.26395
 Alpha  occ. eigenvalues --  -10.26376 -10.26315 -10.26250 -10.26022 -10.26004
 Alpha  occ. eigenvalues --  -10.25806 -10.25769 -10.25690 -10.25626 -10.25279
 Alpha  occ. eigenvalues --  -10.25062 -10.25027 -10.24936 -10.24686 -10.24619
 Alpha  occ. eigenvalues --  -10.24516  -3.16793  -3.16234  -1.91675  -1.91261
 Alpha  occ. eigenvalues --   -1.91116  -1.91103  -1.90704  -1.90541  -1.16880
 Alpha  occ. eigenvalues --   -1.16102  -1.08843  -1.08398  -1.07479  -1.06912
 Alpha  occ. eigenvalues --   -1.06832  -1.06490  -1.04821  -1.04302  -1.04000
 Alpha  occ. eigenvalues --   -1.03483  -1.03476  -1.02867  -1.02651  -1.01934
 Alpha  occ. eigenvalues --   -0.92208  -0.91765  -0.89749  -0.89412  -0.89329
 Alpha  occ. eigenvalues --   -0.88909  -0.88512  -0.88081  -0.88066  -0.87906
 Alpha  occ. eigenvalues --   -0.87615  -0.87523  -0.87486  -0.86972  -0.85212
 Alpha  occ. eigenvalues --   -0.84761  -0.84161  -0.83709  -0.83220  -0.82883
 Alpha  occ. eigenvalues --   -0.82794  -0.82416  -0.81814  -0.81235  -0.80832
 Alpha  occ. eigenvalues --   -0.80142  -0.79034  -0.78472  -0.77444  -0.77157
 Alpha  occ. eigenvalues --   -0.76941  -0.76609  -0.76145  -0.75540  -0.75117
 Alpha  occ. eigenvalues --   -0.74597  -0.73000  -0.72519  -0.71897  -0.71370
 Alpha  occ. eigenvalues --   -0.70133  -0.69613  -0.69103  -0.68594  -0.67877
 Alpha  occ. eigenvalues --   -0.67459  -0.67395  -0.66952  -0.65517  -0.65087
 Alpha  occ. eigenvalues --   -0.65014  -0.64852  -0.64564  -0.64499  -0.64362
 Alpha  occ. eigenvalues --   -0.64018  -0.62532  -0.61884  -0.60685  -0.60184
 Alpha  occ. eigenvalues --   -0.60032  -0.59574  -0.59219  -0.58789  -0.58737
 Alpha  occ. eigenvalues --   -0.58205  -0.57820  -0.57543  -0.57257  -0.57027
 Alpha  occ. eigenvalues --   -0.56538  -0.56212  -0.56016  -0.55756  -0.55566
 Alpha  occ. eigenvalues --   -0.55515  -0.55194  -0.54994  -0.54757  -0.54180
 Alpha  occ. eigenvalues --   -0.54123  -0.53664  -0.53536  -0.53457  -0.53158
 Alpha  occ. eigenvalues --   -0.53026  -0.53002  -0.52901  -0.52666  -0.52612
 Alpha  occ. eigenvalues --   -0.52487  -0.52244  -0.52111  -0.51850  -0.51700
 Alpha  occ. eigenvalues --   -0.51420  -0.51403  -0.50952  -0.50829  -0.50343
 Alpha  occ. eigenvalues --   -0.50256  -0.50160  -0.49802  -0.49751  -0.49711
 Alpha  occ. eigenvalues --   -0.49447  -0.49311  -0.49290  -0.48976  -0.48859
 Alpha  occ. eigenvalues --   -0.48817  -0.48700  -0.48673  -0.48285  -0.48215
 Alpha  occ. eigenvalues --   -0.48123  -0.47928  -0.47528  -0.47367  -0.47024
 Alpha  occ. eigenvalues --   -0.46913  -0.46785  -0.46592  -0.46510  -0.46386
 Alpha  occ. eigenvalues --   -0.46305  -0.46082  -0.46032  -0.45844  -0.45516
 Alpha  occ. eigenvalues --   -0.45423  -0.45035  -0.44801  -0.44743  -0.44379
 Alpha  occ. eigenvalues --   -0.44311  -0.44263  -0.44256  -0.44249  -0.43919
 Alpha  occ. eigenvalues --   -0.43880  -0.43720  -0.43702  -0.43614  -0.43253
 Alpha  occ. eigenvalues --   -0.43231  -0.43103  -0.42937  -0.42887  -0.42701
 Alpha  occ. eigenvalues --   -0.42440  -0.42385  -0.42238  -0.41932  -0.41764
 Alpha  occ. eigenvalues --   -0.41761  -0.41445  -0.41366  -0.41220  -0.41102
 Alpha  occ. eigenvalues --   -0.41074  -0.40794  -0.40786  -0.40546  -0.40484
 Alpha  occ. eigenvalues --   -0.40471  -0.40302  -0.39940  -0.39671  -0.39285
 Alpha  occ. eigenvalues --   -0.38693  -0.38180  -0.37981  -0.37549  -0.37500
 Alpha  occ. eigenvalues --   -0.37375  -0.37088  -0.36959  -0.36947  -0.36431
 Alpha  occ. eigenvalues --   -0.36390  -0.35919  -0.34524  -0.34064  -0.34045
 Alpha  occ. eigenvalues --   -0.33477  -0.33428  -0.32976  -0.31605  -0.31275
 Alpha  occ. eigenvalues --   -0.31135  -0.30780  -0.30244  -0.29704  -0.29696
 Alpha  occ. eigenvalues --   -0.29554  -0.29161  -0.29028  -0.24322  -0.23849
 Alpha  occ. eigenvalues --   -0.21364  -0.20940
 Alpha virt. eigenvalues --   -0.09014  -0.08614  -0.01993  -0.01511  -0.00306
 Alpha virt. eigenvalues --    0.00142   0.01972   0.02408   0.02715   0.03389
 Alpha virt. eigenvalues --    0.04486   0.04835   0.04959   0.05579   0.05947

 Mulliken charges:
               1
     1  Mg   0.836573
     2  C   -0.003571
     3  C   -0.094200
     4  C   -0.046189
     5  C   -0.063649
     6  N   -0.256873
     7  C   -0.052426
     8  C   -0.013906
     9  C   -0.086920
    10  C    0.045952
    11  C    0.104686
    12  C    0.053556
    13  C   -0.072111
    14  H    0.036397
    15  N   -0.433187
    16  C    0.167776
    17  C   -0.177445
    18  C   -0.004462
    19  C    0.148092
    20  C    0.110119
    21  C    0.011389
    22  O   -0.249587
    23  C    0.062872
    24  N   -0.341042
    25  C    0.041101
    26  C   -0.028184
    27  C   -0.024142
    28  C    0.074591
    29  C    0.076014
    30  C    0.035091
    31  C   -0.004577
    32  N   -0.310634
    33  C    0.080298
    34  C   -0.168998
    35  C    0.008734
    36  C    0.082662
    37  C    0.127186
    38  C    0.046018
    39  O   -0.187402
    40  C   -0.005310
    41  C    0.213624
    42  O   -0.259423
    43  O   -0.304224
    44  C    0.157818
    45  H   -0.017211
    46  H   -0.016728
    47  H   -0.040689
    48  H    0.001455
    49  H   -0.003927
    50  H    0.025775
    51  H    0.016605
    52  H    0.017137
    53  H    0.010645
    54  H    0.043030
    55  H    0.018552
    56  H    0.018198
    57  H    0.006204
    58  H    0.027304
    59  H    0.038662
    60  H    0.038050
    61  H    0.035621
    62  H    0.030133
    63  H    0.016228
    64  H    0.010127
    65  H    0.023461
    66  H    0.012746
    67  H    0.005274
    68  H    0.006915
    69  H    0.005637
    70  H    0.008231
    71  H    0.018772
    72  H    0.027725
    73  H    0.048562
    74  H    0.009673
    75  H    0.046524
    76  H    0.035873
    77  H    0.044143
    78  H    0.046826
    79  H    0.052345
    80  Mg   0.837298
    81  C   -0.016611
    82  C   -0.087964
    83  C   -0.045860
    84  C   -0.065418
    85  N   -0.254497
    86  C   -0.049874
    87  C   -0.014864
    88  C   -0.090398
    89  C    0.045736
    90  C    0.114393
    91  C    0.063032
    92  C   -0.078524
    93  H    0.038560
    94  N   -0.423404
    95  C    0.162666
    96  C   -0.174928
    97  C   -0.008223
    98  C    0.152009
    99  C    0.099546
   100  C    0.015280
   101  O   -0.253641
   102  C    0.061334
   103  N   -0.350147
   104  C    0.037364
   105  C   -0.019683
   106  C   -0.034799
   107  C    0.089103
   108  C    0.073808
   109  C    0.034830
   110  C   -0.007607
   111  N   -0.324169
   112  C    0.078673
   113  C   -0.163451
   114  C    0.002559
   115  C    0.096033
   116  C    0.131530
   117  C    0.042044
   118  O   -0.186777
   119  C    0.001499
   120  C    0.211251
   121  O   -0.252571
   122  O   -0.305318
   123  C    0.151394
   124  H   -0.019990
   125  H   -0.016079
   126  H   -0.040817
   127  H    0.001041
   128  H   -0.004931
   129  H    0.022614
   130  H    0.013882
   131  H    0.016364
   132  H    0.012164
   133  H    0.037898
   134  H    0.023085
   135  H    0.016449
   136  H    0.008352
   137  H    0.025745
   138  H    0.038925
   139  H    0.038034
   140  H    0.035898
   141  H    0.033530
   142  H    0.014066
   143  H    0.012167
   144  H    0.024741
   145  H    0.011593
   146  H    0.005373
   147  H    0.005912
   148  H    0.003524
   149  H    0.010730
   150  H    0.017669
   151  H    0.030346
   152  H    0.046136
   153  H    0.008126
   154  H    0.046825
   155  H    0.035433
   156  H    0.048496
   157  H    0.055206
   158  H    0.050322
 Sum of Mulliken charges =  -0.00000

 Dipole moment (field-independent basis, Debye):
    X=              4.3931    Y=              6.6745    Z=             -2.6485  Tot=              8.4180
 Quadrupole moment (field-independent basis, Debye-Ang):
   XX=           -490.8650   YY=           -557.7382   ZZ=           -469.0641
   XY=             19.1165   XZ=            -36.3936   YZ=            -10.6738

 Normal termination of Gaussian 16 at Sat Sep 11 11:57:15 2021.
