 Gaussian 16, Revision A.03,
 Gaussian 16:  ES64L-G16RevA.03 25-Dec-2016

 -----------------------------------
 #p cam-b3lyp/Def2SVP td=(nstates=5)
 -----------------------------------

 --------------------------------
 TDDFT excited states in gaussian
 --------------------------------
 Symbolic Z-matrix:
 Charge =  0 Multiplicity = 1

                         Standard orientation:
 ---------------------------------------------------------------------
 Center     Atomic      Atomic             Coordinates (Angstroms)
 Number     Number       Type             X           Y           Z
 ---------------------------------------------------------------------
      1         12           0        4.960656   -1.061963    0.162608
      2          6           0        5.454238    1.961657   -1.688422
      3          6           0        5.899540    0.667025    2.950468
      4          6           0        4.971590   -3.816167    1.734506
      5          6           0        5.169926   -2.775465   -2.864895
      6          7           0        5.573994    1.043488    0.465163
      7          6           0        5.663969    2.115213   -0.316169
      8          6           0        5.928193    3.433392    0.471208
      9          6           0        6.598902    2.815340    1.778939
     10          6           0        5.960143    1.437962    1.751712
     11          6           0        8.112122    2.657232    1.670922
     12          6           0        4.604787    4.197447    0.812599
     13          6           0        4.788102    5.641893    1.287284
     14          1           0        3.798036    6.636437    0.902576
     15          7           0        4.898234   -1.430201    2.102545
     16          6           0        5.306949   -0.605872    3.096888
     17          6           0        5.054509   -1.333549    4.359204
     18          6           0        4.642558   -2.721458    4.009777
     19          6           0        4.848945   -2.719177    2.584022
     20          6           0        5.162651   -0.697811    5.711200
     21          6           0        4.152252   -3.871147    4.831936
     22          8           0        4.071680   -5.057595    4.362443
     23          6           0        3.848569   -3.585360    6.245847
     24          7           0        5.275285   -3.037061   -0.435415
     25          6           0        5.165975   -4.047178    0.434469
     26          6           0        5.151932   -5.372871   -0.267156
     27          6           0        5.029749   -5.046971   -1.825557
     28          6           0        5.079925   -3.501093   -1.748010
     29          6           0        6.374287   -6.269811   -0.027658
     30          6           0        3.857936   -5.709344   -2.592717
     31          6           0        2.542108   -5.142197   -2.108939
     32          7           0        5.080759   -0.524105   -1.936756
     33          6           0        5.182323   -1.400180   -3.027101
     34          6           0        5.345650   -0.569920   -4.234603
     35          6           0        5.344373    0.739477   -3.757819
     36          6           0        5.216384    0.726946   -2.339456
     37          6           0        5.529602   -1.053680   -5.559960
     38          6           0        5.446102    2.145363   -4.114180
     39          8           0        5.475229    2.771181   -5.174838
     40          6           0        5.643735    2.988052   -2.777527
     41          6           0        4.686227    4.147446   -2.825411
     42          8           0        3.453336    3.961539   -2.772653
     43          8           0        5.369191    5.294076   -2.686332
     44          6           0        4.474769    6.482385   -2.695601
     45          1           0        6.401209    1.041632    3.844861
     46          1           0        4.869138   -4.786227    2.225346
     47          1           0        5.156696   -3.237188   -3.853880
     48          1           0        6.621608    4.121012   -0.013332
     49          1           0        6.303669    3.352206    2.680235
     50          1           0        8.464581    2.875738    0.662979
     51          1           0        8.315231    1.617498    1.928204
     52          1           0        8.619236    3.257500    2.426760
     53          1           0        4.159665    3.763073    1.707722
     54          1           0        3.919923    4.180975   -0.035939
     55          1           0        5.795003    6.005001    1.079409
     56          1           0        4.714161    5.656027    2.374727
     57          1           0        5.643672    0.278041    5.657574
     58          1           0        5.850737   -1.308057    6.295877
     59          1           0        4.198705   -0.643272    6.217328
     60          1           0        4.744734   -3.205219    6.736695
     61          1           0        3.426604   -4.502989    6.654200
     62          1           0        3.109906   -2.784700    6.293485
     63          1           0        4.294433   -5.969506    0.041305
     64          1           0        5.917430   -5.354875   -2.378632
     65          1           0        6.124603   -7.252118    0.374133
     66          1           0        7.057524   -5.738627    0.634401
     67          1           0        7.002219   -6.430181   -0.903672
     68          1           0        3.835755   -6.781242   -2.399100
     69          1           0        3.915895   -5.568421   -3.672084
     70          1           0        2.333375   -5.735906   -1.219685
     71          1           0        1.767041   -5.282839   -2.863062
     72          1           0        2.648660   -4.104984   -1.790628
     73          1           0        4.894804   -0.440378   -6.199383
     74          1           0        5.267419   -2.108680   -5.636362
     75          1           0        6.597016   -0.878005   -5.692709
     76          1           0        6.682819    3.315538   -2.764177
     77          1           0        4.830110    7.145438   -3.484478
     78          1           0        4.463011    6.869331   -1.676514
     79          1           0        3.447555    6.310025   -3.018809
     80         12           0       -5.588075   -0.217642   -0.132416
     81          6           0       -2.978056    2.026212    0.883446
     82          6           0       -7.818395    2.110112    0.981962
     83          6           0       -7.892915   -2.347904   -0.598379
     84          6           0       -3.216198   -2.770824   -0.098062
     85          7           0       -5.311801    1.772365    0.792675
     86          6           0       -4.274925    2.547383    1.072997
     87          6           0       -4.649075    3.989278    1.509481
     88          6           0       -6.135849    3.700723    2.043447
     89          6           0       -6.464683    2.471542    1.198664
     90          6           0       -6.181870    3.299629    3.508490
     91          6           0       -4.656354    4.995358    0.305420
     92          6           0       -4.709182    6.472439    0.701898
     93          1           0       -3.981572    7.439064   -0.115840
     94          7           0       -7.549039    0.030172   -0.310613
     95          6           0       -8.289369    1.044283    0.184143
     96          6           0       -9.678912    0.753434   -0.201527
     97          6           0       -9.720310   -0.598600   -0.822014
     98          6           0       -8.362864   -1.042826   -0.576852
     99          6           0      -10.792390    1.747695   -0.043341
    100          6           0      -10.806039   -1.369832   -1.509469
    101          8           0      -10.687880   -2.621242   -1.760142
    102          6           0      -12.048712   -0.638504   -1.796542
    103          7           0       -5.610962   -2.296484   -0.116317
    104          6           0       -6.734388   -2.977714   -0.402280
    105          6           0       -6.446082   -4.446787   -0.600025
    106          6           0       -4.851965   -4.572104   -0.625758
    107          6           0       -4.477844   -3.101808   -0.336550
    108          6           0       -7.012966   -5.385202    0.465070
    109          6           0       -4.220444   -5.265713   -1.863806
    110          6           0       -4.426735   -4.412462   -3.094576
    111          7           0       -3.446969   -0.348178    0.125826
    112          6           0       -2.658106   -1.519398    0.129660
    113          6           0       -1.276017   -1.112357    0.456104
    114          6           0       -1.361800    0.275437    0.643653
    115          6           0       -2.706459    0.700244    0.467756
    116          6           0       -0.161313   -1.987052    0.592029
    117          6           0       -0.622548    1.476094    0.960870
    118          8           0        0.566507    1.746324    1.124713
    119          6           0       -1.658925    2.644862    1.254625
    120          6           0       -1.215787    3.861764    0.489572
    121          8           0       -1.220327    3.862814   -0.754042
    122          8           0       -1.068376    4.890228    1.344507
    123          6           0       -0.640382    6.123013    0.631164
    124          1           0       -8.594737    2.668876    1.505360
    125          1           0       -8.629156   -3.109823   -0.864655
    126          1           0       -2.400477   -3.493945   -0.164178
    127          1           0       -4.039391    4.394797    2.307987
    128          1           0       -6.808095    4.520056    1.802330
    129          1           0       -5.192972    3.159658    3.919142
    130          1           0       -6.740246    2.373279    3.542466
    131          1           0       -6.767395    4.025594    4.079857
    132          1           0       -5.612234    4.909471   -0.227179
    133          1           0       -3.816313    4.824087   -0.339276
    134          1           0       -4.484637    6.622157    1.764965
    135          1           0       -5.737944    6.824355    0.593121
    136          1           0      -10.492546    2.589622    0.592776
    137          1           0      -11.587674    1.249888    0.521972
    138          1           0      -11.196414    2.083504   -1.000773
    139          1           0      -12.466359   -0.257533   -0.867614
    140          1           0      -12.669441   -1.330493   -2.369029
    141          1           0      -11.806646    0.233807   -2.413873
    142          1           0       -6.841247   -4.794443   -1.546639
    143          1           0       -4.476093   -5.164481    0.221377
    144          1           0       -7.673781   -6.169039    0.049137
    145          1           0       -7.542768   -4.790263    1.197119
    146          1           0       -6.268892   -5.893953    1.075597
    147          1           0       -4.718834   -6.218333   -2.059475
    148          1           0       -3.161850   -5.473650   -1.749241
    149          1           0       -5.438119   -4.680840   -3.414236
    150          1           0       -3.692703   -4.659014   -3.859067
    151          1           0       -4.434048   -3.346756   -2.837949
    152          1           0        0.669153   -1.514174    0.084883
    153          1           0       -0.374222   -2.969891    0.176736
    154          1           0       -0.065714   -2.013408    1.680804
    155          1           0       -1.661922    2.817030    2.331625
    156          1           0        0.280361    6.467178    1.112271
    157          1           0       -1.511030    6.804668    0.663968
    158          1           0       -0.315577    6.019628   -0.397564
 ---------------------------------------------------------------------

 SCF Done:  E(RCAM-B3LYP) =  -4069.81142108     A.U. after   19 cycles

 Excitation energies and oscillator strengths:

 Excited State   1:      Singlet-A      1.6706 eV  742.13 nm  f=0.4013  <S**2>=0.000
     309 -> 315        0.15863
     311 -> 313        0.63182
     312 -> 314        0.26802
 This state for optimization and/or second-order correction.
 Total Energy, E(TD-HF/TD-DFT) =  -4069.75002605
 Copying the excited state density for this state as the 1-particle RhoCI density.

 Excited State   2:      Singlet-A      1.6802 eV  737.92 nm  f=0.3960  <S**2>=0.000
     310 -> 316        0.16001
     311 -> 313       -0.26770
     312 -> 314        0.63119

 Excited State   3:      Singlet-A      2.1776 eV  569.36 nm  f=0.0017  <S**2>=0.000
     309 -> 313        0.47912
     310 -> 314       -0.43255
     311 -> 315       -0.19902
     312 -> 316        0.17785

 Excited State   4:      Singlet-A      2.1913 eV  565.80 nm  f=0.1744  <S**2>=0.000
     309 -> 313        0.42887
     310 -> 314        0.47491
     311 -> 315       -0.18522
     312 -> 316       -0.20656

 Excited State   5:      Singlet-A      2.3528 eV  526.96 nm  f=0.0000  <S**2>=0.000
     312 -> 313        0.70534

 The electronic state is 1-A.
 Alpha  occ. eigenvalues --  -46.87567 -46.87186 -19.26161 -19.25691 -19.18872
 Alpha  occ. eigenvalues --  -19.18636 -19.18397 -19.18299 -19.18067 -19.17618
 Alpha  occ. eigenvalues --  -14.42412 -14.41815 -14.41267 -14.40905 -14.39263
 Alpha  occ. eigenvalues --  -14.38796 -14.38506 -14.37984 -10.38836 -10.38380
 Alpha  occ. eigenvalues --  -10.35314 -10.35037 -10.34177 -10.33829 -10.31619
 Alpha  occ. eigenvalues --  -10.31226 -10.31224 -10.30936 -10.30784 -10.30309
 Alpha  occ. eigenvalues --  -10.30285 -10.30273 -10.30050 -10.29973 -10.29959
 Alpha  occ. eigenvalues --  -10.29805 -10.29722 -10.29418 -10.29355 -10.29316
 Alpha  occ. eigenvalues --  -10.29098 -10.28711 -10.28644 -10.28577 -10.28315
 Alpha  occ. eigenvalues --  -10.28099 -10.28077 -10.28059 -10.27931 -10.27767
 Alpha  occ. eigenvalues --  -10.27589 -10.27515 -10.27424 -10.27395 -10.27391
 Alpha  occ. eigenvalues --  -10.27381 -10.27289 -10.27242 -10.27167 -10.27142
 Alpha  occ. eigenvalues --  -10.27107 -10.27050 -10.27005 -10.26956 -10.26812
 Alpha  occ. eigenvalues --  -10.26587 -10.26567 -10.26344 -10.26065 -10.26043
 Alpha  occ. eigenvalues --  -10.25996 -10.25986 -10.25865 -10.25859 -10.25836
 Alpha  occ. eigenvalues --  -10.25730 -10.25504 -10.25386 -10.25319 -10.25127
 Alpha  occ. eigenvalues --  -10.24797 -10.24629 -10.24602 -10.24601 -10.24274
 Alpha  occ. eigenvalues --  -10.24260  -3.16317  -3.15903  -1.91199  -1.90788
 Alpha  occ. eigenvalues --   -1.90783  -1.90625  -1.90372  -1.90215  -1.16436
 Alpha  occ. eigenvalues --   -1.16019  -1.08612  -1.08069  -1.06889  -1.06809
 Alpha  occ. eigenvalues --   -1.06680  -1.05943  -1.04409  -1.03959  -1.03575
 Alpha  occ. eigenvalues --   -1.03202  -1.02949  -1.02663  -1.02022  -1.01843
 Alpha  occ. eigenvalues --   -0.91893  -0.91389  -0.89401  -0.89108  -0.89078
 Alpha  occ. eigenvalues --   -0.88564  -0.88130  -0.87870  -0.87737  -0.87599
 Alpha  occ. eigenvalues --   -0.87340  -0.87090  -0.87041  -0.86777  -0.84919
 Alpha  occ. eigenvalues --   -0.84406  -0.83781  -0.83580  -0.82850  -0.82568
 Alpha  occ. eigenvalues --   -0.82557  -0.82121  -0.81487  -0.81054  -0.80346
 Alpha  occ. eigenvalues --   -0.80060  -0.78561  -0.78280  -0.77071  -0.76807
 Alpha  occ. eigenvalues --   -0.76760  -0.76413  -0.75755  -0.75391  -0.74714
 Alpha  occ. eigenvalues --   -0.74477  -0.72624  -0.72251  -0.71498  -0.71154
 Alpha  occ. eigenvalues --   -0.69665  -0.69595  -0.68747  -0.68331  -0.67515
 Alpha  occ. eigenvalues --   -0.67118  -0.67116  -0.66626  -0.65186  -0.64691
 Alpha  occ. eigenvalues --   -0.64676  -0.64551  -0.64323  -0.64111  -0.64110
 Alpha  occ. eigenvalues --   -0.63806  -0.62146  -0.61761  -0.60257  -0.59959
 Alpha  occ. eigenvalues --   -0.59722  -0.59199  -0.58902  -0.58456  -0.58329
 Alpha  occ. eigenvalues --   -0.57974  -0.57434  -0.57141  -0.57015  -0.56813
 Alpha  occ. eigenvalues --   -0.56121  -0.55793  -0.55761  -0.55428  -0.55361
 Alpha  occ. eigenvalues --   -0.55142  -0.55040  -0.54910  -0.54363  -0.54042
 Alpha  occ. eigenvalues --   -0.53832  -0.53278  -0.53146  -0.53049  -0.52824
 Alpha  occ. eigenvalues --   -0.52771  -0.52693  -0.52591  -0.52403  -0.52308
 Alpha  occ. eigenvalues --   -0.52283  -0.52081  -0.51836  -0.51578  -0.51411
 Alpha  occ. eigenvalues --   -0.51126  -0.51039  -0.50685  -0.50399  -0.50139
 Alpha  occ. eigenvalues --   -0.49903  -0.49792  -0.49672  -0.49422  -0.49403
 Alpha  occ. eigenvalues --   -0.49104  -0.49046  -0.48983  -0.48683  -0.48560
 Alpha  occ. eigenvalues --   -0.48461  -0.48292  -0.48262  -0.48104  -0.48001
 Alpha  occ. eigenvalues --   -0.47959  -0.47507  -0.47208  -0.47027  -0.46810
 Alpha  occ. eigenvalues --   -0.46621  -0.46472  -0.46316  -0.46179  -0.45980
 Alpha  occ. eigenvalues --   -0.45965  -0.45856  -0.45735  -0.45656  -0.45309
 Alpha  occ. eigenvalues --   -0.45120  -0.44795  -0.44438  -0.44411  -0.44089
 Alpha  occ. eigenvalues --   -0.44057  -0.44051  -0.43989  -0.43864  -0.43721
 Alpha  occ. eigenvalues --   -0.43557  -0.43496  -0.43444  -0.43297  -0.42981
 Alpha  occ. eigenvalues --   -0.42858  -0.42827  -0.42759  -0.42528  -0.42465
 Alpha  occ. eigenvalues --   -0.42318  -0.42116  -0.41874  -0.41588  -0.41565
 Alpha  occ. eigenvalues --   -0.41375  -0.41171  -0.40991  -0.40912  -0.40643
 Alpha  occ. eigenvalues --   -0.40631  -0.40619  -0.40408  -0.40406  -0.40372
 Alpha  occ. eigenvalues --   -0.40144  -0.40111  -0.39542  -0.39331  -0.39151
 Alpha  occ. eigenvalues --   -0.38263  -0.38045  -0.37566  -0.37177  -0.37171
 Alpha  occ. eigenvalues --   -0.37112  -0.36848  -0.36661  -0.36576  -0.36149
 Alpha  occ. eigenvalues --   -0.36078  -0.35628  -0.34163  -0.33709  -0.33604
 Alpha  occ. eigenvalues --   -0.33068  -0.33068  -0.32608  -0.31193  -0.30927
 Alpha  occ. eigenvalues --   -0.30879  -0.30468  -0.29924  -0.29471  -0.29245
 Alpha  occ. eigenvalues --   -0.29130  -0.28903  -0.28755  -0.23943  -0.23487
 Alpha  occ. eigenvalues --   -0.21031  -0.20568
 Alpha virt. eigenvalues --   -0.08707  -0.08217  -0.01595  -0.01200   0.00050
 Alpha virt. eigenvalues --    0.00474   0.02274   0.02735   0.03366   0.03771
 Alpha virt. eigenvalues --    0.04801   0.05099   0.05414   0.05758   0.06111

 Mulliken charges:
               1
     1  Mg   0.836590
     2  C    0.002727
     3  C   -0.091802
     4  C   -0.047369
     5  C   -0.065255
     6  N   -0.255861
     7  C   -0.046865
     8  C   -0.017275
     9  C   -0.088715
    10  C    0.051823
    11  C    0.105265
    12  C    0.055367
    13  C   -0.069487
    14  H    0.026919
    15  N   -0.431579
    16  C    0.172684
    17  C   -0.177130
    18  C   -0.005073
    19  C    0.148307
    20  C    0.110921
    21  C    0.010791
    22  O   -0.251942
    23  C    0.062802
    24  N   -0.339688
    25  C    0.040268
    26  C   -0.027698
    27  C   -0.023768
    28  C    0.073738
    29  C    0.076682
    30  C    0.036056
    31  C   -0.005815
    32  N   -0.310063
    33  C    0.080369
    34  C   -0.170334
    35  C    0.007643
    36  C    0.085356
    37  C    0.127338
    38  C    0.047670
    39  O   -0.189614
    40  C   -0.007039
    41  C    0.210780
    42  O   -0.249375
    43  O   -0.306015
    44  C    0.158415
    45  H   -0.019337
    46  H   -0.019354
    47  H   -0.043757
    48  H   -0.001271
    49  H   -0.004571
    50  H    0.024631
    51  H    0.015641
    52  H    0.014947
    53  H    0.020529
    54  H    0.050155
    55  H    0.015946
    56  H    0.017397
    57  H    0.005731
    58  H    0.024991
    59  H    0.039203
    60  H    0.037012
    61  H    0.033676
    62  H    0.031440
    63  H    0.014216
    64  H    0.008820
    65  H    0.021730
    66  H    0.012814
    67  H    0.003918
    68  H    0.005042
    69  H    0.004745
    70  H    0.006660
    71  H    0.015706
    72  H    0.030271
    73  H    0.047422
    74  H    0.007762
    75  H    0.044862
    76  H    0.033482
    77  H    0.041092
    78  H    0.044102
    79  H    0.054062
    80  Mg   0.838740
    81  C   -0.016154
    82  C   -0.087891
    83  C   -0.045563
    84  C   -0.065186
    85  N   -0.254488
    86  C   -0.049975
    87  C   -0.015037
    88  C   -0.090481
    89  C    0.045824
    90  C    0.114561
    91  C    0.062535
    92  C   -0.077647
    93  H    0.035116
    94  N   -0.423426
    95  C    0.163044
    96  C   -0.174751
    97  C   -0.007846
    98  C    0.152171
    99  C    0.099458
   100  C    0.015593
   101  O   -0.253283
   102  C    0.061164
   103  N   -0.350153
   104  C    0.037554
   105  C   -0.019831
   106  C   -0.034852
   107  C    0.088796
   108  C    0.073671
   109  C    0.034599
   110  C   -0.007563
   111  N   -0.324331
   112  C    0.079151
   113  C   -0.163738
   114  C    0.001751
   115  C    0.097534
   116  C    0.126559
   117  C    0.047180
   118  O   -0.187143
   119  C   -0.000514
   120  C    0.212436
   121  O   -0.244930
   122  O   -0.307866
   123  C    0.151340
   124  H   -0.020037
   125  H   -0.015701
   126  H   -0.039825
   127  H   -0.001447
   128  H   -0.004423
   129  H    0.021697
   130  H    0.014352
   131  H    0.015835
   132  H    0.014052
   133  H    0.039203
   134  H    0.019845
   135  H    0.019320
   136  H    0.008569
   137  H    0.025860
   138  H    0.039814
   139  H    0.038064
   140  H    0.036275
   141  H    0.034024
   142  H    0.014352
   143  H    0.012794
   144  H    0.024955
   145  H    0.011418
   146  H    0.005814
   147  H    0.005931
   148  H    0.003855
   149  H    0.010770
   150  H    0.017648
   151  H    0.030753
   152  H    0.048610
   153  H    0.011908
   154  H    0.049824
   155  H    0.032927
   156  H    0.039789
   157  H    0.048166
   158  H    0.058414
 Sum of Mulliken charges =  -0.00000

 Dipole moment (field-independent basis, Debye):
    X=             -2.0300    Y=              2.5101    Z=              5.8670  Tot=              6.6965
 Quadrupole moment (field-independent basis, Debye-Ang):
   XX=           -477.2549   YY=           -475.2087   ZZ=           -515.3805
   XY=            -28.7428   XZ=              7.2618   YZ=             39.8560

 Normal termination of Gaussian 16 at Fri Sep 10 18:12:52 2021.
