 Gaussian 16, Revision A.03,
 Gaussian 16:  ES64L-G16RevA.03 25-Dec-2016

 -----------------------------------
 #p cam-b3lyp/Def2SVP td=(nstates=5)
 -----------------------------------

 --------------------------------
 TDDFT excited states in gaussian
 --------------------------------
 Symbolic Z-matrix:
 Charge =  0 Multiplicity = 1

                         Standard orientation:
 ---------------------------------------------------------------------
 Center     Atomic      Atomic             Coordinates (Angstroms)
 Number     Number       Type             X           Y           Z
 ---------------------------------------------------------------------
      1         12           0       15.778878   -0.726420    0.355250
      2          6           0       16.093714    2.121328   -1.790308
      3          6           0       16.755345    1.290666    2.928369
      4          6           0       15.947840   -3.316182    2.177668
      5          6           0       15.939701   -2.713224   -2.503492
      6          7           0       16.325595    1.417316    0.433631
      7          6           0       16.347746    2.411958   -0.448054
      8          6           0       16.592289    3.807235    0.200617
      9          6           0       17.332494    3.339194    1.532921
     10          6           0       16.743879    1.945253    1.660924
     11          6           0       18.845514    3.221334    1.380016
     12          6           0       15.255242    4.556461    0.521082
     13          6           0       15.402938    6.044858    0.850042
     14          1           0       14.363816    6.965058    0.413231
     15          7           0       15.800934   -0.909690    2.322171
     16          6           0       16.215374    0.018762    3.217437
     17          6           0       16.036004   -0.593026    4.551687
     18          6           0       15.662495   -2.020738    4.351125
     19          6           0       15.816379   -2.147753    2.924393
     20          6           0       16.170239    0.172049    5.832464
     21          6           0       15.244886   -3.102211    5.296721
     22          8           0       15.190567   -4.330055    4.944551
     23          6           0       14.982887   -2.692929    6.688441
     24          7           0       16.143324   -2.738160   -0.066317
     25          6           0       16.102852   -3.663693    0.898429
     26          6           0       16.111567   -5.050038    0.325794
     27          6           0       15.920653   -4.878547   -1.250244
     28          6           0       15.917160   -3.331514   -1.320581
     29          6           0       17.373794   -5.879353    0.599709
     30          6           0       14.746531   -5.649275   -1.904333
     31          6           0       13.429449   -5.082115   -1.423997
     32          7           0       15.802404   -0.387716   -1.788525
     33          6           0       15.895939   -1.360036   -2.794765
     34          6           0       15.984574   -0.643887   -4.080589
     35          6           0       15.952932    0.704283   -3.729473
     36          6           0       15.877446    0.822972   -2.312255
     37          6           0       16.137469   -1.245615   -5.360815
     38          6           0       15.990164    2.072323   -4.220327
     39          8           0       15.957613    2.594678   -5.335485
     40          6           0       16.205653    3.044771   -2.977855
     41          6           0       15.205345    4.162195   -3.096419
     42          8           0       13.982818    3.941740   -2.977285
     43          8           0       15.850621    5.338694   -3.093202
     44          6           0       14.913671    6.490644   -3.178589
     45          1           0       17.275379    1.765210    3.762824
     46          1           0       15.898893   -4.237812    2.761312
     47          1           0       15.907176   -3.267409   -3.443319
     48          1           0       17.241952    4.467897   -0.373742
     49          1           0       17.051018    3.949628    2.390745
     50          1           0       19.152660    3.354117    0.342735
     51          1           0       19.095720    2.218142    1.725698
     52          1           0       19.357679    3.907342    2.055188
     53          1           0       14.859311    4.195098    1.470144
     54          1           0       14.540861    4.436576   -0.294156
     55          1           0       16.387634    6.419375    0.568939
     56          1           0       15.368351    6.160270    1.933409
     57          1           0       16.613029    1.153613    5.668107
     58          1           0       16.901068   -0.356660    6.444073
     59          1           0       15.224100    0.242921    6.369243
     60          1           0       15.881928   -2.238423    7.105214
     61          1           0       14.609922   -3.580772    7.197835
     62          1           0       14.217722   -1.916096    6.689934
     63          1           0       15.288278   -5.642377    0.722976
     64          1           0       16.798162   -5.208478   -1.806839
     65          1           0       17.175002   -6.826506    1.101793
     66          1           0       18.060939   -5.265236    1.181072
     67          1           0       17.974704   -6.101864   -0.281662
     68          1           0       14.770594   -6.697950   -1.609973
     69          1           0       14.759792   -5.610178   -2.993620
     70          1           0       13.275193   -5.594786   -0.475205
     71          1           0       12.632971   -5.319490   -2.130033
     72          1           0       13.509633   -4.016318   -1.209209
     73          1           0       15.457743   -0.717339   -6.029295
     74          1           0       15.911360   -2.311138   -5.327082
     75          1           0       17.192188   -1.048414   -5.551959
     76          1           0       17.231881    3.406019   -3.036823
     77          1           0       15.215478    7.086706   -4.039901
     78          1           0       14.925074    6.972486   -2.200784
     79          1           0       13.882302    6.254549   -3.442929
     80         12           0      -15.948833    0.647279    0.510571
     81          6           0      -15.885661   -2.447895   -1.304631
     82          6           0      -15.018956    2.191852   -2.384991
     83          6           0      -15.557382    3.318412    2.177678
     84          6           0      -15.747362   -1.227803    3.441299
     85          7           0      -15.536800   -0.134421   -1.517100
     86          6           0      -15.604973   -1.320006   -2.103686
     87          6           0      -15.437659   -1.284832   -3.646523
     88          6           0      -14.618325    0.090938   -3.768249
     89          6           0      -15.110067    0.781507   -2.497820
     90          6           0      -13.113738   -0.093056   -3.660056
     91          6           0      -16.814062   -1.201858   -4.395277
     92          6           0      -16.745353   -1.474686   -5.899467
     93          1           0      -17.861374   -2.172455   -6.531985
     94          7           0      -15.854123    2.535523   -0.092867
     95          6           0      -15.477863    2.983206   -1.309123
     96          6           0      -15.558853    4.450480   -1.240509
     97          6           0      -15.854947    4.838702    0.165313
     98          6           0      -15.743953    3.552157    0.823011
     99          6           0      -15.441237    5.329450   -2.451713
    100          6           0      -16.171408    6.152732    0.812908
    101          8           0      -16.159581    6.295875    2.086559
    102          6           0      -16.403938    7.289457   -0.090021
    103          7           0      -15.477208    1.009678    2.502699
    104          6           0      -15.420755    2.264460    2.982546
    105          6           0      -15.338390    2.268651    4.490395
    106          6           0      -15.596121    0.755389    4.938938
    107          6           0      -15.698860    0.093008    3.547501
    108          6           0      -14.016720    2.756793    5.083072
    109          6           0      -16.739626    0.509318    5.960954
    110          6           0      -18.075990    0.815079    5.323745
    111          7           0      -16.021450   -1.450375    1.023047
    112          6           0      -15.891658   -2.019264    2.308972
    113          6           0      -15.891727   -3.486630    2.137920
    114          6           0      -15.999264   -3.670861    0.751197
    115          6           0      -16.041459   -2.407384    0.102077
    116          6           0      -15.752547   -4.445688    3.180496
    117          6           0      -16.075966   -4.646845   -0.311933
    118          8           0      -16.171224   -5.872520   -0.360762
    119          6           0      -15.878454   -3.898448   -1.700202
    120          6           0      -16.951809   -4.373497   -2.640813
    121          8           0      -18.148018   -4.119114   -2.414989
    122          8           0      -16.377000   -4.857758   -3.756808
    123          6           0      -17.401595   -5.331214   -4.725250
    124          1           0      -14.510161    2.743800   -3.175782
    125          1           0      -15.527628    4.208735    2.810057
    126          1           0      -15.786779   -1.882592    4.314431
    127          1           0      -14.857038   -2.101144   -4.059203
    128          1           0      -14.918911    0.653111   -4.648575
    129          1           0      -12.849544   -1.107336   -3.400078
    130          1           0      -12.788301    0.592304   -2.888427
    131          1           0      -12.626312    0.237371   -4.581772
    132          1           0      -17.151841   -0.157598   -4.408978
    133          1           0      -17.534300   -1.854935   -3.942100
    134          1           0      -15.791613   -1.930090   -6.192643
    135          1           0      -16.758668   -0.517673   -6.426701
    136          1           0      -15.061270    4.772839   -3.317289
    137          1           0      -14.659075    6.065838   -2.237665
    138          1           0      -16.369687    5.856644   -2.681329
    139          1           0      -15.524779    7.442871   -0.711311
    140          1           0      -16.702920    8.118293    0.554586
    141          1           0      -17.227339    7.035773   -0.766988
    142          1           0      -16.109144    2.898054    4.918042
    143          1           0      -14.713386    0.319949    5.429860
    144          1           0      -14.138515    3.608017    5.779244
    145          1           0      -13.355264    3.022746    4.269276
    146          1           0      -13.439967    1.999640    5.611550
    147          1           0      -16.639245    1.187295    6.812083
    148          1           0      -16.756938   -0.501465    6.354674
    149          1           0      -18.160085    1.900228    5.435349
    150          1           0      -18.877820    0.300884    5.849783
    151          1           0      -18.059761    0.594400    4.250113
    152          1           0      -16.479046   -5.223641    2.986913
    153          1           0      -15.903532   -3.994166    4.158815
    154          1           0      -14.714704   -4.752660    3.025837
    155          1           0      -14.879054   -4.140664   -2.063659
    156          1           0      -17.163823   -6.373868   -4.957699
    157          1           0      -17.376230   -4.609839   -5.563528
    158          1           0      -18.422038   -5.420794   -4.371522
 ---------------------------------------------------------------------

 SCF Done:  E(RCAM-B3LYP) =  -4069.81178799     A.U. after   19 cycles

 Excitation energies and oscillator strengths:

 Excited State   1:      Singlet-A      1.6755 eV  739.96 nm  f=0.3635  <S**2>=0.000
     310 -> 316        0.17274
     312 -> 313        0.68275
     310 <- 316        0.10411
 This state for optimization and/or second-order correction.
 Total Energy, E(TD-HF/TD-DFT) =  -4069.75021278
 Copying the excited state density for this state as the 1-particle RhoCI density.

 Excited State   2:      Singlet-A      1.6799 eV  738.04 nm  f=0.4128  <S**2>=0.000
     309 -> 315        0.17473
     311 -> 314        0.68240
     309 <- 315        0.10464

 Excited State   3:      Singlet-A      2.1861 eV  567.15 nm  f=0.1017  <S**2>=0.000
     310 -> 313        0.64245
     312 -> 316       -0.27307

 Excited State   4:      Singlet-A      2.1926 eV  565.47 nm  f=0.0993  <S**2>=0.000
     309 -> 314        0.64067
     311 -> 315       -0.27830

 Excited State   5:      Singlet-A      3.0660 eV  404.38 nm  f=0.0000  <S**2>=0.000
     311 -> 313        0.70711

 The electronic state is 1-A.
 Alpha  occ. eigenvalues --  -46.87797 -46.87660 -19.26346 -19.26289 -19.19158
 Alpha  occ. eigenvalues --  -19.19025 -19.18812 -19.18714 -19.18172 -19.18050
 Alpha  occ. eigenvalues --  -14.42496 -14.42450 -14.41449 -14.41360 -14.39403
 Alpha  occ. eigenvalues --  -14.39352 -14.38600 -14.38587 -10.39088 -10.39084
 Alpha  occ. eigenvalues --  -10.35446 -10.35392 -10.34392 -10.34228 -10.31752
 Alpha  occ. eigenvalues --  -10.31686 -10.31406 -10.31307 -10.31021 -10.30909
 Alpha  occ. eigenvalues --  -10.30570 -10.30508 -10.30398 -10.30360 -10.30206
 Alpha  occ. eigenvalues --  -10.30142 -10.29921 -10.29896 -10.29631 -10.29436
 Alpha  occ. eigenvalues --  -10.29401 -10.29254 -10.28750 -10.28714 -10.28647
 Alpha  occ. eigenvalues --  -10.28540 -10.28404 -10.28365 -10.28135 -10.28117
 Alpha  occ. eigenvalues --  -10.28001 -10.27793 -10.27727 -10.27667 -10.27584
 Alpha  occ. eigenvalues --  -10.27521 -10.27500 -10.27483 -10.27479 -10.27466
 Alpha  occ. eigenvalues --  -10.27462 -10.27448 -10.27404 -10.27379 -10.27161
 Alpha  occ. eigenvalues --  -10.27048 -10.26706 -10.26688 -10.26414 -10.26406
 Alpha  occ. eigenvalues --  -10.26234 -10.26183 -10.26143 -10.26019 -10.26017
 Alpha  occ. eigenvalues --  -10.25935 -10.25853 -10.25846 -10.25433 -10.25402
 Alpha  occ. eigenvalues --  -10.24872 -10.24833 -10.24787 -10.24736 -10.24690
 Alpha  occ. eigenvalues --  -10.24686  -3.16539  -3.16410  -1.91421  -1.91292
 Alpha  occ. eigenvalues --   -1.91008  -1.90881  -1.90850  -1.90718  -1.16640
 Alpha  occ. eigenvalues --   -1.16638  -1.08657  -1.08630  -1.07213  -1.06967
 Alpha  occ. eigenvalues --   -1.06943  -1.06647  -1.04581  -1.04494  -1.03760
 Alpha  occ. eigenvalues --   -1.03663  -1.03234  -1.03039  -1.02411  -1.02111
 Alpha  occ. eigenvalues --   -0.91986  -0.91973  -0.89519  -0.89496  -0.89188
 Alpha  occ. eigenvalues --   -0.89147  -0.88286  -0.88222  -0.87871  -0.87794
 Alpha  occ. eigenvalues --   -0.87683  -0.87673  -0.87272  -0.87119  -0.84997
 Alpha  occ. eigenvalues --   -0.84982  -0.83936  -0.83879  -0.82965  -0.82931
 Alpha  occ. eigenvalues --   -0.82650  -0.82649  -0.81595  -0.81588  -0.80597
 Alpha  occ. eigenvalues --   -0.80441  -0.78797  -0.78635  -0.77218  -0.77143
 Alpha  occ. eigenvalues --   -0.76935  -0.76897  -0.75924  -0.75836  -0.74898
 Alpha  occ. eigenvalues --   -0.74804  -0.72775  -0.72699  -0.71672  -0.71580
 Alpha  occ. eigenvalues --   -0.69906  -0.69761  -0.68873  -0.68825  -0.67641
 Alpha  occ. eigenvalues --   -0.67601  -0.67220  -0.67197  -0.65287  -0.65269
 Alpha  occ. eigenvalues --   -0.64854  -0.64770  -0.64652  -0.64621  -0.64269
 Alpha  occ. eigenvalues --   -0.64205  -0.62300  -0.62277  -0.60441  -0.60340
 Alpha  occ. eigenvalues --   -0.59805  -0.59793  -0.58993  -0.58988  -0.58504
 Alpha  occ. eigenvalues --   -0.58425  -0.57587  -0.57553  -0.57309  -0.57237
 Alpha  occ. eigenvalues --   -0.56310  -0.56203  -0.55981  -0.55884  -0.55520
 Alpha  occ. eigenvalues --   -0.55451  -0.55340  -0.55249  -0.54525  -0.54488
 Alpha  occ. eigenvalues --   -0.53908  -0.53895  -0.53299  -0.53227  -0.53222
 Alpha  occ. eigenvalues --   -0.53140  -0.52916  -0.52901  -0.52755  -0.52666
 Alpha  occ. eigenvalues --   -0.52438  -0.52405  -0.51917  -0.51886  -0.51656
 Alpha  occ. eigenvalues --   -0.51617  -0.51201  -0.51197  -0.50570  -0.50474
 Alpha  occ. eigenvalues --   -0.50030  -0.49978  -0.49917  -0.49869  -0.49514
 Alpha  occ. eigenvalues --   -0.49486  -0.49215  -0.49200  -0.49102  -0.49097
 Alpha  occ. eigenvalues --   -0.48594  -0.48556  -0.48461  -0.48445  -0.48378
 Alpha  occ. eigenvalues --   -0.48338  -0.47695  -0.47593  -0.47296  -0.47118
 Alpha  occ. eigenvalues --   -0.46797  -0.46709  -0.46556  -0.46551  -0.46359
 Alpha  occ. eigenvalues --   -0.46271  -0.46163  -0.46086  -0.45824  -0.45821
 Alpha  occ. eigenvalues --   -0.45210  -0.45201  -0.44579  -0.44513  -0.44506
 Alpha  occ. eigenvalues --   -0.44474  -0.44144  -0.44125  -0.44088  -0.44078
 Alpha  occ. eigenvalues --   -0.44020  -0.43938  -0.43552  -0.43497  -0.43386
 Alpha  occ. eigenvalues --   -0.43384  -0.43027  -0.42929  -0.42900  -0.42701
 Alpha  occ. eigenvalues --   -0.42656  -0.42555  -0.42010  -0.41965  -0.41705
 Alpha  occ. eigenvalues --   -0.41669  -0.41534  -0.41457  -0.41141  -0.40988
 Alpha  occ. eigenvalues --   -0.40869  -0.40821  -0.40721  -0.40697  -0.40571
 Alpha  occ. eigenvalues --   -0.40494  -0.40235  -0.40223  -0.39440  -0.39429
 Alpha  occ. eigenvalues --   -0.38468  -0.38352  -0.37749  -0.37650  -0.37320
 Alpha  occ. eigenvalues --   -0.37267  -0.37264  -0.37197  -0.36769  -0.36716
 Alpha  occ. eigenvalues --   -0.36217  -0.36194  -0.34286  -0.34253  -0.33860
 Alpha  occ. eigenvalues --   -0.33774  -0.33187  -0.33175  -0.31342  -0.31273
 Alpha  occ. eigenvalues --   -0.31036  -0.30972  -0.30031  -0.29955  -0.29449
 Alpha  occ. eigenvalues --   -0.29327  -0.29322  -0.29211  -0.24081  -0.24036
 Alpha  occ. eigenvalues --   -0.21128  -0.21117
 Alpha virt. eigenvalues --   -0.08792  -0.08774  -0.01749  -0.01684  -0.00057
 Alpha virt. eigenvalues --   -0.00028   0.02199   0.02207   0.03122   0.03226
 Alpha virt. eigenvalues --    0.04717   0.04732   0.05094   0.05167   0.06175

 Mulliken charges:
               1
     1  Mg   0.838702
     2  C   -0.002983
     3  C   -0.094137
     4  C   -0.045856
     5  C   -0.063939
     6  N   -0.256787
     7  C   -0.052460
     8  C   -0.014017
     9  C   -0.086976
    10  C    0.046324
    11  C    0.104807
    12  C    0.053461
    13  C   -0.071805
    14  H    0.036095
    15  N   -0.433135
    16  C    0.168445
    17  C   -0.177141
    18  C   -0.003981
    19  C    0.148729
    20  C    0.110183
    21  C    0.012301
    22  O   -0.249587
    23  C    0.062465
    24  N   -0.341131
    25  C    0.041261
    26  C   -0.028202
    27  C   -0.023979
    28  C    0.074822
    29  C    0.076176
    30  C    0.035144
    31  C   -0.004513
    32  N   -0.310459
    33  C    0.080387
    34  C   -0.169740
    35  C    0.008344
    36  C    0.082970
    37  C    0.127320
    38  C    0.046091
    39  O   -0.188511
    40  C   -0.005336
    41  C    0.212883
    42  O   -0.257129
    43  O   -0.304792
    44  C    0.157711
    45  H   -0.017583
    46  H   -0.016809
    47  H   -0.041509
    48  H    0.000919
    49  H   -0.004020
    50  H    0.025464
    51  H    0.016459
    52  H    0.016670
    53  H    0.011222
    54  H    0.044098
    55  H    0.017870
    56  H    0.017978
    57  H    0.005881
    58  H    0.026849
    59  H    0.039589
    60  H    0.037355
    61  H    0.035698
    62  H    0.031519
    63  H    0.016582
    64  H    0.009457
    65  H    0.023241
    66  H    0.012548
    67  H    0.004752
    68  H    0.006388
    69  H    0.004706
    70  H    0.008814
    71  H    0.018129
    72  H    0.028969
    73  H    0.047516
    74  H    0.009104
    75  H    0.045997
    76  H    0.035144
    77  H    0.042912
    78  H    0.046419
    79  H    0.053646
    80  Mg   0.837857
    81  C   -0.016813
    82  C   -0.087753
    83  C   -0.045510
    84  C   -0.064905
    85  N   -0.254578
    86  C   -0.049824
    87  C   -0.015117
    88  C   -0.090482
    89  C    0.045742
    90  C    0.114345
    91  C    0.062518
    92  C   -0.077927
    93  H    0.034906
    94  N   -0.423505
    95  C    0.162916
    96  C   -0.174584
    97  C   -0.007813
    98  C    0.152119
    99  C    0.099348
   100  C    0.015583
   101  O   -0.253202
   102  C    0.061189
   103  N   -0.350029
   104  C    0.037520
   105  C   -0.019838
   106  C   -0.034811
   107  C    0.088920
   108  C    0.073662
   109  C    0.034757
   110  C   -0.007681
   111  N   -0.324098
   112  C    0.078444
   113  C   -0.163155
   114  C    0.002255
   115  C    0.096185
   116  C    0.131493
   117  C    0.042371
   118  O   -0.187877
   119  C    0.000909
   120  C    0.211266
   121  O   -0.251041
   122  O   -0.305610
   123  C    0.152030
   124  H   -0.019576
   125  H   -0.015590
   126  H   -0.040492
   127  H   -0.000602
   128  H   -0.004278
   129  H    0.022485
   130  H    0.014438
   131  H    0.016392
   132  H    0.013916
   133  H    0.037658
   134  H    0.020839
   135  H    0.019629
   136  H    0.008825
   137  H    0.026197
   138  H    0.039815
   139  H    0.038295
   140  H    0.036388
   141  H    0.033909
   142  H    0.014383
   143  H    0.012403
   144  H    0.025111
   145  H    0.011673
   146  H    0.005659
   147  H    0.006229
   148  H    0.003630
   149  H    0.010926
   150  H    0.017915
   151  H    0.030127
   152  H    0.045992
   153  H    0.008482
   154  H    0.046952
   155  H    0.035071
   156  H    0.043926
   157  H    0.049525
   158  H    0.053566
 Sum of Mulliken charges =  -0.00000

 Dipole moment (field-independent basis, Debye):
    X=              4.1862    Y=              3.9977    Z=              1.4422  Tot=              5.9654
 Quadrupole moment (field-independent basis, Debye-Ang):
   XX=           -517.9425   YY=           -519.6282   ZZ=           -479.2541
   XY=            -32.1775   XZ=            102.2474   YZ=             18.3305

 Normal termination of Gaussian 16 at Sun Sep 12 10:05:54 2021.
