 Gaussian 16, Revision A.03,
 Gaussian 16:  ES64L-G16RevA.03 25-Dec-2016

 -----------------------------------
 #p cam-b3lyp/Def2SVP td=(nstates=5)
 -----------------------------------

 --------------------------------
 TDDFT excited states in gaussian
 --------------------------------
 Symbolic Z-matrix:
 Charge =  0 Multiplicity = 1

                         Standard orientation:
 ---------------------------------------------------------------------
 Center     Atomic      Atomic             Coordinates (Angstroms)
 Number     Number       Type             X           Y           Z
 ---------------------------------------------------------------------
      1         12           0       -5.268629   -0.502092    0.214803
      2          6           0       -5.272375    3.066763    0.489530
      3          6           0       -6.218001   -0.103929   -3.038384
      4          6           0       -5.712597   -3.638921    0.074022
      5          6           0       -5.436337   -0.622600    3.693742
      6          7           0       -5.661133    1.303086   -1.004999
      7          6           0       -5.568624    2.612906   -0.797675
      8          6           0       -5.741857    3.457570   -2.095330
      9          6           0       -6.577124    2.414501   -2.965004
     10          6           0       -6.098245    1.124409   -2.322928
     11          6           0       -8.085640    2.529325   -2.770848
     12          6           0       -4.370762    3.798208   -2.770457
     13          6           0       -4.425425    4.884096   -3.848981
     14          1           0       -3.302404    5.800391   -3.977722
     15          7           0       -5.398176   -1.709031   -1.343839
     16          6           0       -5.786423   -1.373729   -2.597682
     17          6           0       -5.716156   -2.618589   -3.392709
     18          6           0       -5.438278   -3.742065   -2.455330
     19          6           0       -5.532449   -3.070026   -1.184553
     20          6           0       -5.855616   -2.651618   -4.883752
     21          6           0       -5.146209   -5.193494   -2.670230
     22          8           0       -5.164509   -6.040073   -1.712345
     23          6           0       -4.922129   -5.619212   -4.063642
     24          7           0       -5.757781   -1.933043    1.653811
     25          6           0       -5.830994   -3.230996    1.339259
     26          6           0       -5.913051   -4.086891    2.568344
     27          6           0       -5.634873   -3.114204    3.803759
     28          6           0       -5.515524   -1.778086    3.029928
     29          6           0       -7.243914   -4.820090    2.785674
     30          6           0       -4.489916   -3.512614    4.768519
     31          6           0       -3.159611   -3.408826    4.056750
     32          7           0       -5.164712    0.934159    1.838819
     33          6           0       -5.280382    0.665789    3.210414
     34          6           0       -5.254991    1.964382    3.908326
     35          6           0       -5.142255    2.905052    2.886427
     36          6           0       -5.126333    2.237953    1.628247
     37          6           0       -5.389718    2.159243    5.311291
     38          6           0       -5.056344    4.320011    2.563370
     39          8           0       -4.932496    5.353825    3.221689
     40          6           0       -5.259834    4.488689    0.993031
     41          6           0       -4.176387    5.403228    0.489970
     42          8           0       -2.980244    5.047807    0.506811
     43          8           0       -4.733812    6.445334   -0.145511
     44          6           0       -3.712562    7.376579   -0.695043
     45          1           0       -6.741534   -0.107860   -3.996422
     46          1           0       -5.758822   -4.729921    0.078481
     47          1           0       -5.399202   -0.586555    4.784051
     48          1           0       -6.313487    4.376822   -1.966345
     49          1           0       -6.293432    2.442318   -4.016891
     50          1           0       -8.332261    3.223911   -1.967948
     51          1           0       -8.424411    1.523543   -2.521591
     52          1           0       -8.578326    2.787664   -3.708558
     53          1           0       -4.048090    2.951323   -3.376038
     54          1           0       -3.628750    4.072636   -2.019834
     55          1           0       -5.365676    5.435016   -3.812599
     56          1           0       -4.434488    4.396877   -4.824038
     57          1           0       -6.217470   -1.700904   -5.273304
     58          1           0       -6.651422   -3.359868   -5.113498
     59          1           0       -4.933639   -2.962424   -5.375371
     60          1           0       -5.804673   -5.382926   -4.658481
     61          1           0       -4.639553   -6.670237   -4.015208
     62          1           0       -4.103452   -5.034510   -4.484166
     63          1           0       -5.154995   -4.868875    2.551648
     64          1           0       -6.506370   -3.016217    4.451498
     65          1           0       -7.138811   -5.901817    2.872418
     66          1           0       -7.911647   -4.556548    1.965936
     67          1           0       -7.816489   -4.481810    3.648890
     68          1           0       -4.604252   -4.548742    5.085238
     69          1           0       -4.448089   -2.894370    5.665333
     70          1           0       -3.088685   -4.361542    3.533172
     71          1           0       -2.349590   -3.298751    4.778526
     72          1           0       -3.172279   -2.622341    3.301921
     73          1           0       -4.642127    2.902084    5.589253
     74          1           0       -5.243567    1.226980    5.856386
     75          1           0       -6.416930    2.519156    5.367445
     76          1           0       -6.253068    4.912938    0.849434
     77          1           0       -3.928606    8.365226   -0.289904
     78          1           0       -3.735735    7.257595   -1.778422
     79          1           0       -2.689613    7.230359   -0.346424
     80         12           0        5.301977   -1.066024   -0.098086
     81          6           0        5.609871    2.499306    0.171566
     82          6           0        4.072605   -0.572344   -3.241264
     83          6           0        4.598136   -4.158183   -0.201106
     84          6           0        5.458584   -1.203381    3.380749
     85          7           0        4.936454    0.772588   -1.272042
     86          6           0        5.149365    2.067089   -1.089607
     87          6           0        4.928491    2.939733   -2.354231
     88          6           0        3.922559    1.968473   -3.143919
     89          6           0        4.354903    0.630939   -2.546627
     90          6           0        2.462437    2.199233   -2.791620
     91          6           0        6.254860    3.170919   -3.160039
     92          6           0        6.175599    4.262548   -4.229533
     93          1           0        7.356435    5.086887   -4.471541
     94          7           0        4.926379   -2.246681   -1.648427
     95          6           0        4.452092   -1.877096   -2.856624
     96          6           0        4.330795   -3.117696   -3.637888
     97          6           0        4.615872   -4.268367   -2.738225
     98          6           0        4.706104   -3.588718   -1.461501
     99          6           0        4.052798   -3.126436   -5.113037
    100          6           0        4.767814   -5.738952   -2.984151
    101          8           0        4.777834   -6.585131   -2.021490
    102          6           0        4.810675   -6.167588   -4.389829
    103          7           0        4.849915   -2.459086    1.377504
    104          6           0        4.635503   -3.749732    1.067397
    105          6           0        4.602647   -4.610560    2.307671
    106          6           0        5.082479   -3.661557    3.502136
    107          6           0        5.230685   -2.334090    2.726733
    108          6           0        3.246066   -5.221964    2.657344
    109          6           0        6.281836   -4.156690    4.355987
    110          6           0        7.541270   -4.166907    3.519871
    111          7           0        5.681804    0.339261    1.498456
    112          6           0        5.674303    0.076449    2.885883
    113          6           0        5.872507    1.368187    3.574767
    114          6           0        5.959235    2.303557    2.532629
    115          6           0        5.804391    1.644302    1.283261
    116          6           0        5.901944    1.563278    4.984440
    117          6           0        6.135932    3.700219    2.205786
    118          8           0        6.398779    4.716162    2.848063
    119          6           0        5.791202    3.906891    0.667993
    120          6           0        6.888814    4.730920    0.052584
    121          8           0        8.044856    4.280581   -0.033388
    122          8           0        6.350668    5.819935   -0.526052
    123          6           0        7.398884    6.663278   -1.159954
    124          1           0        3.466554   -0.519115   -4.146108
    125          1           0        4.465725   -5.242442   -0.183372
    126          1           0        5.617016   -1.175542    4.460935
    127          1           0        4.453663    3.895800   -2.169148
    128          1           0        4.113274    1.987743   -4.213784
    129          1           0        2.350248    2.900225   -1.977884
    130          1           0        2.070375    1.229917   -2.512749
    131          1           0        1.904022    2.505747   -3.680753
    132          1           0        6.443755    2.297219   -3.796985
    133          1           0        7.073195    3.373567   -2.496807
    134          1           0        5.285267    4.891976   -4.110881
    135          1           0        6.038707    3.785372   -5.202965
    136          1           0        3.725722   -2.140825   -5.466579
    137          1           0        3.183385   -3.773828   -5.270747
    138          1           0        4.891065   -3.511851   -5.697360
    139          1           0        3.898916   -5.852192   -4.891507
    140          1           0        5.012579   -7.240125   -4.362267
    141          1           0        5.638770   -5.651117   -4.887978
    142          1           0        5.292103   -5.441282    2.220211
    143          1           0        4.285245   -3.505068    4.243595
    144          1           0        3.271177   -6.325443    2.733258
    145          1           0        2.527872   -4.908359    1.911424
    146          1           0        2.797592   -4.854447    3.578758
    147          1           0        6.116150   -5.187022    4.680183
    148          1           0        6.452154   -3.562075    5.247293
    149          1           0        7.477498   -5.121645    2.989300
    150          1           0        8.423470   -4.126815    4.155608
    151          1           0        7.520783   -3.369769    2.767672
    152          1           0        6.722702    2.238045    5.188289
    153          1           0        6.020649    0.620246    5.513924
    154          1           0        4.912279    2.000493    5.141540
    155          1           0        4.823769    4.407579    0.613553
    156          1           0        7.300713    7.667408   -0.735954
    157          1           0        7.246263    6.559939   -2.250717
    158          1           0        8.432886    6.436056   -0.928294
 ---------------------------------------------------------------------

 SCF Done:  E(RCAM-B3LYP) =  -4069.81145664     A.U. after   19 cycles

 Excitation energies and oscillator strengths:

 Excited State   1:      Singlet-A      1.6568 eV  748.34 nm  f=0.0060  <S**2>=0.000
     309 -> 315       -0.11329
     310 -> 316        0.12550
     311 -> 313       -0.45844
     312 -> 314        0.51188
 This state for optimization and/or second-order correction.
 Total Energy, E(TD-HF/TD-DFT) =  -4069.75057103
 Copying the excited state density for this state as the 1-particle RhoCI density.

 Excited State   2:      Singlet-A      1.6965 eV  730.80 nm  f=0.7157  <S**2>=0.000
     309 -> 315        0.13425
     310 -> 316        0.11925
     311 -> 313        0.50994
     312 -> 314        0.45677

 Excited State   3:      Singlet-A      2.1825 eV  568.07 nm  f=0.0230  <S**2>=0.000
     309 -> 313       -0.26976
     310 -> 314        0.58497
     311 -> 315        0.11240
     312 -> 316       -0.24527

 Excited State   4:      Singlet-A      2.1946 eV  564.94 nm  f=0.1583  <S**2>=0.000
     309 -> 313        0.58116
     310 -> 314        0.26653
     311 -> 315       -0.25492
     312 -> 316       -0.11787

 Excited State   5:      Singlet-A      2.4803 eV  499.87 nm  f=0.0000  <S**2>=0.000
     312 -> 313        0.70709

 The electronic state is 1-A.
 Alpha  occ. eigenvalues --  -46.87896 -46.87493 -19.26384 -19.26177 -19.19122
 Alpha  occ. eigenvalues --  -19.18990 -19.18897 -19.18584 -19.18247 -19.17855
 Alpha  occ. eigenvalues --  -14.42556 -14.42327 -14.41545 -14.41195 -14.39502
 Alpha  occ. eigenvalues --  -14.39190 -14.38682 -14.38426 -10.39181 -10.38914
 Alpha  occ. eigenvalues --  -10.35532 -10.35265 -10.34469 -10.34029 -10.31779
 Alpha  occ. eigenvalues --  -10.31608 -10.31511 -10.31130 -10.31022 -10.30859
 Alpha  occ. eigenvalues --  -10.30669 -10.30597 -10.30302 -10.30228 -10.30189
 Alpha  occ. eigenvalues --  -10.30006 -10.29994 -10.29724 -10.29724 -10.29352
 Alpha  occ. eigenvalues --  -10.29282 -10.29240 -10.28889 -10.28743 -10.28548
 Alpha  occ. eigenvalues --  -10.28541 -10.28464 -10.28245 -10.28234 -10.27952
 Alpha  occ. eigenvalues --  -10.27885 -10.27833 -10.27833 -10.27681 -10.27612
 Alpha  occ. eigenvalues --  -10.27582 -10.27523 -10.27510 -10.27504 -10.27387
 Alpha  occ. eigenvalues --  -10.27385 -10.27312 -10.27310 -10.27250 -10.27233
 Alpha  occ. eigenvalues --  -10.26893 -10.26838 -10.26556 -10.26508 -10.26346
 Alpha  occ. eigenvalues --  -10.26328 -10.26265 -10.26114 -10.26024 -10.25906
 Alpha  occ. eigenvalues --  -10.25776 -10.25767 -10.25659 -10.25499 -10.25254
 Alpha  occ. eigenvalues --  -10.24923 -10.24878 -10.24775 -10.24697 -10.24622
 Alpha  occ. eigenvalues --  -10.24524  -3.16639  -3.16242  -1.91521  -1.91124
 Alpha  occ. eigenvalues --   -1.91107  -1.90949  -1.90713  -1.90550  -1.16733
 Alpha  occ. eigenvalues --   -1.16471  -1.08703  -1.08458  -1.07296  -1.06837
 Alpha  occ. eigenvalues --   -1.06773  -1.06743  -1.04687  -1.04324  -1.03858
 Alpha  occ. eigenvalues --   -1.03497  -1.03329  -1.02874  -1.02507  -1.01943
 Alpha  occ. eigenvalues --   -0.92069  -0.91806  -0.89609  -0.89343  -0.89320
 Alpha  occ. eigenvalues --   -0.88973  -0.88373  -0.88074  -0.87956  -0.87784
 Alpha  occ. eigenvalues --   -0.87617  -0.87524  -0.87377  -0.86991  -0.85109
 Alpha  occ. eigenvalues --   -0.84836  -0.84020  -0.83733  -0.83063  -0.82813
 Alpha  occ. eigenvalues --   -0.82763  -0.82496  -0.81685  -0.81430  -0.80697
 Alpha  occ. eigenvalues --   -0.80282  -0.78897  -0.78490  -0.77326  -0.77048
 Alpha  occ. eigenvalues --   -0.76989  -0.76738  -0.76031  -0.75663  -0.74984
 Alpha  occ. eigenvalues --   -0.74650  -0.72869  -0.72534  -0.71770  -0.71409
 Alpha  occ. eigenvalues --   -0.69993  -0.69623  -0.68992  -0.68667  -0.67738
 Alpha  occ. eigenvalues --   -0.67443  -0.67356  -0.67062  -0.65409  -0.65104
 Alpha  occ. eigenvalues --   -0.64952  -0.64725  -0.64607  -0.64492  -0.64359
 Alpha  occ. eigenvalues --   -0.64054  -0.62394  -0.62114  -0.60538  -0.60200
 Alpha  occ. eigenvalues --   -0.59923  -0.59622  -0.59083  -0.58828  -0.58599
 Alpha  occ. eigenvalues --   -0.58261  -0.57678  -0.57400  -0.57367  -0.57081
 Alpha  occ. eigenvalues --   -0.56406  -0.56085  -0.56047  -0.55728  -0.55618
 Alpha  occ. eigenvalues --   -0.55426  -0.55303  -0.55093  -0.54614  -0.54334
 Alpha  occ. eigenvalues --   -0.54027  -0.53742  -0.53395  -0.53336  -0.53077
 Alpha  occ. eigenvalues --   -0.53017  -0.52986  -0.52869  -0.52745  -0.52538
 Alpha  occ. eigenvalues --   -0.52524  -0.52272  -0.51992  -0.51742  -0.51699
 Alpha  occ. eigenvalues --   -0.51507  -0.51291  -0.51035  -0.50682  -0.50366
 Alpha  occ. eigenvalues --   -0.50125  -0.50022  -0.49826  -0.49725  -0.49625
 Alpha  occ. eigenvalues --   -0.49336  -0.49313  -0.49209  -0.49035  -0.48919
 Alpha  occ. eigenvalues --   -0.48691  -0.48547  -0.48534  -0.48388  -0.48228
 Alpha  occ. eigenvalues --   -0.48195  -0.47800  -0.47445  -0.47395  -0.46979
 Alpha  occ. eigenvalues --   -0.46898  -0.46683  -0.46554  -0.46454  -0.46395
 Alpha  occ. eigenvalues --   -0.46251  -0.46120  -0.45922  -0.45913  -0.45647
 Alpha  occ. eigenvalues --   -0.45287  -0.45056  -0.44671  -0.44617  -0.44347
 Alpha  occ. eigenvalues --   -0.44319  -0.44240  -0.44206  -0.44115  -0.43954
 Alpha  occ. eigenvalues --   -0.43938  -0.43788  -0.43589  -0.43495  -0.43391
 Alpha  occ. eigenvalues --   -0.43221  -0.43123  -0.42793  -0.42767  -0.42745
 Alpha  occ. eigenvalues --   -0.42729  -0.42413  -0.42110  -0.41818  -0.41800
 Alpha  occ. eigenvalues --   -0.41660  -0.41492  -0.41305  -0.41242  -0.40989
 Alpha  occ. eigenvalues --   -0.40927  -0.40817  -0.40663  -0.40589  -0.40549
 Alpha  occ. eigenvalues --   -0.40393  -0.40341  -0.40086  -0.39529  -0.39295
 Alpha  occ. eigenvalues --   -0.38565  -0.38203  -0.37896  -0.37510  -0.37414
 Alpha  occ. eigenvalues --   -0.37387  -0.37114  -0.37037  -0.36810  -0.36608
 Alpha  occ. eigenvalues --   -0.36291  -0.36060  -0.34384  -0.34085  -0.33872
 Alpha  occ. eigenvalues --   -0.33691  -0.33283  -0.33010  -0.31427  -0.31141
 Alpha  occ. eigenvalues --   -0.31133  -0.30805  -0.30106  -0.29757  -0.29544
 Alpha  occ. eigenvalues --   -0.29411  -0.29173  -0.29034  -0.24179  -0.23865
 Alpha  occ. eigenvalues --   -0.21226  -0.20952
 Alpha virt. eigenvalues --   -0.08870  -0.08627  -0.01846  -0.01522  -0.00155
 Alpha virt. eigenvalues --    0.00124   0.02116   0.02388   0.02998   0.03381
 Alpha virt. eigenvalues --    0.04597   0.04895   0.04998   0.05342   0.06019

 Mulliken charges:
               1
     1  Mg   0.838524
     2  C   -0.003216
     3  C   -0.094881
     4  C   -0.045504
     5  C   -0.063793
     6  N   -0.256707
     7  C   -0.052743
     8  C   -0.013854
     9  C   -0.086887
    10  C    0.046036
    11  C    0.104793
    12  C    0.053772
    13  C   -0.071406
    14  H    0.034924
    15  N   -0.433143
    16  C    0.168195
    17  C   -0.177642
    18  C   -0.003942
    19  C    0.148726
    20  C    0.110291
    21  C    0.012571
    22  O   -0.248919
    23  C    0.062581
    24  N   -0.341089
    25  C    0.041140
    26  C   -0.028271
    27  C   -0.024037
    28  C    0.074871
    29  C    0.076071
    30  C    0.035091
    31  C   -0.004539
    32  N   -0.310554
    33  C    0.080509
    34  C   -0.169384
    35  C    0.008624
    36  C    0.083045
    37  C    0.127218
    38  C    0.046394
    39  O   -0.187664
    40  C   -0.005452
    41  C    0.213143
    42  O   -0.257452
    43  O   -0.304725
    44  C    0.157509
    45  H   -0.017748
    46  H   -0.016457
    47  H   -0.041224
    48  H    0.001244
    49  H   -0.004626
    50  H    0.025706
    51  H    0.016689
    52  H    0.016649
    53  H    0.009987
    54  H    0.043737
    55  H    0.018652
    56  H    0.017369
    57  H    0.005535
    58  H    0.027118
    59  H    0.038391
    60  H    0.037258
    61  H    0.036261
    62  H    0.030485
    63  H    0.016899
    64  H    0.009672
    65  H    0.023506
    66  H    0.012564
    67  H    0.004876
    68  H    0.006560
    69  H    0.004771
    70  H    0.009223
    71  H    0.017402
    72  H    0.029123
    73  H    0.048144
    74  H    0.009187
    75  H    0.046228
    76  H    0.035327
    77  H    0.043643
    78  H    0.045788
    79  H    0.053837
    80  Mg   0.838233
    81  C   -0.016418
    82  C   -0.087937
    83  C   -0.045481
    84  C   -0.064765
    85  N   -0.254601
    86  C   -0.048775
    87  C   -0.015184
    88  C   -0.090850
    89  C    0.046197
    90  C    0.114365
    91  C    0.062629
    92  C   -0.077443
    93  H    0.034255
    94  N   -0.423429
    95  C    0.162904
    96  C   -0.175248
    97  C   -0.007976
    98  C    0.151941
    99  C    0.099780
   100  C    0.015394
   101  O   -0.253224
   102  C    0.061383
   103  N   -0.349936
   104  C    0.037435
   105  C   -0.019762
   106  C   -0.034782
   107  C    0.089123
   108  C    0.073741
   109  C    0.034780
   110  C   -0.007592
   111  N   -0.324349
   112  C    0.078944
   113  C   -0.162637
   114  C    0.003070
   115  C    0.096286
   116  C    0.131179
   117  C    0.043257
   118  O   -0.187306
   119  C    0.000469
   120  C    0.210996
   121  O   -0.251560
   122  O   -0.305124
   123  C    0.152235
   124  H   -0.020825
   125  H   -0.015724
   126  H   -0.040631
   127  H    0.000249
   128  H   -0.005617
   129  H    0.026706
   130  H    0.014415
   131  H    0.014406
   132  H    0.013489
   133  H    0.037574
   134  H    0.020786
   135  H    0.018898
   136  H    0.007925
   137  H    0.024801
   138  H    0.039239
   139  H    0.037550
   140  H    0.036098
   141  H    0.033594
   142  H    0.014067
   143  H    0.012195
   144  H    0.024852
   145  H    0.012454
   146  H    0.005012
   147  H    0.005882
   148  H    0.003500
   149  H    0.010795
   150  H    0.017640
   151  H    0.030275
   152  H    0.045771
   153  H    0.007945
   154  H    0.048631
   155  H    0.037702
   156  H    0.043889
   157  H    0.049019
   158  H    0.053222
 Sum of Mulliken charges =  -0.00000

 Dipole moment (field-independent basis, Debye):
    X=             -4.8615    Y=             -1.7089    Z=             -7.1172  Tot=              8.7868
 Quadrupole moment (field-independent basis, Debye-Ang):
   XX=           -523.9556   YY=           -548.3375   ZZ=           -449.7835
   XY=             -9.8927   XZ=              2.3114   YZ=            -49.4988

 Normal termination of Gaussian 16 at Sat Sep 11 01:44:35 2021.
