 Gaussian 16, Revision A.03,
 Gaussian 16:  ES64L-G16RevA.03 25-Dec-2016

 -----------------------------------
 #p cam-b3lyp/Def2SVP td=(nstates=5)
 -----------------------------------

 --------------------------------
 TDDFT excited states in gaussian
 --------------------------------
 Symbolic Z-matrix:
 Charge =  0 Multiplicity = 1

                         Standard orientation:
 ---------------------------------------------------------------------
 Center     Atomic      Atomic             Coordinates (Angstroms)
 Number     Number       Type             X           Y           Z
 ---------------------------------------------------------------------
      1         12           0       -3.269799   -2.088577    0.311429
      2          6           0       -5.354609    0.721788   -0.441983
      3          6           0       -3.752387   -3.120009   -2.905141
      4          6           0       -1.813489   -4.799573    1.077121
      5          6           0       -3.881201   -1.451076    3.682696
      6          7           0       -4.426122   -1.222358   -1.365839
      7          6           0       -5.132323   -0.109926   -1.541749
      8          6           0       -5.551082    0.128229   -3.023403
      9          6           0       -5.491899   -1.376643   -3.546714
     10          6           0       -4.469710   -1.932997   -2.571253
     11          6           0       -6.803288   -2.135236   -3.369799
     12          6           0       -4.535233    1.041343   -3.788913
     13          6           0       -5.030601    1.587641   -5.131121
     14          1           0       -4.629083    2.927249   -5.533093
     15          7           0       -2.440468   -3.465978   -0.836537
     16          6           0       -2.748345   -3.736771   -2.127726
     17          6           0       -1.856020   -4.842953   -2.536135
     18          6           0       -1.137224   -5.319663   -1.321979
     19          6           0       -1.796126   -4.555112   -0.294026
     20          6           0       -1.715876   -5.306504   -3.953608
     21          6           0       -0.039096   -6.315173   -1.118988
     22          8           0        0.279683   -6.749239    0.040555
     23          6           0        0.602972   -6.842439   -2.336684
     24          7           0       -3.071934   -3.136546    2.105933
     25          6           0       -2.340163   -4.253986    2.175390
     26          6           0       -2.109924   -4.668308    3.598509
     27          6           0       -2.635041   -3.460282    4.501104
     28          6           0       -3.180902   -2.545675    3.376915
     29          6           0       -2.797372   -5.968931    4.036466
     30          6           0       -1.636155   -2.858909    5.521396
     31          6           0       -0.512125   -2.160999    4.788884
     32          7           0       -4.261021   -0.534255    1.457120
     33          6           0       -4.415823   -0.482260    2.849961
     34          6           0       -5.246558    0.698769    3.148491
     35          6           0       -5.532972    1.245916    1.899315
     36          6           0       -4.941910    0.441836    0.883248
     37          6           0       -5.686254    1.103525    4.439721
     38          6           0       -6.221445    2.308899    1.185221
     39          8           0       -6.815394    3.334978    1.519703
     40          6           0       -6.235689    1.943784   -0.364720
     41          6           0       -5.806399    3.169347   -1.124333
     42          8           0       -4.642299    3.608084   -1.025600
     43          8           0       -6.751239    3.489879   -2.021595
     44          6           0       -6.374321    4.680390   -2.829536
     45          1           0       -4.021821   -3.661496   -3.814062
     46          1           0       -1.228185   -5.665663    1.392945
     47          1           0       -4.042717   -1.141352    4.716832
     48          1           0       -6.556972    0.528073   -3.152756
     49          1           0       -5.114404   -1.438069   -4.567227
     50          1           0       -7.524581   -1.555171   -2.794316
     51          1           0       -6.540720   -3.050591   -2.839066
     52          1           0       -7.200878   -2.451731   -4.334440
     53          1           0       -3.696583    0.436134   -4.133076
     54          1           0       -4.211800    1.870955   -3.159261
     55          1           0       -6.108555    1.463605   -5.238535
     56          1           0       -4.606790    0.974738   -5.926693
     57          1           0       -2.489476   -4.881870   -4.592180
     58          1           0       -1.916440   -6.377693   -3.959600
     59          1           0       -0.718479   -5.117019   -4.350631
     60          1           0       -0.149844   -7.325006   -2.960340
     61          1           0        1.423456   -7.472572   -1.995233
     62          1           0        0.994435   -6.007866   -2.919087
     63          1           0       -1.049847   -4.825324    3.793465
     64          1           0       -3.494655   -3.746462    5.107601
     65          1           0       -2.108338   -6.718652    4.426151
     66          1           0       -3.357451   -6.356944    3.186144
     67          1           0       -3.587186   -5.841759    4.776357
     68          1           0       -1.186001   -3.648635    6.121929
     69          1           0       -2.096159   -2.144407    6.204137
     70          1           0        0.171308   -2.977188    4.557396
     71          1           0       -0.035491   -1.424502    5.436651
     72          1           0       -0.853342   -1.743107    3.841559
     73          1           0       -5.551850    2.184287    4.482822
     74          1           0       -5.121353    0.602453    5.225479
     75          1           0       -6.728255    0.785684    4.407032
     76          1           0       -7.255768    1.647954   -0.607715
     77          1           0       -7.176638    5.410062   -2.719536
     78          1           0       -6.155262    4.316745   -3.833618
     79          1           0       -5.521254    5.256712   -2.469717
     80         12           0        3.400612    2.221925    0.095537
     81          6           0        5.045258   -0.758059   -1.041960
     82          6           0        3.359139    0.831087    3.209777
     83          6           0        1.557483    4.627009    1.036760
     84          6           0        2.559390    2.858880   -3.225961
     85          7           0        4.138328    0.281707    0.859470
     86          6           0        4.801500   -0.744034    0.347225
     87          6           0        5.297773   -1.776721    1.394520
     88          6           0        4.233187   -1.470631    2.557209
     89          6           0        3.910162   -0.017295    2.216437
     90          6           0        2.956317   -2.285323    2.433771
     91          6           0        6.765358   -1.488629    1.869083
     92          6           0        7.422622   -2.626385    2.653479
     93          1           0        8.854133   -2.856013    2.478780
     94          7           0        3.004059    2.898903    1.918449
     95          6           0        3.059571    2.204496    3.074306
     96          6           0        2.657203    3.147086    4.129658
     97          6           0        2.201033    4.407757    3.483637
     98          6           0        2.217224    4.010648    2.090036
     99          6           0        2.801660    2.841212    5.592190
    100          6           0        1.802356    5.744933    4.030632
    101          8           0        1.212465    6.620880    3.304281
    102          6           0        2.038630    5.963331    5.465194
    103          7           0        2.048628    3.439594   -0.910326
    104          6           0        1.419562    4.444922   -0.276684
    105          6           0        0.712613    5.350087   -1.257143
    106          6           0        1.200686    4.879237   -2.705469
    107          6           0        2.074621    3.672710   -2.298138
    108          6           0       -0.814750    5.326275   -1.202432
    109          6           0        1.822362    5.964926   -3.626041
    110          6           0        3.141481    6.432563   -3.054535
    111          7           0        3.879759    1.354129   -1.824197
    112          6           0        3.398657    1.760695   -3.088049
    113          6           0        3.913553    0.795593   -4.080960
    114          6           0        4.645329   -0.125950   -3.316931
    115          6           0        4.573642    0.227614   -1.942385
    116          6           0        3.644676    0.816678   -5.478602
    117          6           0        5.453317   -1.323460   -3.359460
    118          8           0        5.925197   -2.021617   -4.255920
    119          6           0        5.643442   -1.857809   -1.874627
    120          6           0        7.101056   -2.172318   -1.677229
    121          8           0        7.952213   -1.265946   -1.702066
    122          8           0        7.225723   -3.451024   -1.277554
    123          6           0        8.652875   -3.807163   -1.057928
    124          1           0        3.090598    0.396066    4.172852
    125          1           0        0.996955    5.528603    1.294445
    126          1           0        2.422836    3.043627   -4.293615
    127          1           0        5.221372   -2.811707    1.083482
    128          1           0        4.691505   -1.538931    3.540389
    129          1           0        2.926899   -2.851449    1.514649
    130          1           0        2.146092   -1.568560    2.462734
    131          1           0        2.828057   -2.920923    3.314614
    132          1           0        6.744918   -0.712697    2.645143
    133          1           0        7.387487   -1.215456    1.039047
    134          1           0        6.867866   -3.567612    2.557223
    135          1           0        7.367366   -2.390464    3.718983
    136          1           0        3.009297    1.777533    5.762096
    137          1           0        1.820333    3.003083    6.051175
    138          1           0        3.533370    3.483712    6.086619
    139          1           0        1.502184    5.210796    6.038219
    140          1           0        1.772666    7.005966    5.649759
    141          1           0        3.104591    5.814764    5.670786
    142          1           0        1.001721    6.383118   -1.107520
    143          1           0        0.370288    4.477713   -3.304674
    144          1           0       -1.260727    6.323062   -1.024665
    145          1           0       -1.117859    4.630993   -0.430915
    146          1           0       -1.302189    4.917798   -2.086032
    147          1           0        1.173359    6.843114   -3.667611
    148          1           0        1.976287    5.629656   -4.646286
    149          1           0        2.838943    7.180288   -2.315298
    150          1           0        3.760792    6.874631   -3.832400
    151          1           0        3.646503    5.622210   -2.516079
    152          1           0        4.582319    0.614662   -5.979109
    153          1           0        3.225408    1.771650   -5.788447
    154          1           0        2.914842    0.005726   -5.549070
    155          1           0        5.014902   -2.741971   -1.761657
    156          1           0        8.862065   -4.684931   -1.677154
    157          1           0        8.766670   -3.923909    0.036233
    158          1           0        9.403619   -3.112245   -1.415575
 ---------------------------------------------------------------------

 SCF Done:  E(RCAM-B3LYP) =  -4069.81278686     A.U. after   19 cycles

 Excitation energies and oscillator strengths:

 Excited State   1:      Singlet-A      1.6416 eV  755.25 nm  f=0.0430  <S**2>=0.000
     309 -> 315        0.10923
     310 -> 316        0.12453
     311 -> 313        0.45473
     312 -> 314        0.51636
 This state for optimization and/or second-order correction.
 Total Energy, E(TD-HF/TD-DFT) =  -4069.75245804
 Copying the excited state density for this state as the 1-particle RhoCI density.

 Excited State   2:      Singlet-A      1.7046 eV  727.34 nm  f=0.6306  <S**2>=0.000
     309 -> 315        0.13650
     310 -> 316       -0.11990
     311 -> 313        0.51322
     312 -> 314       -0.45194

 Excited State   3:      Singlet-A      2.1783 eV  569.17 nm  f=0.0271  <S**2>=0.000
     309 -> 313        0.31655
     310 -> 314        0.56362
     311 -> 315       -0.12929
     312 -> 316       -0.23124

 Excited State   4:      Singlet-A      2.1985 eV  563.95 nm  f=0.1464  <S**2>=0.000
     309 -> 313        0.55660
     310 -> 314       -0.31109
     311 -> 315       -0.24704
     312 -> 316        0.13961

 Excited State   5:      Singlet-A      2.2278 eV  556.53 nm  f=0.0001  <S**2>=0.000
     312 -> 313        0.70689

 The electronic state is 1-A.
 Alpha  occ. eigenvalues --  -46.87941 -46.87375 -19.26486 -19.26185 -19.19278
 Alpha  occ. eigenvalues --  -19.18989 -19.18918 -19.18421 -19.18285 -19.17870
 Alpha  occ. eigenvalues --  -14.42593 -14.42212 -14.41619 -14.41034 -14.39539
 Alpha  occ. eigenvalues --  -14.39069 -14.38726 -14.38336 -10.39305 -10.38914
 Alpha  occ. eigenvalues --  -10.35540 -10.35098 -10.34512 -10.34048 -10.31873
 Alpha  occ. eigenvalues --  -10.31613 -10.31547 -10.31062 -10.31044 -10.30733
 Alpha  occ. eigenvalues --  -10.30708 -10.30659 -10.30382 -10.30131 -10.30121
 Alpha  occ. eigenvalues --  -10.30108 -10.29791 -10.29761 -10.29538 -10.29385
 Alpha  occ. eigenvalues --  -10.29166 -10.29142 -10.28897 -10.28721 -10.28493
 Alpha  occ. eigenvalues --  -10.28444 -10.28440 -10.28248 -10.28136 -10.27914
 Alpha  occ. eigenvalues --  -10.27862 -10.27857 -10.27780 -10.27752 -10.27712
 Alpha  occ. eigenvalues --  -10.27702 -10.27552 -10.27506 -10.27398 -10.27312
 Alpha  occ. eigenvalues --  -10.27282 -10.27220 -10.27205 -10.27068 -10.26884
 Alpha  occ. eigenvalues --  -10.26853 -10.26766 -10.26596 -10.26460 -10.26391
 Alpha  occ. eigenvalues --  -10.26348 -10.26192 -10.26160 -10.25967 -10.25811
 Alpha  occ. eigenvalues --  -10.25751 -10.25668 -10.25662 -10.25646 -10.25249
 Alpha  occ. eigenvalues --  -10.24956 -10.24955 -10.24634 -10.24441 -10.24340
 Alpha  occ. eigenvalues --  -10.24319  -3.16683  -3.16125  -1.91565  -1.91152
 Alpha  occ. eigenvalues --   -1.91008  -1.90993  -1.90595  -1.90433  -1.16838
 Alpha  occ. eigenvalues --   -1.16478  -1.08747  -1.08490  -1.07321  -1.06866
 Alpha  occ. eigenvalues --   -1.06775  -1.06665  -1.04723  -1.04217  -1.03923
 Alpha  occ. eigenvalues --   -1.03378  -1.03370  -1.02732  -1.02560  -1.01814
 Alpha  occ. eigenvalues --   -0.92119  -0.91734  -0.89768  -0.89333  -0.89169
 Alpha  occ. eigenvalues --   -0.88869  -0.88524  -0.87998  -0.87823  -0.87803
 Alpha  occ. eigenvalues --   -0.87586  -0.87375  -0.87360  -0.86876  -0.85135
 Alpha  occ. eigenvalues --   -0.84719  -0.84218  -0.83441  -0.83088  -0.82781
 Alpha  occ. eigenvalues --   -0.82622  -0.82365  -0.81755  -0.81376  -0.80746
 Alpha  occ. eigenvalues --   -0.80191  -0.78902  -0.78397  -0.77407  -0.77115
 Alpha  occ. eigenvalues --   -0.76872  -0.76584  -0.76076  -0.75584  -0.75110
 Alpha  occ. eigenvalues --   -0.74281  -0.72929  -0.72428  -0.71833  -0.71196
 Alpha  occ. eigenvalues --   -0.70231  -0.69349  -0.69018  -0.68554  -0.67784
 Alpha  occ. eigenvalues --   -0.67355  -0.67311  -0.66950  -0.65448  -0.65028
 Alpha  occ. eigenvalues --   -0.65009  -0.64814  -0.64499  -0.64486  -0.64378
 Alpha  occ. eigenvalues --   -0.63832  -0.62486  -0.62041  -0.60570  -0.60038
 Alpha  occ. eigenvalues --   -0.59942  -0.59528  -0.59155  -0.58686  -0.58667
 Alpha  occ. eigenvalues --   -0.58141  -0.57748  -0.57491  -0.57353  -0.56911
 Alpha  occ. eigenvalues --   -0.56441  -0.56154  -0.55972  -0.55664  -0.55650
 Alpha  occ. eigenvalues --   -0.55572  -0.55218  -0.54907  -0.54760  -0.54137
 Alpha  occ. eigenvalues --   -0.54044  -0.53641  -0.53464  -0.53342  -0.53117
 Alpha  occ. eigenvalues --   -0.52953  -0.52893  -0.52859  -0.52747  -0.52644
 Alpha  occ. eigenvalues --   -0.52412  -0.52070  -0.52043  -0.51743  -0.51726
 Alpha  occ. eigenvalues --   -0.51412  -0.51376  -0.50955  -0.50648  -0.50265
 Alpha  occ. eigenvalues --   -0.50216  -0.50026  -0.49700  -0.49640  -0.49402
 Alpha  occ. eigenvalues --   -0.49349  -0.49235  -0.49218  -0.48967  -0.48833
 Alpha  occ. eigenvalues --   -0.48762  -0.48651  -0.48552  -0.48319  -0.48084
 Alpha  occ. eigenvalues --   -0.47917  -0.47852  -0.47434  -0.47303  -0.46988
 Alpha  occ. eigenvalues --   -0.46785  -0.46703  -0.46522  -0.46410  -0.46344
 Alpha  occ. eigenvalues --   -0.46259  -0.45995  -0.45982  -0.45743  -0.45558
 Alpha  occ. eigenvalues --   -0.45424  -0.44754  -0.44659  -0.44651  -0.44355
 Alpha  occ. eigenvalues --   -0.44250  -0.44235  -0.44183  -0.44133  -0.43863
 Alpha  occ. eigenvalues --   -0.43753  -0.43702  -0.43665  -0.43552  -0.43318
 Alpha  occ. eigenvalues --   -0.43206  -0.43062  -0.42959  -0.42879  -0.42724
 Alpha  occ. eigenvalues --   -0.42586  -0.42246  -0.42179  -0.41861  -0.41696
 Alpha  occ. eigenvalues --   -0.41661  -0.41382  -0.41300  -0.41166  -0.41073
 Alpha  occ. eigenvalues --   -0.40932  -0.40791  -0.40647  -0.40440  -0.40417
 Alpha  occ. eigenvalues --   -0.40385  -0.40061  -0.39971  -0.39777  -0.39048
 Alpha  occ. eigenvalues --   -0.38703  -0.37917  -0.37905  -0.37533  -0.37410
 Alpha  occ. eigenvalues --   -0.37382  -0.36958  -0.36931  -0.36893  -0.36535
 Alpha  occ. eigenvalues --   -0.36402  -0.35841  -0.34437  -0.33992  -0.33963
 Alpha  occ. eigenvalues --   -0.33667  -0.33343  -0.32891  -0.31453  -0.31190
 Alpha  occ. eigenvalues --   -0.30971  -0.30673  -0.30149  -0.29779  -0.29566
 Alpha  occ. eigenvalues --   -0.29444  -0.29077  -0.28977  -0.24233  -0.23750
 Alpha  occ. eigenvalues --   -0.21274  -0.20829
 Alpha virt. eigenvalues --   -0.08907  -0.08524  -0.01905  -0.01370  -0.00170
 Alpha virt. eigenvalues --    0.00233   0.02057   0.02340   0.02564   0.03619
 Alpha virt. eigenvalues --    0.04555   0.04870   0.05023   0.05350   0.05945

 Mulliken charges:
               1
     1  Mg   0.838908
     2  C   -0.003126
     3  C   -0.093317
     4  C   -0.046971
     5  C   -0.064182
     6  N   -0.256606
     7  C   -0.052591
     8  C   -0.014062
     9  C   -0.087144
    10  C    0.046316
    11  C    0.104685
    12  C    0.053350
    13  C   -0.071565
    14  H    0.034401
    15  N   -0.433379
    16  C    0.168843
    17  C   -0.175994
    18  C   -0.003526
    19  C    0.148769
    20  C    0.109716
    21  C    0.011494
    22  O   -0.251050
    23  C    0.062022
    24  N   -0.340895
    25  C    0.041657
    26  C   -0.028532
    27  C   -0.023530
    28  C    0.073798
    29  C    0.076164
    30  C    0.037867
    31  C   -0.011844
    32  N   -0.310606
    33  C    0.080291
    34  C   -0.169356
    35  C    0.008875
    36  C    0.083102
    37  C    0.127206
    38  C    0.046495
    39  O   -0.187741
    40  C   -0.005862
    41  C    0.214317
    42  O   -0.257923
    43  O   -0.304218
    44  C    0.157280
    45  H   -0.016889
    46  H   -0.017470
    47  H   -0.042289
    48  H    0.001132
    49  H   -0.003593
    50  H    0.025571
    51  H    0.016629
    52  H    0.017169
    53  H    0.011733
    54  H    0.042680
    55  H    0.018585
    56  H    0.018642
    57  H    0.006043
    58  H    0.027230
    59  H    0.042317
    60  H    0.037662
    61  H    0.036277
    62  H    0.034530
    63  H    0.014858
    64  H    0.010115
    65  H    0.022886
    66  H    0.013490
    67  H    0.005039
    68  H    0.005406
    69  H    0.004573
    70  H    0.008856
    71  H    0.013918
    72  H    0.034116
    73  H    0.048415
    74  H    0.008122
    75  H    0.046153
    76  H    0.035628
    77  H    0.043915
    78  H    0.046397
    79  H    0.053111
    80  Mg   0.836613
    81  C   -0.017514
    82  C   -0.089013
    83  C   -0.043394
    84  C   -0.065066
    85  N   -0.255037
    86  C   -0.050106
    87  C   -0.015123
    88  C   -0.092130
    89  C    0.045825
    90  C    0.111281
    91  C    0.062654
    92  C   -0.077688
    93  H    0.033688
    94  N   -0.424012
    95  C    0.164335
    96  C   -0.174733
    97  C   -0.006321
    98  C    0.152224
    99  C    0.099490
   100  C    0.016021
   101  O   -0.251055
   102  C    0.061267
   103  N   -0.350436
   104  C    0.040025
   105  C   -0.021967
   106  C   -0.032704
   107  C    0.088875
   108  C    0.073464
   109  C    0.034666
   110  C   -0.007263
   111  N   -0.323739
   112  C    0.078049
   113  C   -0.164513
   114  C    0.001098
   115  C    0.096022
   116  C    0.131879
   117  C    0.040466
   118  O   -0.190549
   119  C    0.001562
   120  C    0.210984
   121  O   -0.251248
   122  O   -0.305481
   123  C    0.152367
   124  H   -0.020208
   125  H   -0.012848
   126  H   -0.042090
   127  H    0.000427
   128  H   -0.005431
   129  H    0.026412
   130  H    0.015659
   131  H    0.018563
   132  H    0.013454
   133  H    0.037184
   134  H    0.021730
   135  H    0.019046
   136  H    0.007563
   137  H    0.025649
   138  H    0.039482
   139  H    0.037904
   140  H    0.036532
   141  H    0.033017
   142  H    0.012479
   143  H    0.011474
   144  H    0.023176
   145  H    0.023849
   146  H    0.009236
   147  H    0.005901
   148  H    0.001439
   149  H    0.011177
   150  H    0.016382
   151  H    0.029701
   152  H    0.045164
   153  H    0.008118
   154  H    0.043614
   155  H    0.033909
   156  H    0.043109
   157  H    0.049871
   158  H    0.053104
 Sum of Mulliken charges =  -0.00000

 Dipole moment (field-independent basis, Debye):
    X=             -2.7759    Y=             -3.8086    Z=              0.7075  Tot=              4.7657
 Quadrupole moment (field-independent basis, Debye-Ang):
   XX=           -534.0247   YY=           -529.7247   ZZ=           -456.8340
   XY=             17.8579   XZ=             54.6214   YZ=            -19.9882

 Normal termination of Gaussian 16 at Fri Sep  3 14:16:29 2021.
