 Gaussian 16, Revision A.03,
 Gaussian 16:  ES64L-G16RevA.03 25-Dec-2016

 -----------------------------------
 #p cam-b3lyp/Def2SVP td=(nstates=5)
 -----------------------------------

 --------------------------------
 TDDFT excited states in gaussian
 --------------------------------
 Symbolic Z-matrix:
 Charge =  0 Multiplicity = 1

                         Standard orientation:
 ---------------------------------------------------------------------
 Center     Atomic      Atomic             Coordinates (Angstroms)
 Number     Number       Type             X           Y           Z
 ---------------------------------------------------------------------
      1         12           0      -15.736445   -0.829857    0.032451
      2          6           0      -15.953094    2.731983    0.312749
      3          6           0      -16.603749   -0.475386   -3.248585
      4          6           0      -15.995510   -3.986427   -0.127479
      5          6           0      -16.006856   -0.971742    3.504109
      6          7           0      -16.192858    0.954135   -1.196249
      7          6           0      -16.182053    2.266379   -0.983953
      8          6           0      -16.362237    3.104231   -2.285073
      9          6           0      -17.108541    2.018139   -3.182532
     10          6           0      -16.577155    0.755315   -2.527682
     11          6           0      -18.626537    2.045903   -3.036186
     12          6           0      -14.992230    3.524988   -2.915767
     13          6           0      -15.074827    4.609688   -3.993708
     14          1           0      -14.002574    5.589099   -4.085230
     15          7           0      -15.747385   -2.036848   -1.531488
     16          6           0      -16.114360   -1.719960   -2.796477
     17          6           0      -15.947878   -2.956023   -3.590903
     18          6           0      -15.635931   -4.065008   -2.647010
     19          6           0      -15.808523   -3.403833   -1.378769
     20          6           0      -16.038023   -2.991827   -5.085675
     21          6           0      -15.254637   -5.496626   -2.854899
     22          8           0      -15.254727   -6.346164   -1.899461
     23          6           0      -14.962634   -5.904038   -4.241186
     24          7           0      -16.188148   -2.291374    1.452863
     25          6           0      -16.176987   -3.590297    1.134026
     26          6           0      -16.248737   -4.453714    2.358486
     27          6           0      -16.065863   -3.470984    3.603697
     28          6           0      -15.998771   -2.127570    2.836230
     29          6           0      -17.541665   -5.262511    2.532251
     30          6           0      -14.931049   -3.806638    4.603674
     31          6           0      -13.587032   -3.624548    3.934674
     32          7           0      -15.766270    0.604379    1.661291
     33          6           0      -15.909686    0.325112    3.028082
     34          6           0      -15.980720    1.620621    3.728568
     35          6           0      -15.889756    2.569712    2.712302
     36          6           0      -15.795927    1.908954    1.454174
     37          6           0      -16.170652    1.802627    5.126864
     38          6           0      -15.874789    3.988374    2.394447
     39          8           0      -15.831173    5.025300    3.058054
     40          6           0      -16.037863    4.150559    0.818716
     41          6           0      -14.993168    5.127245    0.351804
     42          8           0      -13.779778    4.840701    0.406037
     43          8           0      -15.588949    6.137979   -0.299352
     44          6           0      -14.605806    7.127949   -0.814659
     45          1           0      -17.095658   -0.505925   -4.222769
     46          1           0      -15.979344   -5.078294   -0.126271
     47          1           0      -16.006324   -0.937392    4.595105
     48          1           0      -16.989325    3.988865   -2.172802
     49          1           0      -16.793800    2.065747   -4.224834
     50          1           0      -18.937755    2.722489   -2.240387
     51          1           0      -18.914906    1.021552   -2.799454
     52          1           0      -19.103314    2.278896   -3.988643
     53          1           0      -14.602644    2.700018   -3.512180
     54          1           0      -14.291233    3.838780   -2.141516
     55          1           0      -16.045743    5.105849   -3.986300
     56          1           0      -15.025171    4.126111   -4.969356
     57          1           0      -16.441195   -2.062009   -5.484967
     58          1           0      -16.784335   -3.743601   -5.341730
     59          1           0      -15.084694   -3.247744   -5.548279
     60          1           0      -15.838011   -5.716522   -4.863361
     61          1           0      -14.622048   -6.937359   -4.185520
     62          1           0      -14.165876   -5.272063   -4.634547
     63          1           0      -15.447026   -5.191039    2.364591
     64          1           0      -16.961575   -3.425191    4.223598
     65          1           0      -17.377627   -6.336757    2.620522
     66          1           0      -18.197142   -5.034733    1.692156
     67          1           0      -18.159656   -4.960480    3.377403
     68          1           0      -14.995858   -4.848692    4.914910
     69          1           0      -14.953035   -3.190109    5.502373
     70          1           0      -13.445190   -4.569844    3.412057
     71          1           0      -12.807856   -3.470853    4.681984
     72          1           0      -13.620822   -2.837475    3.181109
     73          1           0      -15.475955    2.586013    5.429636
     74          1           0      -15.988694    0.878366    5.674802
     75          1           0      -17.218038    2.103057    5.150962
     76          1           0      -17.048711    4.517850    0.644347
     77          1           0      -14.890768    8.101232   -0.414970
     78          1           0      -14.587879    7.011570   -1.898421
     79          1           0      -13.587696    7.039222   -0.433975
     80         12           0       16.021703   -0.706603    0.116195
     81          6           0       15.186863    2.779236    0.292333
     82          6           0       15.762333   -0.444187   -3.274743
     83          6           0       16.309577   -3.862045   -0.050509
     84          6           0       15.102625   -0.953667    3.468804
     85          7           0       15.532571    1.000326   -1.202668
     86          6           0       15.294124    2.291267   -1.026691
     87          6           0       15.242872    3.120457   -2.337942
     88          6           0       14.863454    1.937664   -3.355740
     89          6           0       15.450892    0.755873   -2.587006
     90          6           0       13.365829    1.720302   -3.494411
     91          6           0       16.629840    3.761905   -2.694112
     92          6           0       16.581749    4.832379   -3.786598
     93          1           0       17.487888    5.972917   -3.683887
     94          7           0       16.512911   -1.872378   -1.412936
     95          6           0       16.359814   -1.600056   -2.725827
     96          6           0       16.854914   -2.785273   -3.442961
     97          6           0       17.159775   -3.844907   -2.443481
     98          6           0       16.641608   -3.227988   -1.238904
     99          6           0       17.072706   -2.805687   -4.928084
    100          6           0       17.798826   -5.195915   -2.555688
    101          8           0       17.747371   -6.046724   -1.598449
    102          6           0       18.405690   -5.528380   -3.852868
    103          7           0       15.548064   -2.237569    1.440640
    104          6           0       15.824428   -3.519350    1.143017
    105          6           0       15.650644   -4.409398    2.350502
    106          6           0       15.432971   -3.418576    3.586819
    107          6           0       15.429455   -2.070480    2.833136
    108          6           0       14.490230   -5.402055    2.283759
    109          6           0       16.389662   -3.585140    4.799116
    110          6           0       17.795330   -3.192473    4.405055
    111          7           0       15.454945    0.673056    1.679323
    112          6           0       15.085147    0.355387    3.004618
    113          6           0       14.674022    1.616003    3.655965
    114          6           0       14.812337    2.583727    2.649546
    115          6           0       15.257571    1.966384    1.449485
    116          6           0       14.198560    1.745854    4.991323
    117          6           0       14.672763    3.985457    2.326473
    118          8           0       14.414317    5.003166    2.967728
    119          6           0       14.787958    4.154665    0.750246
    120          6           0       15.737065    5.288150    0.472902
    121          8           0       16.938919    5.195378    0.778780
    122          8           0       15.119736    6.200858   -0.299255
    123          6           0       16.024470    7.339405   -0.610672
    124          1           0       15.485407   -0.526464   -4.326137
    125          1           0       16.496874   -4.937943   -0.021809
    126          1           0       14.896179   -0.931264    4.540969
    127          1           0       14.479555    3.888994   -2.359856
    128          1           0       15.368622    2.060673   -4.310218
    129          1           0       12.805001    2.320586   -2.793500
    130          1           0       13.202726    0.667244   -3.305946
    131          1           0       13.053960    1.893259   -4.528409
    132          1           0       17.253891    3.010445   -3.194718
    133          1           0       17.101289    4.161358   -1.817302
    134          1           0       15.558079    5.171618   -3.986493
    135          1           0       16.903438    4.381564   -4.728563
    136          1           0       16.604769   -1.941297   -5.415169
    137          1           0       16.523446   -3.668581   -5.319978
    138          1           0       18.126250   -2.905103   -5.197967
    139          1           0       17.649374   -5.466920   -4.631753
    140          1           0       18.888664   -6.496974   -3.709869
    141          1           0       19.162783   -4.772280   -4.088983
    142          1           0       16.540931   -5.000605    2.526493
    143          1           0       14.432821   -3.533501    4.029892
    144          1           0       14.807035   -6.453533    2.418270
    145          1           0       13.986614   -5.275100    1.334648
    146          1           0       13.687537   -5.222777    2.997012
    147          1           0       16.434420   -4.633272    5.105021
    148          1           0       16.090294   -3.008571    5.667994
    149          1           0       18.180729   -4.099321    3.929468
    150          1           0       18.380050   -2.928738    5.284018
    151          1           0       17.784899   -2.401314    3.646357
    152          1           0       14.681369    2.618729    5.410233
    153          1           0       14.410262    0.853853    5.577235
    154          1           0       13.128369    1.870826    4.806024
    155          1           0       13.786458    4.356550    0.368377
    156          1           0       15.512168    8.251644   -0.289654
    157          1           0       16.261282    7.246976   -1.687305
    158          1           0       16.951254    7.410051   -0.053417
 ---------------------------------------------------------------------

 SCF Done:  E(RCAM-B3LYP) =  -4069.81175376     A.U. after   19 cycles

 Excitation energies and oscillator strengths:

 Excited State   1:      Singlet-A      1.6753 eV  740.07 nm  f=0.2171  <S**2>=0.000
     310 -> 316        0.16853
     311 -> 314       -0.16349
     312 -> 313        0.66629
     310 <- 316        0.10160
 This state for optimization and/or second-order correction.
 Total Energy, E(TD-HF/TD-DFT) =  -4069.75018707
 Copying the excited state density for this state as the 1-particle RhoCI density.

 Excited State   2:      Singlet-A      1.6801 eV  737.95 nm  f=0.5605  <S**2>=0.000
     309 -> 315        0.17054
     311 -> 314        0.66592
     312 -> 313        0.16344
     309 <- 315        0.10211

 Excited State   3:      Singlet-A      2.1861 eV  567.15 nm  f=0.0949  <S**2>=0.000
     310 -> 313        0.64208
     312 -> 316       -0.27294

 Excited State   4:      Singlet-A      2.1925 eV  565.49 nm  f=0.1052  <S**2>=0.000
     309 -> 314        0.64030
     311 -> 315       -0.27812

 Excited State   5:      Singlet-A      3.0631 eV  404.77 nm  f=0.0000  <S**2>=0.000
     311 -> 313        0.70710

 The electronic state is 1-A.
 Alpha  occ. eigenvalues --  -46.87786 -46.87660 -19.26346 -19.26271 -19.19158
 Alpha  occ. eigenvalues --  -19.19007 -19.18806 -19.18715 -19.18158 -19.18049
 Alpha  occ. eigenvalues --  -14.42497 -14.42440 -14.41439 -14.41359 -14.39393
 Alpha  occ. eigenvalues --  -14.39352 -14.38599 -14.38576 -10.39088 -10.39067
 Alpha  occ. eigenvalues --  -10.35440 -10.35393 -10.34378 -10.34226 -10.31753
 Alpha  occ. eigenvalues --  -10.31666 -10.31394 -10.31308 -10.31023 -10.30899
 Alpha  occ. eigenvalues --  -10.30559 -10.30497 -10.30397 -10.30360 -10.30197
 Alpha  occ. eigenvalues --  -10.30141 -10.29910 -10.29894 -10.29620 -10.29436
 Alpha  occ. eigenvalues --  -10.29400 -10.29244 -10.28739 -10.28719 -10.28654
 Alpha  occ. eigenvalues --  -10.28529 -10.28404 -10.28354 -10.28140 -10.28107
 Alpha  occ. eigenvalues --  -10.28000 -10.27782 -10.27717 -10.27669 -10.27574
 Alpha  occ. eigenvalues --  -10.27517 -10.27490 -10.27483 -10.27473 -10.27468
 Alpha  occ. eigenvalues --  -10.27465 -10.27439 -10.27393 -10.27375 -10.27147
 Alpha  occ. eigenvalues --  -10.27048 -10.26695 -10.26692 -10.26417 -10.26403
 Alpha  occ. eigenvalues --  -10.26225 -10.26173 -10.26137 -10.26024 -10.26009
 Alpha  occ. eigenvalues --  -10.25933 -10.25847 -10.25831 -10.25426 -10.25397
 Alpha  occ. eigenvalues --  -10.24871 -10.24822 -10.24777 -10.24731 -10.24689
 Alpha  occ. eigenvalues --  -10.24676  -3.16529  -3.16410  -1.91411  -1.91292
 Alpha  occ. eigenvalues --   -1.90997  -1.90881  -1.90839  -1.90718  -1.16641
 Alpha  occ. eigenvalues --   -1.16620  -1.08655  -1.08615  -1.07208  -1.06967
 Alpha  occ. eigenvalues --   -1.06943  -1.06629  -1.04571  -1.04495  -1.03750
 Alpha  occ. eigenvalues --   -1.03663  -1.03223  -1.03038  -1.02401  -1.02111
 Alpha  occ. eigenvalues --   -0.91986  -0.91961  -0.89509  -0.89494  -0.89178
 Alpha  occ. eigenvalues --   -0.89151  -0.88276  -0.88220  -0.87859  -0.87792
 Alpha  occ. eigenvalues --   -0.87683  -0.87663  -0.87265  -0.87121  -0.84999
 Alpha  occ. eigenvalues --   -0.84972  -0.83926  -0.83875  -0.82958  -0.82932
 Alpha  occ. eigenvalues --   -0.82652  -0.82638  -0.81595  -0.81574  -0.80586
 Alpha  occ. eigenvalues --   -0.80442  -0.78787  -0.78635  -0.77208  -0.77144
 Alpha  occ. eigenvalues --   -0.76924  -0.76897  -0.75912  -0.75838  -0.74888
 Alpha  occ. eigenvalues --   -0.74802  -0.72764  -0.72698  -0.71662  -0.71580
 Alpha  occ. eigenvalues --   -0.69896  -0.69757  -0.68863  -0.68827  -0.67631
 Alpha  occ. eigenvalues --   -0.67601  -0.67210  -0.67200  -0.65276  -0.65271
 Alpha  occ. eigenvalues --   -0.64843  -0.64769  -0.64653  -0.64610  -0.64259
 Alpha  occ. eigenvalues --   -0.64203  -0.62286  -0.62277  -0.60432  -0.60340
 Alpha  occ. eigenvalues --   -0.59796  -0.59794  -0.58992  -0.58977  -0.58493
 Alpha  occ. eigenvalues --   -0.58425  -0.57573  -0.57552  -0.57298  -0.57236
 Alpha  occ. eigenvalues --   -0.56299  -0.56203  -0.55967  -0.55885  -0.55510
 Alpha  occ. eigenvalues --   -0.55451  -0.55328  -0.55246  -0.54512  -0.54486
 Alpha  occ. eigenvalues --   -0.53912  -0.53885  -0.53289  -0.53227  -0.53212
 Alpha  occ. eigenvalues --   -0.53141  -0.52904  -0.52901  -0.52747  -0.52669
 Alpha  occ. eigenvalues --   -0.52427  -0.52400  -0.51903  -0.51882  -0.51658
 Alpha  occ. eigenvalues --   -0.51607  -0.51200  -0.51185  -0.50564  -0.50476
 Alpha  occ. eigenvalues --   -0.50021  -0.49980  -0.49909  -0.49867  -0.49505
 Alpha  occ. eigenvalues --   -0.49488  -0.49204  -0.49201  -0.49103  -0.49086
 Alpha  occ. eigenvalues --   -0.48582  -0.48557  -0.48451  -0.48435  -0.48375
 Alpha  occ. eigenvalues --   -0.48339  -0.47685  -0.47594  -0.47287  -0.47118
 Alpha  occ. eigenvalues --   -0.46786  -0.46708  -0.46554  -0.46545  -0.46349
 Alpha  occ. eigenvalues --   -0.46270  -0.46151  -0.46084  -0.45820  -0.45810
 Alpha  occ. eigenvalues --   -0.45208  -0.45191  -0.44567  -0.44513  -0.44497
 Alpha  occ. eigenvalues --   -0.44476  -0.44134  -0.44127  -0.44078  -0.44077
 Alpha  occ. eigenvalues --   -0.44009  -0.43939  -0.43551  -0.43483  -0.43385
 Alpha  occ. eigenvalues --   -0.43375  -0.43016  -0.42929  -0.42900  -0.42687
 Alpha  occ. eigenvalues --   -0.42643  -0.42553  -0.41999  -0.41964  -0.41693
 Alpha  occ. eigenvalues --   -0.41668  -0.41523  -0.41458  -0.41131  -0.40989
 Alpha  occ. eigenvalues --   -0.40859  -0.40814  -0.40723  -0.40698  -0.40561
 Alpha  occ. eigenvalues --   -0.40493  -0.40227  -0.40224  -0.39430  -0.39425
 Alpha  occ. eigenvalues --   -0.38459  -0.38350  -0.37738  -0.37654  -0.37310
 Alpha  occ. eigenvalues --   -0.37265  -0.37253  -0.37199  -0.36769  -0.36701
 Alpha  occ. eigenvalues --   -0.36216  -0.36181  -0.34275  -0.34253  -0.33860
 Alpha  occ. eigenvalues --   -0.33758  -0.33176  -0.33175  -0.31336  -0.31274
 Alpha  occ. eigenvalues --   -0.31025  -0.30972  -0.30017  -0.29953  -0.29439
 Alpha  occ. eigenvalues --   -0.29327  -0.29311  -0.29210  -0.24070  -0.24035
 Alpha  occ. eigenvalues --   -0.21117  -0.21116
 Alpha virt. eigenvalues --   -0.08791  -0.08764  -0.01740  -0.01683  -0.00048
 Alpha virt. eigenvalues --   -0.00029   0.02209   0.02211   0.03134   0.03229
 Alpha virt. eigenvalues --    0.04728   0.04730   0.05111   0.05168   0.06184

 Mulliken charges:
               1
     1  Mg   0.838794
     2  C   -0.002958
     3  C   -0.094126
     4  C   -0.045882
     5  C   -0.063958
     6  N   -0.256786
     7  C   -0.052461
     8  C   -0.014016
     9  C   -0.087002
    10  C    0.046327
    11  C    0.104814
    12  C    0.053470
    13  C   -0.071796
    14  H    0.036144
    15  N   -0.433143
    16  C    0.168419
    17  C   -0.177176
    18  C   -0.004015
    19  C    0.148717
    20  C    0.110186
    21  C    0.012273
    22  O   -0.249638
    23  C    0.062483
    24  N   -0.341174
    25  C    0.041256
    26  C   -0.028182
    27  C   -0.023968
    28  C    0.074857
    29  C    0.076171
    30  C    0.035119
    31  C   -0.004502
    32  N   -0.310473
    33  C    0.080423
    34  C   -0.169682
    35  C    0.008361
    36  C    0.082978
    37  C    0.127305
    38  C    0.046144
    39  O   -0.188398
    40  C   -0.005333
    41  C    0.212877
    42  O   -0.257085
    43  O   -0.304806
    44  C    0.157687
    45  H   -0.017624
    46  H   -0.016850
    47  H   -0.041475
    48  H    0.000943
    49  H   -0.004048
    50  H    0.025478
    51  H    0.016441
    52  H    0.016642
    53  H    0.011194
    54  H    0.044143
    55  H    0.017867
    56  H    0.017926
    57  H    0.005863
    58  H    0.026803
    59  H    0.039524
    60  H    0.037334
    61  H    0.035626
    62  H    0.031490
    63  H    0.016549
    64  H    0.009460
    65  H    0.023200
    66  H    0.012537
    67  H    0.004753
    68  H    0.006359
    69  H    0.004749
    70  H    0.008767
    71  H    0.018172
    72  H    0.028983
    73  H    0.047611
    74  H    0.009123
    75  H    0.046009
    76  H    0.035147
    77  H    0.042963
    78  H    0.046381
    79  H    0.053719
    80  Mg   0.837908
    81  C   -0.016824
    82  C   -0.087788
    83  C   -0.045526
    84  C   -0.064868
    85  N   -0.254563
    86  C   -0.049850
    87  C   -0.015106
    88  C   -0.090490
    89  C    0.045745
    90  C    0.114372
    91  C    0.062526
    92  C   -0.077889
    93  H    0.034909
    94  N   -0.423505
    95  C    0.162908
    96  C   -0.174646
    97  C   -0.007811
    98  C    0.152129
    99  C    0.099384
   100  C    0.015557
   101  O   -0.253185
   102  C    0.061194
   103  N   -0.350063
   104  C    0.037532
   105  C   -0.019847
   106  C   -0.034833
   107  C    0.088937
   108  C    0.073649
   109  C    0.034730
   110  C   -0.007677
   111  N   -0.324129
   112  C    0.078459
   113  C   -0.163102
   114  C    0.002263
   115  C    0.096196
   116  C    0.131483
   117  C    0.042416
   118  O   -0.187795
   119  C    0.000910
   120  C    0.211260
   121  O   -0.251032
   122  O   -0.305613
   123  C    0.152025
   124  H   -0.019677
   125  H   -0.015577
   126  H   -0.040419
   127  H   -0.000618
   128  H   -0.004343
   129  H    0.022503
   130  H    0.014428
   131  H    0.016269
   132  H    0.013907
   133  H    0.037685
   134  H    0.020798
   135  H    0.019572
   136  H    0.008748
   137  H    0.026124
   138  H    0.039782
   139  H    0.038242
   140  H    0.036391
   141  H    0.033897
   142  H    0.014394
   143  H    0.012460
   144  H    0.025137
   145  H    0.011642
   146  H    0.005713
   147  H    0.006274
   148  H    0.003681
   149  H    0.010923
   150  H    0.017942
   151  H    0.030092
   152  H    0.046034
   153  H    0.008527
   154  H    0.047026
   155  H    0.035079
   156  H    0.043953
   157  H    0.049476
   158  H    0.053580
 Sum of Mulliken charges =  -0.00000

 Dipole moment (field-independent basis, Debye):
    X=             -2.9828    Y=             -2.5461    Z=             -8.1027  Tot=              9.0019
 Quadrupole moment (field-independent basis, Debye-Ang):
   XX=           -484.7850   YY=           -549.6652   ZZ=           -449.6014
   XY=              0.6080   XZ=             -5.9294   YZ=            -50.6258

 Normal termination of Gaussian 16 at Sun Sep 12 19:31:34 2021.
