 Gaussian 16, Revision A.03,
 Gaussian 16:  ES64L-G16RevA.03 25-Dec-2016

 -----------------------------------
 #p cam-b3lyp/Def2SVP td=(nstates=5)
 -----------------------------------

 --------------------------------
 TDDFT excited states in gaussian
 --------------------------------
 Symbolic Z-matrix:
 Charge =  0 Multiplicity = 1

                         Standard orientation:
 ---------------------------------------------------------------------
 Center     Atomic      Atomic             Coordinates (Angstroms)
 Number     Number       Type             X           Y           Z
 ---------------------------------------------------------------------
      1         12           0       -7.736974   -1.000339   -0.108870
      2          6           0       -8.058361    2.534564    0.353067
      3          6           0       -8.559779   -0.497265   -3.381938
      4          6           0       -7.904434   -4.149983   -0.437988
      5          6           0       -8.060399   -1.332233    3.345244
      6          7           0       -8.223123    0.832811   -1.250740
      7          6           0       -8.252748    2.131856   -0.970067
      8          6           0       -8.434996    3.031870   -2.228691
      9          6           0       -9.135564    1.974640   -3.194854
     10          6           0       -8.579702    0.694015   -2.597408
     11          6           0      -10.655944    1.953295   -3.074477
     12          6           0       -7.067176    3.522432   -2.811914
     13          6           0       -7.162511    4.659761   -3.833064
     14          1           0       -6.116884    5.671477   -3.854105
     15          7           0       -7.688194   -2.123111   -1.733633
     16          6           0       -8.043068   -1.750135   -2.986725
     17          6           0       -7.828810   -2.937635   -3.841487
     18          6           0       -7.501358   -4.085897   -2.951339
     19          6           0       -7.713343   -3.497400   -1.653606
     20          6           0       -7.893292   -2.897085   -5.337464
     21          6           0       -7.076555   -5.493656   -3.226818
     22          8           0       -7.068466   -6.392035   -2.317190
     23          6           0       -6.750420   -5.819364   -4.627030
     24          7           0       -8.170688   -2.546417    1.224985
     25          6           0       -8.117730   -3.825953    0.839022
     26          6           0       -8.185300   -4.754312    2.015255
     27          6           0       -8.050679   -3.833930    3.313149
     28          6           0       -8.008795   -2.450622    2.618187
     29          6           0       -9.457640   -5.606059    2.123367
     30          6           0       -6.923484   -4.190761    4.314409
     31          6           0       -5.574293   -3.937137    3.680014
     32          7           0       -7.833960    0.344751    1.591828
     33          6           0       -7.991941   -0.009937    2.939386
     34          6           0       -8.110927    1.244453    3.705165
     35          6           0       -8.029992    2.247890    2.741625
     36          6           0       -7.896906    1.657132    1.452601
     37          6           0       -8.328900    1.347300    5.107429
     38          6           0       -8.049725    3.681208    2.498585
     39          8           0       -8.046238    4.682537    3.216096
     40          6           0       -8.191336    3.921678    0.930801
     41          6           0       -7.166997    4.949701    0.534306
     42          8           0       -5.947080    4.693857    0.595236
     43          8           0       -7.780187    5.976730   -0.073765
     44          6           0       -6.816943    7.018886   -0.518990
     45          1           0       -9.034530   -0.489828   -4.365044
     46          1           0       -7.857569   -5.239552   -0.493495
     47          1           0       -8.078794   -1.355405    4.436380
     48          1           0       -9.088496    3.891950   -2.081644
     49          1           0       -8.805172    2.085649   -4.227443
     50          1           0      -10.999138    2.578288   -2.250146
     51          1           0      -10.919228    0.910420   -2.896749
     52          1           0      -11.123345    2.223067   -4.021861
     53          1           0       -6.644763    2.740946   -3.443506
     54          1           0       -6.388130    3.813977   -2.009902
     55          1           0       -8.146996    5.128210   -3.817159
     56          1           0       -7.083211    4.229787   -4.831580
     57          1           0       -8.315844   -1.958849   -5.694829
     58          1           0       -8.613836   -3.654375   -5.645746
     59          1           0       -6.925653   -3.102211   -5.795644
     60          1           0       -7.620366   -5.623247   -5.254150
     61          1           0       -6.381851   -6.844522   -4.619292
     62          1           0       -5.965396   -5.146075   -4.972525
     63          1           0       -7.363366   -5.468822    1.997222
     64          1           0       -8.957409   -3.845275    3.918447
     65          1           0       -9.264910   -6.678596    2.158361
     66          1           0      -10.105349   -5.352279    1.284701
     67          1           0      -10.097716   -5.365918    2.971927
     68          1           0       -6.964056   -5.249144    4.569608
     69          1           0       -6.977604   -3.623262    5.243530
     70          1           0       -5.397320   -4.849372    3.111385
     71          1           0       -4.812159   -3.801857    4.448169
     72          1           0       -5.617810   -3.112670    2.968082
     73          1           0       -7.661603    2.132280    5.463082
     74          1           0       -8.130048    0.400756    5.609539
     75          1           0       -9.384581    1.617400    5.128408
     76          1           0       -9.209114    4.269973    0.757763
     77          1           0       -7.135724    7.961637   -0.074206
     78          1           0       -6.777909    6.960295   -1.606855
     79          1           0       -5.803145    6.937994   -0.125279
     80         12           0        8.135305   -0.505192    0.219259
     81          6           0        6.778304    2.812518    0.393673
     82          6           0        8.394771   -0.060847   -3.152656
     83          6           0        8.908433   -3.572737   -0.025406
     84          6           0        6.730096   -1.095041    3.353451
     85          7           0        7.620842    1.199836   -1.092407
     86          6           0        7.169293    2.431084   -0.906740
     87          6           0        7.210187    3.328844   -2.172410
     88          6           0        7.179833    2.173755   -3.287631
     89          6           0        7.802222    1.037136   -2.479290
     90          6           0        5.773303    1.760618   -3.688035
     91          6           0        8.526691    4.177992   -2.260617
     92          6           0        8.499541    5.300370   -3.300460
     93          1           0        9.198766    6.546258   -2.998242
     94          7           0        9.034967   -1.489594   -1.250477
     95          6           0        9.058852   -1.156138   -2.557969
     96          6           0        9.833186   -2.212115   -3.228397
     97          6           0       10.124358   -3.282174   -2.235963
     98          6           0        9.332073   -2.822750   -1.112878
     99          6           0       10.290081   -2.105368   -4.654324
    100          6           0       10.965242   -4.521465   -2.293118
    101          8           0       10.884862   -5.431749   -1.394359
    102          6           0       11.817184   -4.681472   -3.480581
    103          7           0        7.683616   -2.170000    1.379750
    104          6           0        8.190589   -3.379035    1.081152
    105          6           0        7.955977   -4.361327    2.203848
    106          6           0        7.396583   -3.492856    3.424682
    107          6           0        7.316921   -2.112034    2.737400
    108          6           0        6.981034   -5.498618    1.899824
    109          6           0        8.157442   -3.603978    4.774275
    110          6           0        9.535015   -2.995623    4.641722
    111          7           0        7.124890    0.677896    1.718398
    112          6           0        6.595513    0.226415    2.947223
    113          6           0        5.902696    1.372813    3.570261
    114          6           0        6.058559    2.413870    2.642680
    115          6           0        6.779027    1.943630    1.511614
    116          6           0        5.202618    1.348298    4.809378
    117          6           0        5.768272    3.800811    2.358393
    118          8           0        5.261859    4.728968    2.987518
    119          6           0        6.111920    4.086671    0.833075
    120          6           0        6.915878    5.356295    0.768128
    121          8           0        8.052388    5.411115    1.270076
    122          8           0        6.304557    6.223092   -0.059715
    123          6           0        7.070028    7.493792   -0.165554
    124          1           0        8.307624   -0.112002   -4.238324
    125          1           0        9.245116   -4.611912   -0.009437
    126          1           0        6.351097   -1.171339    4.374829
    127          1           0        6.355754    3.984062   -2.292387
    128          1           0        7.809708    2.427459   -4.136310
    129          1           0        5.023713    2.230509   -3.068796
    130          1           0        5.738774    0.685103   -3.573495
    131          1           0        5.611607    1.955732   -4.752047
    132          1           0        9.327684    3.554408   -2.678107
    133          1           0        8.785241    4.580894   -1.300702
    134          1           0        7.483305    5.506904   -3.657603
    135          1           0        9.032968    4.960784   -4.191614
    136          1           0        9.785295   -1.284221   -5.178064
    137          1           0        9.945123   -3.008627   -5.169102
    138          1           0       11.376467   -2.040152   -4.744766
    139          1           0       11.196839   -4.674717   -4.373669
    140          1           0       12.407923   -5.581095   -3.297341
    141          1           0       12.482732   -3.814066   -3.553115
    142          1           0        8.883107   -4.833760    2.504401
    143          1           0        6.365726   -3.773790    3.685926
    144          1           0        7.423258   -6.502612    2.043031
    145          1           0        6.625251   -5.381058    0.884871
    146          1           0        6.055534   -5.479070    2.472771
    147          1           0        8.305896   -4.653494    5.040035
    148          1           0        7.639139   -3.132269    5.602436
    149          1           0       10.122010   -3.807441    4.201867
    150          1           0        9.923731   -2.711299    5.617478
    151          1           0        9.531533   -2.165796    3.925468
    152          1           0        5.476882    2.250456    5.339843
    153          1           0        5.445417    0.457942    5.385656
    154          1           0        4.170208    1.335693    4.449885
    155          1           0        5.167152    4.172380    0.294908
    156          1           0        6.383543    8.303431    0.100735
    157          1           0        7.489697    7.505380   -1.189023
    158          1           0        7.873212    7.655628    0.543769
 ---------------------------------------------------------------------

 SCF Done:  E(RCAM-B3LYP) =  -4069.81154752     A.U. after   19 cycles

 Excitation energies and oscillator strengths:

 Excited State   1:      Singlet-A      1.6699 eV  742.48 nm  f=0.0530  <S**2>=0.000
     309 -> 315       -0.10515
     310 -> 316        0.13671
     311 -> 313       -0.41704
     312 -> 314        0.54511
 This state for optimization and/or second-order correction.
 Total Energy, E(TD-HF/TD-DFT) =  -4069.75018118
 Copying the excited state density for this state as the 1-particle RhoCI density.

 Excited State   2:      Singlet-A      1.6854 eV  735.62 nm  f=0.7070  <S**2>=0.000
     309 -> 315        0.14049
     310 -> 316        0.10692
     311 -> 313        0.54429
     312 -> 314        0.41652

 Excited State   3:      Singlet-A      2.1856 eV  567.28 nm  f=0.0523  <S**2>=0.000
     309 -> 313        0.15777
     310 -> 314        0.62301
     312 -> 316       -0.26454

 Excited State   4:      Singlet-A      2.1927 eV  565.43 nm  f=0.1405  <S**2>=0.000
     309 -> 313        0.62108
     310 -> 314       -0.15665
     311 -> 315       -0.27004

 Excited State   5:      Singlet-A      2.7748 eV  446.82 nm  f=0.0000  <S**2>=0.000
     312 -> 313        0.70709

 The electronic state is 1-A.
 Alpha  occ. eigenvalues --  -46.87775 -46.87579 -19.26251 -19.26224 -19.19065
 Alpha  occ. eigenvalues --  -19.18957 -19.18805 -19.18647 -19.18127 -19.17939
 Alpha  occ. eigenvalues --  -14.42429 -14.42419 -14.41429 -14.41278 -14.39382
 Alpha  occ. eigenvalues --  -14.39272 -14.38561 -14.38514 -10.39020 -10.38994
 Alpha  occ. eigenvalues --  -10.35440 -10.35326 -10.34347 -10.34116 -10.31665
 Alpha  occ. eigenvalues --  -10.31612 -10.31380 -10.31224 -10.30948 -10.30889
 Alpha  occ. eigenvalues --  -10.30544 -10.30484 -10.30312 -10.30273 -10.30192
 Alpha  occ. eigenvalues --  -10.30067 -10.29897 -10.29809 -10.29608 -10.29359
 Alpha  occ. eigenvalues --  -10.29316 -10.29236 -10.28728 -10.28646 -10.28598
 Alpha  occ. eigenvalues --  -10.28524 -10.28341 -10.28321 -10.28098 -10.28070
 Alpha  occ. eigenvalues --  -10.27912 -10.27767 -10.27707 -10.27592 -10.27564
 Alpha  occ. eigenvalues --  -10.27486 -10.27477 -10.27445 -10.27434 -10.27408
 Alpha  occ. eigenvalues --  -10.27400 -10.27385 -10.27378 -10.27302 -10.27117
 Alpha  occ. eigenvalues --  -10.26944 -10.26686 -10.26628 -10.26413 -10.26363
 Alpha  occ. eigenvalues --  -10.26216 -10.26173 -10.26071 -10.25998 -10.25957
 Alpha  occ. eigenvalues --  -10.25853 -10.25802 -10.25728 -10.25421 -10.25326
 Alpha  occ. eigenvalues --  -10.24804 -10.24780 -10.24767 -10.24680 -10.24667
 Alpha  occ. eigenvalues --  -10.24609  -3.16518  -3.16329  -1.91400  -1.91211
 Alpha  occ. eigenvalues --   -1.90986  -1.90828  -1.90800  -1.90637  -1.16572
 Alpha  occ. eigenvalues --   -1.16546  -1.08582  -1.08543  -1.07207  -1.06900
 Alpha  occ. eigenvalues --   -1.06848  -1.06581  -1.04559  -1.04415  -1.03740
 Alpha  occ. eigenvalues --   -1.03582  -1.03211  -1.02956  -1.02389  -1.02028
 Alpha  occ. eigenvalues --   -0.91943  -0.91897  -0.89501  -0.89416  -0.89168
 Alpha  occ. eigenvalues --   -0.89079  -0.88269  -0.88145  -0.87840  -0.87695
 Alpha  occ. eigenvalues --   -0.87653  -0.87605  -0.87260  -0.87049  -0.84962
 Alpha  occ. eigenvalues --   -0.84926  -0.83917  -0.83800  -0.82958  -0.82866
 Alpha  occ. eigenvalues --   -0.82627  -0.82579  -0.81547  -0.81507  -0.80568
 Alpha  occ. eigenvalues --   -0.80360  -0.78778  -0.78556  -0.77198  -0.77068
 Alpha  occ. eigenvalues --   -0.76908  -0.76820  -0.75894  -0.75757  -0.74877
 Alpha  occ. eigenvalues --   -0.74725  -0.72750  -0.72614  -0.71649  -0.71501
 Alpha  occ. eigenvalues --   -0.69892  -0.69686  -0.68853  -0.68752  -0.67617
 Alpha  occ. eigenvalues --   -0.67520  -0.67203  -0.67131  -0.65263  -0.65194
 Alpha  occ. eigenvalues --   -0.64826  -0.64688  -0.64595  -0.64573  -0.64250
 Alpha  occ. eigenvalues --   -0.64126  -0.62255  -0.62189  -0.60426  -0.60265
 Alpha  occ. eigenvalues --   -0.59783  -0.59719  -0.58963  -0.58910  -0.58477
 Alpha  occ. eigenvalues --   -0.58341  -0.57544  -0.57455  -0.57284  -0.57155
 Alpha  occ. eigenvalues --   -0.56285  -0.56120  -0.55936  -0.55801  -0.55500
 Alpha  occ. eigenvalues --   -0.55373  -0.55311  -0.55165  -0.54489  -0.54405
 Alpha  occ. eigenvalues --   -0.53874  -0.53840  -0.53278  -0.53200  -0.53148
 Alpha  occ. eigenvalues --   -0.53064  -0.52883  -0.52822  -0.52743  -0.52603
 Alpha  occ. eigenvalues --   -0.52421  -0.52329  -0.51879  -0.51775  -0.51595
 Alpha  occ. eigenvalues --   -0.51586  -0.51167  -0.51112  -0.50567  -0.50413
 Alpha  occ. eigenvalues --   -0.50017  -0.49909  -0.49904  -0.49794  -0.49495
 Alpha  occ. eigenvalues --   -0.49415  -0.49187  -0.49120  -0.49072  -0.49019
 Alpha  occ. eigenvalues --   -0.48560  -0.48473  -0.48445  -0.48419  -0.48295
 Alpha  occ. eigenvalues --   -0.48262  -0.47674  -0.47519  -0.47276  -0.47043
 Alpha  occ. eigenvalues --   -0.46775  -0.46631  -0.46534  -0.46482  -0.46335
 Alpha  occ. eigenvalues --   -0.46190  -0.46133  -0.45998  -0.45784  -0.45727
 Alpha  occ. eigenvalues --   -0.45183  -0.45132  -0.44544  -0.44492  -0.44430
 Alpha  occ. eigenvalues --   -0.44398  -0.44125  -0.44069  -0.44047  -0.44002
 Alpha  occ. eigenvalues --   -0.43991  -0.43859  -0.43467  -0.43456  -0.43366
 Alpha  occ. eigenvalues --   -0.43305  -0.43001  -0.42844  -0.42809  -0.42668
 Alpha  occ. eigenvalues --   -0.42616  -0.42480  -0.41988  -0.41890  -0.41676
 Alpha  occ. eigenvalues --   -0.41579  -0.41514  -0.41386  -0.41119  -0.40911
 Alpha  occ. eigenvalues --   -0.40852  -0.40813  -0.40655  -0.40629  -0.40552
 Alpha  occ. eigenvalues --   -0.40417  -0.40217  -0.40162  -0.39428  -0.39355
 Alpha  occ. eigenvalues --   -0.38452  -0.38277  -0.37728  -0.37584  -0.37302
 Alpha  occ. eigenvalues --   -0.37241  -0.37189  -0.37123  -0.36680  -0.36668
 Alpha  occ. eigenvalues --   -0.36159  -0.36136  -0.34262  -0.34170  -0.33769
 Alpha  occ. eigenvalues --   -0.33715  -0.33160  -0.33093  -0.31335  -0.31206
 Alpha  occ. eigenvalues --   -0.31012  -0.30892  -0.29985  -0.29842  -0.29429
 Alpha  occ. eigenvalues --   -0.29294  -0.29246  -0.29118  -0.24057  -0.23953
 Alpha  occ. eigenvalues --   -0.21106  -0.21035
 Alpha virt. eigenvalues --   -0.08752  -0.08708  -0.01730  -0.01605  -0.00040
 Alpha virt. eigenvalues --    0.00048   0.02232   0.02304   0.03143   0.03299
 Alpha virt. eigenvalues --    0.04738   0.04805   0.05153   0.05262   0.06198

 Mulliken charges:
               1
     1  Mg   0.838753
     2  C   -0.002843
     3  C   -0.094245
     4  C   -0.045930
     5  C   -0.063964
     6  N   -0.256770
     7  C   -0.052450
     8  C   -0.013978
     9  C   -0.086970
    10  C    0.046261
    11  C    0.104833
    12  C    0.053514
    13  C   -0.071721
    14  H    0.036148
    15  N   -0.433106
    16  C    0.168315
    17  C   -0.177322
    18  C   -0.004134
    19  C    0.148640
    20  C    0.110237
    21  C    0.012177
    22  O   -0.249729
    23  C    0.062540
    24  N   -0.341132
    25  C    0.041172
    26  C   -0.028138
    27  C   -0.023975
    28  C    0.074845
    29  C    0.076194
    30  C    0.035133
    31  C   -0.004473
    32  N   -0.310568
    33  C    0.080540
    34  C   -0.169486
    35  C    0.008552
    36  C    0.083128
    37  C    0.127225
    38  C    0.046427
    39  O   -0.187887
    40  C   -0.005472
    41  C    0.212947
    42  O   -0.256670
    43  O   -0.304948
    44  C    0.157495
    45  H   -0.017752
    46  H   -0.016952
    47  H   -0.041408
    48  H    0.001022
    49  H   -0.004227
    50  H    0.025528
    51  H    0.016423
    52  H    0.016540
    53  H    0.010949
    54  H    0.044400
    55  H    0.017912
    56  H    0.017636
    57  H    0.005758
    58  H    0.026730
    59  H    0.039189
    60  H    0.037321
    61  H    0.035519
    62  H    0.031263
    63  H    0.016423
    64  H    0.009496
    65  H    0.023121
    66  H    0.012544
    67  H    0.004749
    68  H    0.006266
    69  H    0.004841
    70  H    0.008612
    71  H    0.018034
    72  H    0.029107
    73  H    0.048070
    74  H    0.009109
    75  H    0.046016
    76  H    0.035116
    77  H    0.043104
    78  H    0.046083
    79  H    0.054295
    80  Mg   0.837747
    81  C   -0.016751
    82  C   -0.087893
    83  C   -0.045583
    84  C   -0.064788
    85  N   -0.254511
    86  C   -0.049738
    87  C   -0.015091
    88  C   -0.090526
    89  C    0.045712
    90  C    0.114387
    91  C    0.062584
    92  C   -0.077753
    93  H    0.034770
    94  N   -0.423436
    95  C    0.162791
    96  C   -0.174856
    97  C   -0.007959
    98  C    0.152022
    99  C    0.099472
   100  C    0.015423
   101  O   -0.253368
   102  C    0.061262
   103  N   -0.350030
   104  C    0.037458
   105  C   -0.019789
   106  C   -0.034853
   107  C    0.089029
   108  C    0.073688
   109  C    0.034734
   110  C   -0.007643
   111  N   -0.324225
   112  C    0.078578
   113  C   -0.162891
   114  C    0.002657
   115  C    0.096150
   116  C    0.131444
   117  C    0.042869
   118  O   -0.186911
   119  C    0.000752
   120  C    0.211288
   121  O   -0.251220
   122  O   -0.305455
   123  C    0.152067
   124  H   -0.020027
   125  H   -0.015739
   126  H   -0.040320
   127  H   -0.000464
   128  H   -0.004620
   129  H    0.022926
   130  H    0.014363
   131  H    0.015745
   132  H    0.013805
   133  H    0.037740
   134  H    0.020733
   135  H    0.019348
   136  H    0.008522
   137  H    0.025824
   138  H    0.039556
   139  H    0.038093
   140  H    0.036194
   141  H    0.033810
   142  H    0.014243
   143  H    0.012540
   144  H    0.024946
   145  H    0.011655
   146  H    0.005731
   147  H    0.006123
   148  H    0.003712
   149  H    0.010827
   150  H    0.017857
   151  H    0.030162
   152  H    0.046167
   153  H    0.008285
   154  H    0.048078
   155  H    0.035778
   156  H    0.044137
   157  H    0.049171
   158  H    0.053485
 Sum of Mulliken charges =  -0.00000

 Dipole moment (field-independent basis, Debye):
    X=             -2.0728    Y=             -2.0863    Z=             -8.1871  Tot=              8.6993
 Quadrupole moment (field-independent basis, Debye-Ang):
   XX=           -491.3509   YY=           -541.9577   ZZ=           -456.6208
   XY=              9.0417   XZ=             -5.7627   YZ=            -54.6622

 Normal termination of Gaussian 16 at Sun Sep 12 05:17:00 2021.
