 Gaussian 16, Revision A.03,
 Gaussian 16:  ES64L-G16RevA.03 25-Dec-2016

 -----------------------------------
 #p cam-b3lyp/Def2SVP td=(nstates=5)
 -----------------------------------

 --------------------------------
 TDDFT excited states in gaussian
 --------------------------------
 Symbolic Z-matrix:
 Charge =  0 Multiplicity = 1

                         Standard orientation:
 ---------------------------------------------------------------------
 Center     Atomic      Atomic             Coordinates (Angstroms)
 Number     Number       Type             X           Y           Z
 ---------------------------------------------------------------------
      1         12           0       -4.368415    0.478963   -0.804050
      2          6           0       -4.694492   -2.741734    0.723366
      3          6           0       -5.800991    1.789834    2.001732
      4          6           0       -4.508162    3.266577   -2.309473
      5          6           0       -4.032396   -1.166658   -3.857684
      6          7           0       -5.109047   -0.459066    1.059337
      7          6           0       -5.121287   -1.696333    1.545332
      8          6           0       -5.559743   -1.769248    3.038588
      9          6           0       -6.399123   -0.416224    3.120834
     10          6           0       -5.706731    0.366512    2.019089
     11          6           0       -7.869171   -0.587842    2.752043
     12          6           0       -4.338718   -1.746406    4.018541
     13          6           0       -4.653996   -2.140042    5.464571
     14          1           0       -3.658725   -2.885459    6.220308
     15          7           0       -4.593003    2.308725   -0.093850
     16          6           0       -5.185544    2.657282    1.073493
     17          6           0       -5.102166    4.131764    1.148549
     18          6           0       -4.583083    4.625215   -0.157266
     19          6           0       -4.565189    3.406212   -0.924787
     20          6           0       -5.445761    4.913750    2.379074
     21          6           0       -4.178816    5.982139   -0.640441
     22          8           0       -3.976563    6.231088   -1.878057
     23          6           0       -4.110919    7.047991    0.375625
     24          7           0       -4.503162    0.998175   -2.821449
     25          6           0       -4.488190    2.278884   -3.206863
     26          6           0       -4.309668    2.400333   -4.691221
     27          6           0       -3.960433    0.933219   -5.215973
     28          6           0       -4.086811    0.167046   -3.876093
     29          6           0       -5.515710    2.946479   -5.467880
     30          6           0       -2.656866    0.772072   -6.037657
     31          6           0       -1.457207    1.018624   -5.150456
     32          7           0       -4.183077   -1.581353   -1.461157
     33          6           0       -4.077060   -2.038565   -2.782669
     34          6           0       -4.085310   -3.512141   -2.731932
     35          6           0       -4.213069   -3.811695   -1.377019
     36          6           0       -4.306760   -2.601989   -0.631280
     37          6           0       -4.040510   -4.384920   -3.854733
     38          6           0       -4.316994   -4.872478   -0.388183
     39          8           0       -4.207057   -6.099079   -0.417472
     40          6           0       -4.755200   -4.223680    0.998491
     41          6           0       -3.851344   -4.778350    2.065587
     42          8           0       -2.634954   -4.499970    2.081896
     43          8           0       -4.595083   -5.348906    3.025722
     44          6           0       -3.760705   -5.893549    4.129955
     45          1           0       -6.450880    2.284644    2.726127
     46          1           0       -4.442703    4.207388   -2.859953
     47          1           0       -3.846212   -1.747659   -4.762795
     48          1           0       -6.197593   -2.618559    3.284031
     49          1           0       -6.270385    0.084872    4.080028
     50          1           0       -8.069469   -1.588062    2.368166
     51          1           0       -8.066049    0.160968    1.984570
     52          1           0       -8.512350   -0.330310    3.593931
     53          1           0       -4.020376   -0.715325    4.172141
     54          1           0       -3.530168   -2.374025    3.642155
     55          1           0       -5.630654   -2.618385    5.543534
     56          1           0       -4.750693   -1.227900    6.053508
     57          1           0       -5.953072    4.294954    3.118176
     58          1           0       -6.190194    5.654568    2.088013
     59          1           0       -4.575377    5.414344    2.803538
     60          1           0       -5.087641    7.158403    0.847188
     61          1           0       -3.719489    7.926597   -0.135926
     62          1           0       -3.422865    6.741070    1.163871
     63          1           0       -3.486312    3.071388   -4.932461
     64          1           0       -4.737627    0.536940   -5.869889
     65          1           0       -5.290581    3.835286   -6.057833
     66          1           0       -6.315236    3.143031   -4.754146
     67          1           0       -5.992517    2.229090   -6.135283
     68          1           0       -2.620148    1.509335   -6.838932
     69          1           0       -2.552151   -0.214370   -6.489560
     70          1           0       -1.364576    2.104031   -5.162397
     71          1           0       -0.569105    0.546341   -5.571686
     72          1           0       -1.655338    0.719808   -4.120922
     73          1           0       -3.340285   -5.179093   -3.595999
     74          1           0       -3.725646   -3.856789   -4.754478
     75          1           0       -5.080716   -4.706791   -3.901925
     76          1           0       -5.796527   -4.501064    1.159177
     77          1           0       -4.016544   -6.947885    4.235576
     78          1           0       -3.923774   -5.244640    4.990612
     79          1           0       -2.689419   -5.960074    3.936927
     80         12           0        4.494170    0.868113    0.732678
     81          6           0        4.774711   -2.040387   -1.350816
     82          6           0        3.272977   -1.180268    3.171414
     83          6           0        3.813589    3.460462    2.430910
     84          6           0        4.638761    2.790916   -2.170363
     85          7           0        4.119483   -1.311154    0.784119
     86          6           0        4.322137   -2.323732   -0.045320
     87          6           0        4.099570   -3.725135    0.584049
     88          6           0        3.103798   -3.300614    1.770259
     89          6           0        3.543766   -1.849263    1.951081
     90          6           0        1.640699   -3.308552    1.359639
     91          6           0        5.427195   -4.346860    1.143394
     92          6           0        5.343884   -5.834735    1.491319
     93          1           0        6.519489   -6.670069    1.261915
     94          7           0        4.133114    1.073941    2.673259
     95          6           0        3.660641    0.132896    3.517337
     96          6           0        3.551437    0.788108    4.829944
     97          6           0        3.841641    2.237379    4.656376
     98          6           0        3.922071    2.318936    3.211744
     99          6           0        3.279045    0.030952    6.097203
    100          6           0        4.005365    3.365893    5.628924
    101          8           0        4.018027    4.588819    5.245374
    102          6           0        4.056651    3.002266    7.052520
    103          7           0        4.046898    2.826763    0.197900
    104          6           0        3.843188    3.769773    1.134468
    105          6           0        3.812043    5.149546    0.521553
    106          6           0        4.280378    4.956491   -0.995343
    107          6           0        4.421678    3.418737   -1.022807
    108          6           0        2.458720    5.859548    0.549638
    109          6           0        5.480153    5.817709   -1.476510
    110          6           0        6.742759    5.386860   -0.765454
    111          7           0        4.857626    0.494276   -1.364031
    112          6           0        4.846883    1.439230   -2.413331
    113          6           0        5.032952    0.692005   -3.674063
    114          6           0        5.116660   -0.648847   -3.269580
    115          6           0        4.971377   -0.733350   -1.858464
    116          6           0        5.055663    1.256988   -4.980361
    117          6           0        5.284268   -2.012967   -3.716535
    118          8           0        5.537197   -2.548968   -4.794711
    119          6           0        4.943774   -2.986466   -2.507091
    120          6           0        6.037580   -4.015026   -2.416625
    121          8           0        7.197214   -3.679831   -2.117496
    122          8           0        5.493569   -5.243821   -2.483632
    123          6           0        6.537896   -6.298274   -2.387049
    124          1           0        2.669936   -1.692871    3.921389
    125          1           0        3.689119    4.396932    2.979551
    126          1           0        4.792944    3.327225   -3.109124
    127          1           0        3.616999   -4.444084   -0.067112
    128          1           0        3.298375   -3.873356    2.673298
    129          1           0        1.520294   -3.484715    0.301054
    130          1           0        1.254763   -2.333627    1.627254
    131          1           0        1.083366   -4.029696    1.964357
    132          1           0        5.624923   -3.931650    2.140016
    133          1           0        6.241522   -4.179304    0.465591
    134          1           0        4.448480   -6.307189    1.069424
    135          1           0        5.214164   -5.931680    2.571960
    136          1           0        2.946017   -0.993535    5.890000
    137          1           0        2.415034    0.506178    6.574193
    138          1           0        4.122315    0.053331    6.790783
    139          1           0        3.144476    2.476244    7.323970
    140          1           0        4.266367    3.932350    7.584333
    141          1           0        4.882765    2.298618    7.204329
    142          1           0        4.507951    5.811119    1.022702
    143          1           0        3.479239    5.211164   -1.704680
    144          1           0        2.491695    6.841963    1.057434
    145          1           0        1.741029    5.207412    1.029402
    146          1           0        2.004095    6.025767   -0.425490
    147          1           0        5.320866    6.867334   -1.217541
    148          1           0        5.642731    5.771506   -2.548155
    149          1           0        6.688022    5.927665    0.184084
    150          1           0        7.622243    5.678789   -1.335827
    151          1           0        6.719199    4.315152   -0.536263
    152          1           0        5.870648    0.782534   -5.510644
    153          1           0        5.179358    2.337343   -4.944174
    154          1           0        4.062218    0.969203   -5.334633
    155          1           0        3.972883   -3.438429   -2.713677
    156          1           0        6.430713   -6.935915   -3.270001
    157          1           0        6.390119   -6.775580   -1.400082
    158          1           0        7.572674   -5.988330   -2.474347
 ---------------------------------------------------------------------

 SCF Done:  E(RCAM-B3LYP) =  -4069.81304948     A.U. after   19 cycles

 Excitation energies and oscillator strengths:

 Excited State   1:      Singlet-A      1.6602 eV  746.80 nm  f=0.1708  <S**2>=0.000
     309 -> 315       -0.10527
     310 -> 316        0.13233
     311 -> 313       -0.42451
     312 -> 314        0.53995
 This state for optimization and/or second-order correction.
 Total Energy, E(TD-HF/TD-DFT) =  -4069.75203796
 Copying the excited state density for this state as the 1-particle RhoCI density.

 Excited State   2:      Singlet-A      1.6863 eV  735.25 nm  f=0.5104  <S**2>=0.000
     309 -> 315        0.13971
     310 -> 316        0.10746
     311 -> 313        0.53840
     312 -> 314        0.42331

 Excited State   3:      Singlet-A      2.1813 eV  568.40 nm  f=0.0729  <S**2>=0.000
     309 -> 313       -0.20714
     310 -> 314        0.60997
     312 -> 316       -0.25285

 Excited State   4:      Singlet-A      2.1949 eV  564.87 nm  f=0.1182  <S**2>=0.000
     309 -> 313        0.60611
     310 -> 314        0.20455
     311 -> 315       -0.26523

 Excited State   5:      Singlet-A      2.3261 eV  533.00 nm  f=0.0000  <S**2>=0.000
     312 -> 313        0.70708

 The electronic state is 1-A.
 Alpha  occ. eigenvalues --  -46.87937 -46.87394 -19.26674 -19.26051 -19.19461
 Alpha  occ. eigenvalues --  -19.18930 -19.18880 -19.18572 -19.18369 -19.17816
 Alpha  occ. eigenvalues --  -14.42601 -14.42176 -14.41581 -14.41103 -14.39539
 Alpha  occ. eigenvalues --  -14.39099 -14.38735 -14.38342 -10.39481 -10.38806
 Alpha  occ. eigenvalues --  -10.35559 -10.35255 -10.34597 -10.33985 -10.32099
 Alpha  occ. eigenvalues --  -10.31570 -10.31466 -10.31077 -10.30951 -10.30719
 Alpha  occ. eigenvalues --  -10.30698 -10.30646 -10.30314 -10.30167 -10.30097
 Alpha  occ. eigenvalues --  -10.30052 -10.29902 -10.29769 -10.29663 -10.29377
 Alpha  occ. eigenvalues --  -10.29191 -10.29179 -10.28972 -10.28868 -10.28522
 Alpha  occ. eigenvalues --  -10.28306 -10.28252 -10.28224 -10.28139 -10.27933
 Alpha  occ. eigenvalues --  -10.27869 -10.27760 -10.27717 -10.27573 -10.27572
 Alpha  occ. eigenvalues --  -10.27571 -10.27537 -10.27514 -10.27404 -10.27340
 Alpha  occ. eigenvalues --  -10.27313 -10.27297 -10.27254 -10.27197 -10.27189
 Alpha  occ. eigenvalues --  -10.27005 -10.26761 -10.26485 -10.26399 -10.26331
 Alpha  occ. eigenvalues --  -10.26289 -10.26211 -10.26136 -10.25964 -10.25942
 Alpha  occ. eigenvalues --  -10.25690 -10.25682 -10.25513 -10.25240 -10.24985
 Alpha  occ. eigenvalues --  -10.24959 -10.24925 -10.24707 -10.24631 -10.24571
 Alpha  occ. eigenvalues --  -10.24454  -3.16680  -3.16144  -1.91561  -1.91148
 Alpha  occ. eigenvalues --   -1.91026  -1.90990  -1.90614  -1.90452  -1.17026
 Alpha  occ. eigenvalues --   -1.16349  -1.08843  -1.08421  -1.07330  -1.07052
 Alpha  occ. eigenvalues --   -1.06831  -1.06665  -1.04738  -1.04178  -1.03897
 Alpha  occ. eigenvalues --   -1.03390  -1.03372  -1.02791  -1.02551  -1.01852
 Alpha  occ. eigenvalues --   -0.92153  -0.91705  -0.89629  -0.89389  -0.89266
 Alpha  occ. eigenvalues --   -0.88634  -0.88391  -0.88004  -0.88002  -0.87829
 Alpha  occ. eigenvalues --   -0.87565  -0.87390  -0.87375  -0.86933  -0.85178
 Alpha  occ. eigenvalues --   -0.84596  -0.84046  -0.83673  -0.83069  -0.82834
 Alpha  occ. eigenvalues --   -0.82775  -0.82289  -0.81830  -0.81312  -0.80781
 Alpha  occ. eigenvalues --   -0.80170  -0.78921  -0.78415  -0.77367  -0.77139
 Alpha  occ. eigenvalues --   -0.76860  -0.76529  -0.76122  -0.75404  -0.75023
 Alpha  occ. eigenvalues --   -0.74556  -0.72910  -0.72432  -0.71827  -0.71238
 Alpha  occ. eigenvalues --   -0.69984  -0.69544  -0.69056  -0.68452  -0.67803
 Alpha  occ. eigenvalues --   -0.67422  -0.67358  -0.66878  -0.65490  -0.65042
 Alpha  occ. eigenvalues --   -0.64896  -0.64797  -0.64491  -0.64385  -0.64330
 Alpha  occ. eigenvalues --   -0.63966  -0.62558  -0.62005  -0.60559  -0.60138
 Alpha  occ. eigenvalues --   -0.59985  -0.59382  -0.59144  -0.58720  -0.58670
 Alpha  occ. eigenvalues --   -0.58161  -0.57839  -0.57451  -0.57282  -0.57013
 Alpha  occ. eigenvalues --   -0.56480  -0.56256  -0.55951  -0.55673  -0.55594
 Alpha  occ. eigenvalues --   -0.55509  -0.55202  -0.55014  -0.54729  -0.54243
 Alpha  occ. eigenvalues --   -0.54105  -0.53441  -0.53433  -0.53403  -0.53141
 Alpha  occ. eigenvalues --   -0.52995  -0.52894  -0.52856  -0.52624  -0.52511
 Alpha  occ. eigenvalues --   -0.52341  -0.52203  -0.52050  -0.51812  -0.51683
 Alpha  occ. eigenvalues --   -0.51367  -0.51307  -0.50925  -0.50666  -0.50301
 Alpha  occ. eigenvalues --   -0.50138  -0.50045  -0.49724  -0.49691  -0.49610
 Alpha  occ. eigenvalues --   -0.49393  -0.49285  -0.49160  -0.48916  -0.48806
 Alpha  occ. eigenvalues --   -0.48632  -0.48622  -0.48568  -0.48215  -0.48172
 Alpha  occ. eigenvalues --   -0.48097  -0.47854  -0.47441  -0.47287  -0.46943
 Alpha  occ. eigenvalues --   -0.46882  -0.46762  -0.46513  -0.46420  -0.46317
 Alpha  occ. eigenvalues --   -0.46122  -0.46029  -0.46023  -0.45850  -0.45522
 Alpha  occ. eigenvalues --   -0.45315  -0.44982  -0.44772  -0.44652  -0.44308
 Alpha  occ. eigenvalues --   -0.44262  -0.44245  -0.44182  -0.44156  -0.43868
 Alpha  occ. eigenvalues --   -0.43725  -0.43706  -0.43641  -0.43549  -0.43267
 Alpha  occ. eigenvalues --   -0.43189  -0.43038  -0.43009  -0.42760  -0.42649
 Alpha  occ. eigenvalues --   -0.42610  -0.42340  -0.42152  -0.41873  -0.41724
 Alpha  occ. eigenvalues --   -0.41700  -0.41383  -0.41299  -0.41101  -0.41043
 Alpha  occ. eigenvalues --   -0.40964  -0.40683  -0.40631  -0.40505  -0.40472
 Alpha  occ. eigenvalues --   -0.40359  -0.40124  -0.39833  -0.39512  -0.39221
 Alpha  occ. eigenvalues --   -0.38591  -0.38095  -0.37989  -0.37459  -0.37441
 Alpha  occ. eigenvalues --   -0.37304  -0.37035  -0.36996  -0.36833  -0.36499
 Alpha  occ. eigenvalues --   -0.36385  -0.35937  -0.34439  -0.34150  -0.33975
 Alpha  occ. eigenvalues --   -0.33587  -0.33343  -0.32913  -0.31462  -0.31190
 Alpha  occ. eigenvalues --   -0.31128  -0.30690  -0.30235  -0.29715  -0.29584
 Alpha  occ. eigenvalues --   -0.29468  -0.29113  -0.28977  -0.24230  -0.23764
 Alpha  occ. eigenvalues --   -0.21266  -0.20846
 Alpha virt. eigenvalues --   -0.08914  -0.08546  -0.01885  -0.01429  -0.00199
 Alpha virt. eigenvalues --    0.00212   0.02036   0.02430   0.02836   0.03528
 Alpha virt. eigenvalues --    0.04533   0.04734   0.05089   0.05450   0.05902

 Mulliken charges:
               1
     1  Mg   0.838938
     2  C   -0.004213
     3  C   -0.094124
     4  C   -0.045655
     5  C   -0.063193
     6  N   -0.256824
     7  C   -0.052793
     8  C   -0.014057
     9  C   -0.087019
    10  C    0.046208
    11  C    0.104704
    12  C    0.053623
    13  C   -0.071175
    14  H    0.033054
    15  N   -0.433247
    16  C    0.168756
    17  C   -0.176580
    18  C   -0.003557
    19  C    0.148844
    20  C    0.109932
    21  C    0.012263
    22  O   -0.249720
    23  C    0.062165
    24  N   -0.341124
    25  C    0.041577
    26  C   -0.028271
    27  C   -0.024049
    28  C    0.074699
    29  C    0.076091
    30  C    0.034945
    31  C   -0.004744
    32  N   -0.310291
    33  C    0.080027
    34  C   -0.169600
    35  C    0.007839
    36  C    0.082501
    37  C    0.127394
    38  C    0.045147
    39  O   -0.189129
    40  C   -0.005208
    41  C    0.214065
    42  O   -0.260652
    43  O   -0.303608
    44  C    0.158297
    45  H   -0.017350
    46  H   -0.016582
    47  H   -0.040541
    48  H    0.000871
    49  H   -0.004055
    50  H    0.025539
    51  H    0.016950
    52  H    0.016939
    53  H    0.011563
    54  H    0.041618
    55  H    0.018827
    56  H    0.018627
    57  H    0.005839
    58  H    0.027123
    59  H    0.040855
    60  H    0.037596
    61  H    0.035699
    62  H    0.032609
    63  H    0.016546
    64  H    0.009824
    65  H    0.023416
    66  H    0.012487
    67  H    0.005172
    68  H    0.006593
    69  H    0.005876
    70  H    0.007812
    71  H    0.019827
    72  H    0.028884
    73  H    0.047307
    74  H    0.010323
    75  H    0.046174
    76  H    0.035726
    77  H    0.043892
    78  H    0.046754
    79  H    0.050556
    80  Mg   0.837224
    81  C   -0.016949
    82  C   -0.087445
    83  C   -0.046776
    84  C   -0.065357
    85  N   -0.255226
    86  C   -0.048218
    87  C   -0.015372
    88  C   -0.090723
    89  C    0.046307
    90  C    0.115150
    91  C    0.062358
    92  C   -0.077466
    93  H    0.032683
    94  N   -0.423474
    95  C    0.162974
    96  C   -0.174943
    97  C   -0.008955
    98  C    0.152468
    99  C    0.099765
   100  C    0.014709
   101  O   -0.254365
   102  C    0.061504
   103  N   -0.350284
   104  C    0.037702
   105  C   -0.019760
   106  C   -0.034868
   107  C    0.088988
   108  C    0.073394
   109  C    0.034918
   110  C   -0.007525
   111  N   -0.324055
   112  C    0.078540
   113  C   -0.163870
   114  C    0.002041
   115  C    0.096162
   116  C    0.131657
   117  C    0.041640
   118  O   -0.188836
   119  C    0.001351
   120  C    0.211146
   121  O   -0.251652
   122  O   -0.304848
   123  C    0.152374
   124  H   -0.017819
   125  H   -0.017039
   126  H   -0.041185
   127  H    0.001510
   128  H   -0.005919
   129  H    0.023655
   130  H    0.013213
   131  H    0.029060
   132  H    0.012774
   133  H    0.036386
   134  H    0.023217
   135  H    0.019066
   136  H    0.009400
   137  H    0.024339
   138  H    0.039015
   139  H    0.037251
   140  H    0.035359
   141  H    0.034079
   142  H    0.013668
   143  H    0.013043
   144  H    0.023525
   145  H    0.010274
   146  H    0.007887
   147  H    0.005770
   148  H    0.003427
   149  H    0.010469
   150  H    0.017404
   151  H    0.030406
   152  H    0.045521
   153  H    0.008206
   154  H    0.045533
   155  H    0.036491
   156  H    0.043451
   157  H    0.050182
   158  H    0.052752
 Sum of Mulliken charges =  -0.00000

 Dipole moment (field-independent basis, Debye):
    X=             -5.5414    Y=              1.5780    Z=              5.6546  Tot=              8.0729
 Quadrupole moment (field-independent basis, Debye-Ang):
   XX=           -518.2775   YY=           -523.8473   ZZ=           -477.0638
   XY=            -10.8005   XZ=             -0.7249   YZ=            -24.9738

 Normal termination of Gaussian 16 at Fri Sep 10 06:35:07 2021.
