 Gaussian 16, Revision A.03,
 Gaussian 16:  ES64L-G16RevA.03 25-Dec-2016

 -----------------------------------
 #p cam-b3lyp/Def2SVP td=(nstates=5)
 -----------------------------------

 --------------------------------
 TDDFT excited states in gaussian
 --------------------------------
 Symbolic Z-matrix:
 Charge =  0 Multiplicity = 1

                         Standard orientation:
 ---------------------------------------------------------------------
 Center     Atomic      Atomic             Coordinates (Angstroms)
 Number     Number       Type             X           Y           Z
 ---------------------------------------------------------------------
      1         12           0        5.150216    0.794588    0.516629
      2          6           0        5.799111   -2.006957   -1.614684
      3          6           0        5.710772    2.794520   -2.190604
      4          6           0        5.029961    3.289101    2.471000
      5          6           0        5.757714   -1.312947    3.224932
      6          7           0        5.678431    0.333931   -1.583235
      7          6           0        5.839141   -0.782918   -2.286080
      8          6           0        5.979106   -0.534262   -3.817731
      9          6           0        6.500617    0.971965   -3.781603
     10          6           0        5.898806    1.405663   -2.456593
     11          6           0        8.018834    1.089102   -3.693294
     12          6           0        4.608524   -0.648179   -4.566236
     13          6           0        4.703113   -0.743281   -6.091806
     14          1           0        3.745805   -1.577757   -6.802128
     15          7           0        4.862855    2.710900    0.131892
     16          6           0        5.131723    3.352741   -1.030448
     17          6           0        4.744738    4.763725   -0.815859
     18          6           0        4.406982    4.928790    0.625241
     19          6           0        4.783121    3.639178    1.145624
     20          6           0        4.676255    5.775006   -1.918751
     21          6           0        3.845660    6.071534    1.410852
     22          8           0        3.847009    6.083740    2.689298
     23          6           0        3.368331    7.230498    0.634966
     24          7           0        5.575811    1.029872    2.546690
     25          6           0        5.383975    2.202625    3.160558
     26          6           0        5.482175    2.061443    4.650647
     27          6           0        5.541347    0.492777    4.943117
     28          6           0        5.549389   -0.019608    3.481725
     29          6           0        6.685440    2.749289    5.310215
     30          6           0        4.484381   -0.080760    5.919998
     31          6           0        3.108342    0.011939    5.299497
     32          7           0        5.510429   -1.326867    0.800747
     33          6           0        5.760651   -1.984547    2.013809
     34          6           0        6.050448   -3.393436    1.689588
     35          6           0        5.964405   -3.454221    0.300075
     36          6           0        5.667182   -2.159406   -0.213155
     37          6           0        6.402454   -4.407984    2.622979
     38          6           0        6.078698   -4.306655   -0.872166
     39          8           0        6.221940   -5.516596   -1.053872
     40          6           0        6.096537   -3.379063   -2.166415
     41          6           0        5.127606   -3.963483   -3.157846
     42          8           0        3.901485   -3.971430   -2.925621
     43          8           0        5.764693   -4.201953   -4.314477
     44          6           0        4.853129   -4.755395   -5.351254
     45          1           0        6.093348    3.525412   -2.905708
     46          1           0        4.889644    4.099023    3.189871
     47          1           0        5.873124   -2.047165    4.024343
     48          1           0        6.711142   -1.169828   -4.316333
     49          1           0        6.088009    1.565155   -4.597447
     50          1           0        8.485205    0.116108   -3.539337
     51          1           0        8.211325    1.742492   -2.842106
     52          1           0        8.418731    1.607293   -4.565268
     53          1           0        4.068270    0.293812   -4.472213
     54          1           0        4.031096   -1.492254   -4.187503
     55          1           0        5.719855   -0.968678   -6.414824
     56          1           0        4.498743    0.242892   -6.508812
     57          1           0        5.139649    5.403677   -2.831946
     58          1           0        5.301742    6.615681   -1.619186
     59          1           0        3.657540    6.119804   -2.096700
     60          1           0        4.190837    7.629201    0.040769
     61          1           0        2.919700    7.911683    1.357163
     62          1           0        2.612658    6.893073   -0.075000
     63          1           0        4.606531    2.483630    5.142004
     64          1           0        6.495326    0.193476    5.377880
     65          1           0        6.409949    3.466860    6.083457
     66          1           0        7.272863    3.225802    4.525893
     67          1           0        7.417323    2.070259    5.746886
     68          1           0        4.461591    0.503134    6.839505
     69          1           0        4.668664   -1.120222    6.191677
     70          1           0        2.806759    1.033621    5.527633
     71          1           0        2.432642   -0.707397    5.763388
     72          1           0        3.154079   -0.079656    4.214138
     73          1           0        5.836370   -5.294626    2.337701
     74          1           0        6.173550   -4.103399    3.643976
     75          1           0        7.474162   -4.486715    2.441045
     76          1           0        7.119384   -3.384300   -2.541754
     77          1           0        5.286706   -5.696129   -5.690759
     78          1           0        4.710870   -3.967614   -6.091234
     79          1           0        3.876047   -5.092729   -5.003614
     80         12           0       -5.308590   -0.871907    0.541795
     81          6           0       -5.483333    1.488887   -2.155460
     82          6           0       -4.840320    1.780343    2.634865
     83          6           0       -4.701823   -2.942288    2.868331
     84          6           0       -4.649377   -3.331397   -1.837697
     85          7           0       -5.196190    1.305390    0.168962
     86          6           0       -5.338167    2.090733   -0.888120
     87          6           0       -5.404246    3.606312   -0.559180
     88          6           0       -4.627864    3.581397    0.846344
     89          6           0       -4.931476    2.145143    1.267856
     90          6           0       -3.122077    3.729459    0.704817
     91          6           0       -6.878117    4.118018   -0.392264
     92          6           0       -7.032444    5.640414   -0.376760
     93          1           0       -8.222734    6.225613   -0.987684
     94          7           0       -5.326515   -0.631689    2.511707
     95          6           0       -5.141729    0.518570    3.192907
     96          6           0       -5.227978    0.160916    4.617273
     97          6           0       -5.314485   -1.320882    4.724433
     98          6           0       -5.091811   -1.698509    3.343159
     99          6           0       -5.302978    1.186692    5.710707
    100          6           0       -5.545086   -2.245660    5.881075
    101          8           0       -5.344218   -3.507860    5.784438
    102          6           0       -5.922977   -1.619028    7.156229
    103          7           0       -4.547977   -2.806795    0.544471
    104          6           0       -4.434352   -3.503365    1.688939
    105          6           0       -4.127113   -4.956281    1.414988
    106          6           0       -4.297760   -5.141117   -0.164348
    107          6           0       -4.600336   -3.678901   -0.559033
    108          6           0       -2.737130   -5.433087    1.835680
    109          6           0       -5.272448   -6.252362   -0.641621
    110          6           0       -6.692524   -5.885566   -0.275240
    111          7           0       -5.280096   -0.980746   -1.615837
    112          6           0       -4.952780   -2.102227   -2.409073
    113          6           0       -4.962008   -1.656845   -3.817615
    114          6           0       -5.273975   -0.290922   -3.743990
    115          6           0       -5.427097    0.092737   -2.384266
    116          6           0       -4.657487   -2.466413   -4.948089
    117          6           0       -5.498123    0.915998   -4.506755
    118          8           0       -5.585865    1.182891   -5.704588
    119          6           0       -5.519188    2.150118   -3.505314
    120          6           0       -6.715935    2.998248   -3.838451
    121          8           0       -7.867593    2.557173   -3.677992
    122          8           0       -6.309390    4.257328   -4.082983
    123          6           0       -7.462109    5.139245   -4.407451
    124          1           0       -4.461930    2.516858    3.344263
    125          1           0       -4.587653   -3.721461    3.625516
    126          1           0       -4.550216   -4.060256   -2.644923
    127          1           0       -4.882877    4.246551   -1.260640
    128          1           0       -5.063206    4.285582    1.550598
    129          1           0       -2.810574    3.708398   -0.328937
    130          1           0       -2.692439    2.896953    1.246470
    131          1           0       -2.781966    4.632173    1.220354
    132          1           0       -7.225827    3.883584    0.622077
    133          1           0       -7.514977    3.697915   -1.146283
    134          1           0       -6.128340    6.150008   -0.731529
    135          1           0       -7.135315    5.968236    0.660529
    136          1           0       -5.050738    2.188141    5.340760
    137          1           0       -4.505893    0.952058    6.424473
    138          1           0       -6.261196    1.174702    6.234486
    139          1           0       -5.148576   -0.917551    7.457369
    140          1           0       -6.131305   -2.446030    7.837813
    141          1           0       -6.835594   -1.032792    7.001051
    142          1           0       -4.832120   -5.603035    1.922702
    143          1           0       -3.346618   -5.406935   -0.648602
    144          1           0       -2.762810   -6.288718    2.536617
    145          1           0       -2.208057   -4.597663    2.274644
    146          1           0       -2.079275   -5.718483    1.016551
    147          1           0       -5.053316   -7.193274   -0.130916
    148          1           0       -5.219255   -6.444767   -1.707993
    149          1           0       -6.771111   -6.212665    0.765873
    150          1           0       -7.400688   -6.414679   -0.909734
    151          1           0       -6.834825   -4.798758   -0.290939
    152          1           0       -5.396022   -2.235679   -5.704287
    153          1           0       -4.665282   -3.524147   -4.693322
    154          1           0       -3.651151   -2.107382   -5.179704
    155          1           0       -4.582856    2.693991   -3.635893
    156          1           0       -7.250167    5.597879   -5.378242
    157          1           0       -7.570686    5.819557   -3.541916
    158          1           0       -8.416982    4.664935   -4.601576
 ---------------------------------------------------------------------

 SCF Done:  E(RCAM-B3LYP) =  -4069.81207683     A.U. after   19 cycles

 Excitation energies and oscillator strengths:

 Excited State   1:      Singlet-A      1.6728 eV  741.18 nm  f=0.3360  <S**2>=0.000
     310 -> 316       -0.16842
     311 -> 313        0.16075
     312 -> 314        0.66697
     310 <- 316       -0.10172
 This state for optimization and/or second-order correction.
 Total Energy, E(TD-HF/TD-DFT) =  -4069.75060277
 Copying the excited state density for this state as the 1-particle RhoCI density.

 Excited State   2:      Singlet-A      1.6778 eV  738.96 nm  f=0.3646  <S**2>=0.000
     309 -> 315       -0.16971
     311 -> 313        0.66652
     312 -> 314       -0.16052
     309 <- 315       -0.10174

 Excited State   3:      Singlet-A      2.1846 eV  567.53 nm  f=0.0982  <S**2>=0.000
     309 -> 313        0.10093
     310 -> 314        0.63482
     312 -> 316        0.26878

 Excited State   4:      Singlet-A      2.1916 eV  565.72 nm  f=0.0997  <S**2>=0.000
     309 -> 313        0.63283
     310 -> 314       -0.10044
     311 -> 315        0.27392

 Excited State   5:      Singlet-A      2.4848 eV  498.97 nm  f=0.0000  <S**2>=0.000
     312 -> 313        0.70708

 The electronic state is 1-A.
 Alpha  occ. eigenvalues --  -46.87884 -46.87501 -19.26346 -19.26316 -19.19106
 Alpha  occ. eigenvalues --  -19.19094 -19.18958 -19.18584 -19.18254 -19.17952
 Alpha  occ. eigenvalues --  -14.42529 -14.42346 -14.41539 -14.41182 -14.39495
 Alpha  occ. eigenvalues --  -14.39198 -14.38673 -14.38446 -10.39152 -10.39033
 Alpha  occ. eigenvalues --  -10.35594 -10.35263 -10.34472 -10.34131 -10.31747
 Alpha  occ. eigenvalues --  -10.31729 -10.31474 -10.31167 -10.30987 -10.30889
 Alpha  occ. eigenvalues --  -10.30650 -10.30603 -10.30303 -10.30241 -10.30213
 Alpha  occ. eigenvalues --  -10.30013 -10.29948 -10.29725 -10.29709 -10.29348
 Alpha  occ. eigenvalues --  -10.29275 -10.29255 -10.28791 -10.28625 -10.28607
 Alpha  occ. eigenvalues --  -10.28521 -10.28453 -10.28264 -10.28160 -10.28028
 Alpha  occ. eigenvalues --  -10.27883 -10.27858 -10.27804 -10.27683 -10.27601
 Alpha  occ. eigenvalues --  -10.27569 -10.27558 -10.27515 -10.27486 -10.27341
 Alpha  occ. eigenvalues --  -10.27337 -10.27323 -10.27257 -10.27233 -10.27121
 Alpha  occ. eigenvalues --  -10.26964 -10.26721 -10.26616 -10.26580 -10.26308
 Alpha  occ. eigenvalues --  -10.26287 -10.26275 -10.26106 -10.25918 -10.25915
 Alpha  occ. eigenvalues --  -10.25907 -10.25751 -10.25702 -10.25539 -10.25055
 Alpha  occ. eigenvalues --  -10.24921 -10.24884 -10.24802 -10.24734 -10.24537
 Alpha  occ. eigenvalues --  -10.24522  -3.16627  -3.16251  -1.91509  -1.91133
 Alpha  occ. eigenvalues --   -1.91095  -1.90937  -1.90722  -1.90559  -1.16696
 Alpha  occ. eigenvalues --   -1.16605  -1.08710  -1.08567  -1.07364  -1.06892
 Alpha  occ. eigenvalues --   -1.06837  -1.06714  -1.04660  -1.04350  -1.03849
 Alpha  occ. eigenvalues --   -1.03505  -1.03324  -1.02869  -1.02500  -1.01950
 Alpha  occ. eigenvalues --   -0.92054  -0.91855  -0.89615  -0.89309  -0.89235
 Alpha  occ. eigenvalues --   -0.89037  -0.88384  -0.88009  -0.87952  -0.87747
 Alpha  occ. eigenvalues --   -0.87648  -0.87530  -0.87381  -0.86984  -0.85041
 Alpha  occ. eigenvalues --   -0.84879  -0.84035  -0.83671  -0.83093  -0.82784
 Alpha  occ. eigenvalues --   -0.82723  -0.82530  -0.81657  -0.81496  -0.80679
 Alpha  occ. eigenvalues --   -0.80322  -0.78892  -0.78493  -0.77297  -0.77009
 Alpha  occ. eigenvalues --   -0.76994  -0.76762  -0.75988  -0.75725  -0.74989
 Alpha  occ. eigenvalues --   -0.74594  -0.72859  -0.72544  -0.71752  -0.71417
 Alpha  occ. eigenvalues --   -0.70007  -0.69544  -0.68942  -0.68706  -0.67733
 Alpha  occ. eigenvalues --   -0.67459  -0.67279  -0.67094  -0.65346  -0.65159
 Alpha  occ. eigenvalues --   -0.64935  -0.64697  -0.64627  -0.64525  -0.64362
 Alpha  occ. eigenvalues --   -0.64012  -0.62372  -0.62174  -0.60547  -0.60183
 Alpha  occ. eigenvalues --   -0.59866  -0.59675  -0.59072  -0.58838  -0.58589
 Alpha  occ. eigenvalues --   -0.58282  -0.57663  -0.57458  -0.57403  -0.57074
 Alpha  occ. eigenvalues --   -0.56396  -0.56071  -0.56043  -0.55798  -0.55618
 Alpha  occ. eigenvalues --   -0.55429  -0.55341  -0.55081  -0.54607  -0.54330
 Alpha  occ. eigenvalues --   -0.53945  -0.53802  -0.53398  -0.53301  -0.53082
 Alpha  occ. eigenvalues --   -0.53022  -0.52999  -0.52850  -0.52787  -0.52550
 Alpha  occ. eigenvalues --   -0.52540  -0.52202  -0.51996  -0.51740  -0.51683
 Alpha  occ. eigenvalues --   -0.51553  -0.51275  -0.51069  -0.50691  -0.50340
 Alpha  occ. eigenvalues --   -0.50127  -0.50021  -0.49850  -0.49660  -0.49596
 Alpha  occ. eigenvalues --   -0.49366  -0.49300  -0.49155  -0.49087  -0.48988
 Alpha  occ. eigenvalues --   -0.48666  -0.48573  -0.48541  -0.48446  -0.48223
 Alpha  occ. eigenvalues --   -0.48167  -0.47778  -0.47457  -0.47386  -0.46960
 Alpha  occ. eigenvalues --   -0.46877  -0.46611  -0.46555  -0.46447  -0.46428
 Alpha  occ. eigenvalues --   -0.46247  -0.46115  -0.45915  -0.45892  -0.45702
 Alpha  occ. eigenvalues --   -0.45297  -0.44996  -0.44659  -0.44599  -0.44397
 Alpha  occ. eigenvalues --   -0.44344  -0.44239  -0.44149  -0.44106  -0.44007
 Alpha  occ. eigenvalues --   -0.43918  -0.43825  -0.43571  -0.43459  -0.43449
 Alpha  occ. eigenvalues --   -0.43245  -0.43108  -0.42848  -0.42786  -0.42753
 Alpha  occ. eigenvalues --   -0.42737  -0.42366  -0.42092  -0.41807  -0.41788
 Alpha  occ. eigenvalues --   -0.41589  -0.41533  -0.41327  -0.41218  -0.40957
 Alpha  occ. eigenvalues --   -0.40922  -0.40839  -0.40658  -0.40603  -0.40569
 Alpha  occ. eigenvalues --   -0.40295  -0.40268  -0.40137  -0.39543  -0.39213
 Alpha  occ. eigenvalues --   -0.38556  -0.38149  -0.37792  -0.37549  -0.37409
 Alpha  occ. eigenvalues --   -0.37321  -0.37096  -0.37060  -0.36789  -0.36687
 Alpha  occ. eigenvalues --   -0.36271  -0.36051  -0.34371  -0.34101  -0.33848
 Alpha  occ. eigenvalues --   -0.33788  -0.33273  -0.33019  -0.31487  -0.31140
 Alpha  occ. eigenvalues --   -0.31123  -0.30821  -0.30112  -0.29859  -0.29549
 Alpha  occ. eigenvalues --   -0.29411  -0.29185  -0.29070  -0.24166  -0.23878
 Alpha  occ. eigenvalues --   -0.21214  -0.20959
 Alpha virt. eigenvalues --   -0.08866  -0.08642  -0.01843  -0.01519  -0.00163
 Alpha virt. eigenvalues --    0.00102   0.02109   0.02342   0.03017   0.03375
 Alpha virt. eigenvalues --    0.04655   0.04872   0.05026   0.05229   0.06149

 Mulliken charges:
               1
     1  Mg   0.838731
     2  C   -0.002944
     3  C   -0.093651
     4  C   -0.046354
     5  C   -0.063904
     6  N   -0.256851
     7  C   -0.052152
     8  C   -0.014111
     9  C   -0.087039
    10  C    0.046328
    11  C    0.104743
    12  C    0.053306
    13  C   -0.072252
    14  H    0.036993
    15  N   -0.433073
    16  C    0.168211
    17  C   -0.177094
    18  C   -0.004471
    19  C    0.148559
    20  C    0.110075
    21  C    0.011409
    22  O   -0.250419
    23  C    0.062778
    24  N   -0.341157
    25  C    0.041330
    26  C   -0.028045
    27  C   -0.023996
    28  C    0.074842
    29  C    0.076181
    30  C    0.035161
    31  C   -0.004523
    32  N   -0.310494
    33  C    0.080525
    34  C   -0.169625
    35  C    0.008354
    36  C    0.083026
    37  C    0.127328
    38  C    0.046012
    39  O   -0.188329
    40  C   -0.005263
    41  C    0.212964
    42  O   -0.257508
    43  O   -0.304627
    44  C    0.157777
    45  H   -0.017268
    46  H   -0.017356
    47  H   -0.041283
    48  H    0.001079
    49  H   -0.003483
    50  H    0.025485
    51  H    0.016304
    52  H    0.017005
    53  H    0.011652
    54  H    0.043896
    55  H    0.017772
    56  H    0.018672
    57  H    0.006498
    58  H    0.026848
    59  H    0.039335
    60  H    0.038053
    61  H    0.034692
    62  H    0.030774
    63  H    0.015729
    64  H    0.009680
    65  H    0.022864
    66  H    0.012723
    67  H    0.004983
    68  H    0.006054
    69  H    0.005304
    70  H    0.007325
    71  H    0.019039
    72  H    0.029166
    73  H    0.047569
    74  H    0.009358
    75  H    0.046199
    76  H    0.035420
    77  H    0.043045
    78  H    0.046953
    79  H    0.053161
    80  Mg   0.838181
    81  C   -0.017187
    82  C   -0.088089
    83  C   -0.045424
    84  C   -0.062978
    85  N   -0.254607
    86  C   -0.049967
    87  C   -0.015054
    88  C   -0.090454
    89  C    0.045668
    90  C    0.114325
    91  C    0.062621
    92  C   -0.077583
    93  H    0.034366
    94  N   -0.423503
    95  C    0.162971
    96  C   -0.174712
    97  C   -0.007918
    98  C    0.152258
    99  C    0.099431
   100  C    0.015294
   101  O   -0.253126
   102  C    0.061294
   103  N   -0.349968
   104  C    0.038223
   105  C   -0.020379
   106  C   -0.035147
   107  C    0.089012
   108  C    0.072664
   109  C    0.034593
   110  C   -0.007563
   111  N   -0.324106
   112  C    0.078332
   113  C   -0.162722
   114  C    0.001778
   115  C    0.096433
   116  C    0.131622
   117  C    0.042039
   118  O   -0.189066
   119  C    0.001032
   120  C    0.211158
   121  O   -0.250946
   122  O   -0.305984
   123  C    0.152131
   124  H   -0.019405
   125  H   -0.015414
   126  H   -0.039725
   127  H   -0.001747
   128  H   -0.004455
   129  H    0.021074
   130  H    0.015489
   131  H    0.016561
   132  H    0.014072
   133  H    0.037540
   134  H    0.020109
   135  H    0.019707
   136  H    0.008901
   137  H    0.025909
   138  H    0.039414
   139  H    0.037976
   140  H    0.036082
   141  H    0.033774
   142  H    0.013824
   143  H    0.015464
   144  H    0.024498
   145  H    0.011998
   146  H    0.009845
   147  H    0.006658
   148  H    0.003696
   149  H    0.010713
   150  H    0.017388
   151  H    0.029597
   152  H    0.045187
   153  H    0.008927
   154  H    0.047282
   155  H    0.033886
   156  H    0.043225
   157  H    0.049401
   158  H    0.053607
 Sum of Mulliken charges =  -0.00000

 Dipole moment (field-independent basis, Debye):
    X=              3.2693    Y=              5.6702    Z=              1.2626  Tot=              6.6659
 Quadrupole moment (field-independent basis, Debye-Ang):
   XX=           -520.3347   YY=           -503.1014   ZZ=           -495.5919
   XY=              5.9801   XZ=            -35.6640   YZ=              2.2015

 Normal termination of Gaussian 16 at Sat Sep  4 04:04:53 2021.
