 Gaussian 16, Revision A.03,
 Gaussian 16:  ES64L-G16RevA.03 25-Dec-2016

 -----------------------------------
 #p cam-b3lyp/Def2SVP td=(nstates=5)
 -----------------------------------

 --------------------------------
 TDDFT excited states in gaussian
 --------------------------------
 Symbolic Z-matrix:
 Charge =  0 Multiplicity = 1

                         Standard orientation:
 ---------------------------------------------------------------------
 Center     Atomic      Atomic             Coordinates (Angstroms)
 Number     Number       Type             X           Y           Z
 ---------------------------------------------------------------------
      1         12           0        6.182274    1.043298    0.612331
      2          6           0        6.705274   -2.296687   -0.563758
      3          6           0        7.190969    2.125088   -2.462620
      4          6           0        6.164713    3.997196    1.765934
      5          6           0        6.318402   -0.233774    3.852118
      6          7           0        6.838022   -0.044585   -1.200719
      7          6           0        6.936716   -1.325897   -1.540819
      8          6           0        7.235788   -1.542066   -3.054490
      9          6           0        7.913127   -0.136046   -3.380555
     10          6           0        7.249045    0.708225   -2.307185
     11          6           0        9.421575   -0.119572   -3.155138
     12          6           0        5.931378   -1.757849   -3.893349
     13          6           0        6.147543   -2.296629   -5.310509
     14          1           0        5.170554   -3.221745   -5.864584
     15          7           0        6.139967    2.783400   -0.322068
     16          6           0        6.577348    3.038751   -1.578563
     17          6           0        6.329152    4.477710   -1.811967
     18          6           0        5.887174    5.078196   -0.522716
     19          6           0        6.073843    3.968128    0.376329
     20          6           0        6.467545    5.129546   -3.153499
     21          6           0        5.387396    6.439985   -0.156817
     22          8           0        5.278724    6.820684    1.058845
     23          6           0        5.108546    7.359676   -1.274606
     24          7           0        6.452543    1.820115    2.530962
     25          6           0        6.336866    3.131549    2.767066
     26          6           0        6.288958    3.419308    4.238405
     27          6           0        6.151210    2.002403    4.961701
     28          6           0        6.230631    1.090914    3.712241
     29          6           0        7.497949    4.170303    4.813173
     30          6           0        4.957023    1.821367    5.932043
     31          6           0        3.658567    1.840111    5.156955
     32          7           0        6.283137   -0.927380    1.516378
     33          6           0        6.353630   -1.224495    2.885110
     34          6           0        6.515364   -2.685379    3.002270
     35          6           0        6.544551   -3.137760    1.684566
     36          6           0        6.435971   -2.026941    0.799929
     37          6           0        6.672129   -3.411832    4.215582
     38          6           0        6.666962   -4.298646    0.817838
     39          8           0        6.692833   -5.516905    0.998583
     40          6           0        6.898383   -3.788780   -0.672903
     41          6           0        5.961604   -4.555567   -1.566094
     42          8           0        4.726374   -4.398546   -1.482911
     43          8           0        6.667218   -5.167759   -2.529355
     44          6           0        5.794569   -5.922648   -3.467854
     45          1           0        7.711699    2.585498   -3.304525
     46          1           0        6.051384    4.988677    2.209284
     47          1           0        6.283088   -0.712630    4.832374
     48          1           0        7.934862   -2.350667   -3.268697
     49          1           0        7.640217    0.227157   -4.371174
     50          1           0        9.763994   -1.040544   -2.683458
     51          1           0        9.609229    0.734295   -2.503838
     52          1           0        9.949948    0.091227   -4.085279
     53          1           0        5.490825   -0.788973   -4.128408
     54          1           0        5.234666   -2.407874   -3.362891
     55          1           0        7.157928   -2.685842   -5.439136
     56          1           0        6.088909   -1.459884   -6.006655
     57          1           0        6.965492    4.474707   -3.867487
     58          1           0        7.152404    5.968366   -3.030791
     59          1           0        5.511841    5.488177   -3.536051
     60          1           0        6.018192    7.503060   -1.858161
     61          1           0        4.675604    8.253819   -0.827483
     62          1           0        4.385333    6.892854   -1.943926
     63          1           0        5.425068    4.033660    4.488788
     64          1           0        7.025400    1.766488    5.568998
     65          1           0        7.235973    5.100127    5.318645
     66          1           0        8.199842    4.351728    3.999710
     67          1           0        8.110685    3.590311    5.502797
     68          1           0        4.917979    2.645782    6.643211
     69          1           0        5.002618    0.893414    6.502196
     70          1           0        3.451354    2.904757    5.054868
     71          1           0        2.870715    1.341506    5.722547
     72          1           0        3.788403    1.435677    4.152932
     73          1           0        6.039842   -4.295110    4.126125
     74          1           0        6.389723   -2.808200    5.077834
     75          1           0        7.740632   -3.624746    4.186844
     76          1           0        7.943351   -3.983533   -0.912140
     77          1           0        6.151003   -6.952723   -3.479415
     78          1           0        5.803955   -5.373390   -4.409466
     79          1           0        4.760014   -6.066378   -3.154203
     80         12           0       -6.979994    0.095231   -0.284354
     81          6           0       -4.444447   -2.421538    0.056236
     82          6           0       -4.542891    2.181527   -1.443008
     83          6           0       -9.090689    2.461593   -0.171815
     84          6           0       -8.929303   -1.767056    1.924216
     85          7           0       -4.811551   -0.197965   -0.607114
     86          6           0       -3.970354   -1.215521   -0.500719
     87          6           0       -2.561039   -0.949773   -1.094656
     88          6           0       -2.555707    0.652903   -0.993377
     89          6           0       -4.060613    0.906603   -1.053038
     90          6           0       -2.036568    1.170065    0.337930
     91          6           0       -2.439024   -1.431679   -2.582918
     92          6           0       -1.009354   -1.486966   -3.125812
     93          1           0       -0.661917   -2.550273   -4.064494
     94          7           0       -6.971992    1.866885   -1.178646
     95          6           0       -5.894190    2.559160   -1.603341
     96          6           0       -6.418427    3.809861   -2.173501
     97          6           0       -7.880275    3.872671   -1.901894
     98          6           0       -8.037341    2.720903   -1.036539
     99          6           0       -5.568820    4.763519   -2.962244
    100          6           0       -8.956257    4.820793   -2.337252
    101          8           0      -10.114788    4.822182   -1.788942
    102          6           0       -8.584385    5.809656   -3.359676
    103          7           0       -8.664351    0.427623    0.888153
    104          6           0       -9.436454    1.511796    0.697466
    105          6           0      -10.733702    1.398966    1.462185
    106          6           0      -10.776940   -0.100727    2.015939
    107          6           0       -9.395140   -0.590025    1.529532
    108          6           0      -10.907590    2.375750    2.624957
    109          6           0      -12.028975   -0.947370    1.657773
    110          6           0      -12.056055   -1.225697    0.172111
    111          7           0       -6.837842   -1.841770    0.662148
    112          6           0       -7.752787   -2.415869    1.571759
    113          6           0       -7.168554   -3.693372    2.029014
    114          6           0       -5.934021   -3.763385    1.366040
    115          6           0       -5.752091   -2.601278    0.568610
    116          6           0       -7.750548   -4.582584    2.975953
    117          6           0       -4.738677   -4.551101    1.167714
    118          8           0       -4.368855   -5.671510    1.516507
    119          6           0       -3.664946   -3.657874    0.409000
    120          6           0       -3.096391   -4.473517   -0.719703
    121          8           0       -3.815452   -4.821183   -1.672957
    122          8           0       -1.757420   -4.522816   -0.596823
    123          6           0       -1.146697   -5.311825   -1.699691
    124          1           0       -3.820919    2.983121   -1.601451
    125          1           0       -9.899198    3.196262   -0.179949
    126          1           0       -9.518631   -2.452386    2.537155
    127          1           0       -1.740564   -1.361432   -0.519228
    128          1           0       -2.059201    1.101177   -1.850061
    129          1           0       -1.867155    0.369596    1.042705
    130          1           0       -2.796957    1.845312    0.707929
    131          1           0       -1.141872    1.779746    0.182502
    132          1           0       -2.861365   -0.663740   -3.243710
    133          1           0       -2.912731   -2.385009   -2.714756
    134          1           0       -0.261850   -1.421086   -2.325905
    135          1           0       -0.833325   -0.594529   -3.731287
    136          1           0       -4.501313    4.535300   -2.853863
    137          1           0       -5.683739    5.750502   -2.501254
    138          1           0       -5.868154    4.826121   -4.010644
    139          1           0       -7.755917    6.412174   -2.994890
    140          1           0       -9.507810    6.337903   -3.604842
    141          1           0       -8.220205    5.277124   -4.245341
    142          1           0      -11.582863    1.556884    0.808663
    143          1           0      -10.751634   -0.130074    3.115179
    144          1           0      -11.817066    2.999824    2.538463
    145          1           0      -10.024034    2.997378    2.683602
    146          1           0      -10.934106    1.918187    3.612452
    147          1           0      -12.940890   -0.390083    1.885800
    148          1           0      -12.083037   -1.887647    2.196243
    149          1           0      -12.506312   -0.318052   -0.240830
    150          1           0      -12.665284   -2.101373   -0.042532
    151          1           0      -11.040147   -1.303116   -0.232377
    152          1           0       -7.620628   -5.582808    2.584559
    153          1           0       -8.800976   -4.353551    3.143051
    154          1           0       -7.137500   -4.361303    3.853713
    155          1           0       -2.901623   -3.375703    1.135161
    156          1           0       -0.545490   -6.099060   -1.234406
    157          1           0       -0.612951   -4.577750   -2.332143
    158          1           0       -1.811211   -5.895462   -2.325981
 ---------------------------------------------------------------------

 SCF Done:  E(RCAM-B3LYP) =  -4069.81180603     A.U. after   19 cycles

 Excitation energies and oscillator strengths:

 Excited State   1:      Singlet-A      1.6637 eV  745.22 nm  f=0.0048  <S**2>=0.000
     309 -> 315       -0.11381
     310 -> 316        0.12725
     311 -> 313       -0.45560
     312 -> 314        0.51385
 This state for optimization and/or second-order correction.
 Total Energy, E(TD-HF/TD-DFT) =  -4069.75066531
 Copying the excited state density for this state as the 1-particle RhoCI density.

 Excited State   2:      Singlet-A      1.6899 eV  733.69 nm  f=0.7322  <S**2>=0.000
     309 -> 315        0.13330
     310 -> 316        0.11727
     311 -> 313        0.51251
     312 -> 314        0.45453

 Excited State   3:      Singlet-A      2.1845 eV  567.56 nm  f=0.0925  <S**2>=0.000
     310 -> 314        0.63548
     312 -> 316       -0.26874

 Excited State   4:      Singlet-A      2.1930 eV  565.36 nm  f=0.1075  <S**2>=0.000
     309 -> 313        0.63328
     311 -> 315       -0.27536

 Excited State   5:      Singlet-A      2.5730 eV  481.86 nm  f=0.0000  <S**2>=0.000
     312 -> 313        0.70681

 The electronic state is 1-A.
 Alpha  occ. eigenvalues --  -46.88027 -46.87498 -19.26498 -19.25888 -19.19251
 Alpha  occ. eigenvalues --  -19.19051 -19.18798 -19.18589 -19.18356 -19.17830
 Alpha  occ. eigenvalues --  -14.42672 -14.42325 -14.41667 -14.41200 -14.39633
 Alpha  occ. eigenvalues --  -14.39193 -14.38807 -14.38433 -10.39306 -10.38726
 Alpha  occ. eigenvalues --  -10.35686 -10.35269 -10.34578 -10.33998 -10.31889
 Alpha  occ. eigenvalues --  -10.31615 -10.31174 -10.31138 -10.31122 -10.30836
 Alpha  occ. eigenvalues --  -10.30782 -10.30723 -10.30424 -10.30235 -10.30188
 Alpha  occ. eigenvalues --  -10.30125 -10.30002 -10.29844 -10.29736 -10.29476
 Alpha  occ. eigenvalues --  -10.29289 -10.29241 -10.28970 -10.28767 -10.28587
 Alpha  occ. eigenvalues --  -10.28465 -10.28325 -10.28319 -10.28230 -10.28001
 Alpha  occ. eigenvalues --  -10.27942 -10.27928 -10.27838 -10.27806 -10.27714
 Alpha  occ. eigenvalues --  -10.27689 -10.27638 -10.27622 -10.27506 -10.27397
 Alpha  occ. eigenvalues --  -10.27362 -10.27358 -10.27311 -10.27296 -10.27252
 Alpha  occ. eigenvalues --  -10.26956 -10.26773 -10.26669 -10.26426 -10.26417
 Alpha  occ. eigenvalues --  -10.26363 -10.26323 -10.26227 -10.26031 -10.25983
 Alpha  occ. eigenvalues --  -10.25812 -10.25782 -10.25700 -10.25602 -10.25287
 Alpha  occ. eigenvalues --  -10.25038 -10.25003 -10.24892 -10.24701 -10.24627
 Alpha  occ. eigenvalues --  -10.24531  -3.16771  -3.16248  -1.91653  -1.91239
 Alpha  occ. eigenvalues --   -1.91130  -1.91081  -1.90719  -1.90556  -1.16849
 Alpha  occ. eigenvalues --   -1.16205  -1.08812  -1.08421  -1.07454  -1.06869
 Alpha  occ. eigenvalues --   -1.06843  -1.06573  -1.04802  -1.04318  -1.03978
 Alpha  occ. eigenvalues --   -1.03498  -1.03453  -1.02881  -1.02628  -1.01948
 Alpha  occ. eigenvalues --   -0.92184  -0.91786  -0.89723  -0.89403  -0.89343
 Alpha  occ. eigenvalues --   -0.88931  -0.88487  -0.88079  -0.88059  -0.87889
 Alpha  occ. eigenvalues --   -0.87629  -0.87505  -0.87503  -0.86985  -0.85200
 Alpha  occ. eigenvalues --   -0.84788  -0.84133  -0.83726  -0.83198  -0.82866
 Alpha  occ. eigenvalues --   -0.82806  -0.82445  -0.81794  -0.81300  -0.80812
 Alpha  occ. eigenvalues --   -0.80196  -0.79014  -0.78487  -0.77425  -0.77142
 Alpha  occ. eigenvalues --   -0.76962  -0.76654  -0.76129  -0.75589  -0.75094
 Alpha  occ. eigenvalues --   -0.74627  -0.72979  -0.72534  -0.71877  -0.71393
 Alpha  occ. eigenvalues --   -0.70104  -0.69626  -0.69089  -0.68621  -0.67855
 Alpha  occ. eigenvalues --   -0.67450  -0.67418  -0.66984  -0.65504  -0.65066
 Alpha  occ. eigenvalues --   -0.65042  -0.64833  -0.64583  -0.64473  -0.64409
 Alpha  occ. eigenvalues --   -0.64040  -0.62509  -0.61959  -0.60663  -0.60198
 Alpha  occ. eigenvalues --   -0.60018  -0.59592  -0.59196  -0.58809  -0.58713
 Alpha  occ. eigenvalues --   -0.58229  -0.57792  -0.57517  -0.57292  -0.57054
 Alpha  occ. eigenvalues --   -0.56517  -0.56193  -0.56033  -0.55736  -0.55573
 Alpha  occ. eigenvalues --   -0.55538  -0.55235  -0.55035  -0.54728  -0.54234
 Alpha  occ. eigenvalues --   -0.54113  -0.53691  -0.53515  -0.53440  -0.53132
 Alpha  occ. eigenvalues --   -0.53052  -0.52985  -0.52930  -0.52659  -0.52634
 Alpha  occ. eigenvalues --   -0.52507  -0.52263  -0.52088  -0.51838  -0.51716
 Alpha  occ. eigenvalues --   -0.51439  -0.51398  -0.50987  -0.50810  -0.50355
 Alpha  occ. eigenvalues --   -0.50232  -0.50140  -0.49817  -0.49733  -0.49725
 Alpha  occ. eigenvalues --   -0.49424  -0.49310  -0.49297  -0.49001  -0.48884
 Alpha  occ. eigenvalues --   -0.48795  -0.48678  -0.48647  -0.48323  -0.48229
 Alpha  occ. eigenvalues --   -0.48153  -0.47909  -0.47508  -0.47396  -0.47003
 Alpha  occ. eigenvalues --   -0.46943  -0.46774  -0.46569  -0.46531  -0.46362
 Alpha  occ. eigenvalues --   -0.46338  -0.46102  -0.46011  -0.45880  -0.45566
 Alpha  occ. eigenvalues --   -0.45398  -0.45053  -0.44778  -0.44724  -0.44355
 Alpha  occ. eigenvalues --   -0.44298  -0.44292  -0.44282  -0.44227  -0.43938
 Alpha  occ. eigenvalues --   -0.43904  -0.43735  -0.43699  -0.43597  -0.43276
 Alpha  occ. eigenvalues --   -0.43231  -0.43159  -0.42910  -0.42859  -0.42724
 Alpha  occ. eigenvalues --   -0.42533  -0.42411  -0.42214  -0.41909  -0.41786
 Alpha  occ. eigenvalues --   -0.41749  -0.41468  -0.41347  -0.41250  -0.41086
 Alpha  occ. eigenvalues --   -0.41056  -0.40805  -0.40770  -0.40562  -0.40510
 Alpha  occ. eigenvalues --   -0.40469  -0.40324  -0.39974  -0.39640  -0.39297
 Alpha  occ. eigenvalues --   -0.38671  -0.38197  -0.37975  -0.37526  -0.37487
 Alpha  occ. eigenvalues --   -0.37420  -0.37105  -0.36986  -0.36927  -0.36449
 Alpha  occ. eigenvalues --   -0.36404  -0.35977  -0.34502  -0.34081  -0.34002
 Alpha  occ. eigenvalues --   -0.33542  -0.33404  -0.32998  -0.31580  -0.31252
 Alpha  occ. eigenvalues --   -0.31146  -0.30797  -0.30215  -0.29726  -0.29674
 Alpha  occ. eigenvalues --   -0.29529  -0.29174  -0.29042  -0.24300  -0.23865
 Alpha  occ. eigenvalues --   -0.21343  -0.20955
 Alpha virt. eigenvalues --   -0.08991  -0.08629  -0.01971  -0.01525  -0.00284
 Alpha virt. eigenvalues --    0.00128   0.01999   0.02392   0.02777   0.03374
 Alpha virt. eigenvalues --    0.04499   0.04876   0.04926   0.05511   0.05951

 Mulliken charges:
               1
     1  Mg   0.836710
     2  C   -0.003507
     3  C   -0.094425
     4  C   -0.046020
     5  C   -0.063665
     6  N   -0.256846
     7  C   -0.052560
     8  C   -0.013859
     9  C   -0.086870
    10  C    0.045859
    11  C    0.104700
    12  C    0.053550
    13  C   -0.071854
    14  H    0.035914
    15  N   -0.433162
    16  C    0.167711
    17  C   -0.177584
    18  C   -0.004456
    19  C    0.148115
    20  C    0.110152
    21  C    0.011496
    22  O   -0.249482
    23  C    0.062879
    24  N   -0.341068
    25  C    0.041101
    26  C   -0.028195
    27  C   -0.024156
    28  C    0.074740
    29  C    0.076029
    30  C    0.035060
    31  C   -0.004553
    32  N   -0.310664
    33  C    0.080384
    34  C   -0.168963
    35  C    0.008843
    36  C    0.082783
    37  C    0.127123
    38  C    0.046439
    39  O   -0.187291
    40  C   -0.005407
    41  C    0.213371
    42  O   -0.258322
    43  O   -0.304391
    44  C    0.157879
    45  H   -0.017324
    46  H   -0.016684
    47  H   -0.040705
    48  H    0.001442
    49  H   -0.004104
    50  H    0.025773
    51  H    0.016640
    52  H    0.017039
    53  H    0.010317
    54  H    0.043251
    55  H    0.018616
    56  H    0.018050
    57  H    0.006070
    58  H    0.027279
    59  H    0.038480
    60  H    0.037949
    61  H    0.035684
    62  H    0.030056
    63  H    0.016374
    64  H    0.010048
    65  H    0.023466
    66  H    0.012684
    67  H    0.005210
    68  H    0.006874
    69  H    0.005504
    70  H    0.008429
    71  H    0.018794
    72  H    0.027893
    73  H    0.048686
    74  H    0.009612
    75  H    0.046458
    76  H    0.035719
    77  H    0.043934
    78  H    0.046485
    79  H    0.052441
    80  Mg   0.837365
    81  C   -0.016814
    82  C   -0.087930
    83  C   -0.045813
    84  C   -0.065351
    85  N   -0.254539
    86  C   -0.049797
    87  C   -0.015217
    88  C   -0.090441
    89  C    0.045766
    90  C    0.114524
    91  C    0.062778
    92  C   -0.077935
    93  H    0.034716
    94  N   -0.423416
    95  C    0.162733
    96  C   -0.174892
    97  C   -0.008167
    98  C    0.152018
    99  C    0.099568
   100  C    0.015312
   101  O   -0.253587
   102  C    0.061319
   103  N   -0.350134
   104  C    0.037387
   105  C   -0.019706
   106  C   -0.034810
   107  C    0.089082
   108  C    0.073785
   109  C    0.034824
   110  C   -0.007615
   111  N   -0.324163
   112  C    0.078660
   113  C   -0.163414
   114  C    0.002578
   115  C    0.096059
   116  C    0.131528
   117  C    0.042132
   118  O   -0.186774
   119  C    0.001447
   120  C    0.211099
   121  O   -0.252505
   122  O   -0.304093
   123  C    0.152548
   124  H   -0.020078
   125  H   -0.016025
   126  H   -0.040769
   127  H    0.002077
   128  H   -0.005074
   129  H    0.023191
   130  H    0.013934
   131  H    0.015977
   132  H    0.012441
   133  H    0.037658
   134  H    0.025215
   135  H    0.016971
   136  H    0.008254
   137  H    0.025759
   138  H    0.039025
   139  H    0.038034
   140  H    0.035948
   141  H    0.033575
   142  H    0.014097
   143  H    0.012202
   144  H    0.024777
   145  H    0.011620
   146  H    0.005406
   147  H    0.005943
   148  H    0.003539
   149  H    0.010751
   150  H    0.017691
   151  H    0.030317
   152  H    0.046103
   153  H    0.008144
   154  H    0.046940
   155  H    0.036373
   156  H    0.047295
   157  H    0.051839
   158  H    0.050753
 Sum of Mulliken charges =  -0.00000

 Dipole moment (field-independent basis, Debye):
    X=              4.5759    Y=              6.3310    Z=             -3.3763  Tot=              8.5100
 Quadrupole moment (field-independent basis, Debye-Ang):
   XX=           -495.7205   YY=           -562.5979   ZZ=           -462.8638
   XY=             13.7829   XZ=            -38.6259   YZ=             -6.6822

 Normal termination of Gaussian 16 at Sat Sep 11 12:21:42 2021.
