 Gaussian 16, Revision A.03,
 Gaussian 16:  ES64L-G16RevA.03 25-Dec-2016

 -----------------------------------
 #p cam-b3lyp/Def2SVP td=(nstates=5)
 -----------------------------------

 --------------------------------
 TDDFT excited states in gaussian
 --------------------------------
 Symbolic Z-matrix:
 Charge =  0 Multiplicity = 1

                         Standard orientation:
 ---------------------------------------------------------------------
 Center     Atomic      Atomic             Coordinates (Angstroms)
 Number     Number       Type             X           Y           Z
 ---------------------------------------------------------------------
      1         12           0       -6.582137    0.894129    0.421702
      2          6           0       -7.118676   -1.637018   -2.051683
      3          6           0       -7.774216   -1.318292    2.729776
      4          6           0       -6.545653    3.252677    2.541264
      5          6           0       -6.521047    3.213966   -2.178353
      6          7           0       -7.319994   -1.185076    0.239719
      7          6           0       -7.417950   -2.061339   -0.755137
      8          6           0       -7.796370   -3.495988   -0.279790
      9          6           0       -8.511624   -3.124865    1.095955
     10          6           0       -7.802386   -1.815398    1.392942
     11          6           0      -10.005504   -2.852678    0.951942
     12          6           0       -6.536873   -4.396402   -0.046008
     13          6           0       -6.822378   -5.893794    0.101168
     14          1           0       -5.863487   -6.845895   -0.438628
     15          7           0       -6.617319    0.842799    2.396285
     16          6           0       -7.126790   -0.144271    3.171796
     17          6           0       -6.913419    0.285221    4.570614
     18          6           0       -6.410414    1.686792    4.544567
     19          6           0       -6.530763    1.996470    3.142785
     20          6           0       -7.135007   -0.611737    5.749646
     21          6           0       -5.911817    2.605365    5.614967
     22          8           0       -5.742315    3.856395    5.413060
     23          6           0       -5.708582    2.010963    6.948543
     24          7           0       -6.758330    2.966510    0.243293
     25          6           0       -6.649579    3.762876    1.312385
     26          6           0       -6.525315    5.202630    0.910384
     27          6           0       -6.326811    5.203660   -0.674024
     28          6           0       -6.460991    3.682175   -0.929657
     29          6           0       -7.712080    6.104561    1.276608
     30          6           0       -5.078582    5.937030   -1.225851
     31          6           0       -3.825053    5.199374   -0.811572
     32          7           0       -6.603619    0.817009   -1.747315
     33          6           0       -6.594412    1.906822   -2.629867
     34          6           0       -6.727513    1.360133   -3.992762
     35          6           0       -6.822181   -0.017546   -3.805992
     36          6           0       -6.779015   -0.310737   -2.412986
     37          6           0       -6.806520    2.121603   -5.192077
     38          6           0       -6.974529   -1.308220   -4.457765
     39          8           0       -6.972140   -1.694660   -5.627445
     40          6           0       -7.295052   -2.398259   -3.342011
     41          6           0       -6.397298   -3.579778   -3.589720
     42          8           0       -5.161863   -3.487059   -3.439820
     43          8           0       -7.145443   -4.684760   -3.730559
     44          6           0       -6.314380   -5.898616   -3.949745
     45          1           0       -8.347225   -1.839740    3.498992
     46          1           0       -6.423066    4.089856    3.231584
     47          1           0       -6.424796    3.870999   -3.044665
     48          1           0       -8.493923   -4.021692   -0.932078
     49          1           0       -8.298982   -3.856254    1.875426
     50          1           0      -10.307648   -2.832380   -0.095063
     51          1           0      -10.169931   -1.879313    1.414561
     52          1           0      -10.587238   -3.564923    1.537663
     53          1           0       -6.124487   -4.188249    0.941246
     54          1           0       -5.802413   -4.245550   -0.837928
     55          1           0       -7.832340   -6.141123   -0.227030
     56          1           0       -6.814614   -6.140222    1.162965
     57          1           0       -7.661500   -1.522396    5.466715
     58          1           0       -7.824621   -0.095548    6.417248
     59          1           0       -6.207235   -0.831749    6.278006
     60          1           0       -6.650936    1.593555    7.303915
     61          1           0       -5.265230    2.794160    7.562457
     62          1           0       -5.016265    1.173230    6.859940
     63          1           0       -5.658309    5.666140    1.379303
     64          1           0       -7.162709    5.675934   -1.190652
     65          1           0       -7.436750    6.963090    1.889656
     66          1           0       -8.460208    5.490473    1.777099
     67          1           0       -8.277262    6.484231    0.425821
     68          1           0       -5.012951    6.940944   -0.807766
     69          1           0       -5.078874    6.029464   -2.311994
     70          1           0       -3.639768    5.579111    0.192571
     71          1           0       -2.999946    5.445911   -1.480623
     72          1           0       -4.003710    4.127290   -0.726696
     73          1           0       -6.166901    1.617266   -5.916301
     74          1           0       -6.486312    3.150529   -5.029652
     75          1           0       -7.871670    2.045220   -5.409965
     76          1           0       -8.348533   -2.655185   -3.448266
     77          1           0       -6.655400   -6.357829   -4.877679
     78          1           0       -6.383681   -6.490570   -3.036951
     79          1           0       -5.262128   -5.727346   -4.179465
     80         12           0        6.522206   -0.871191    0.479604
     81          6           0        7.317164    1.572404   -2.025574
     82          6           0        7.906688    1.244298    2.769253
     83          6           0        6.245790   -3.182935    2.635265
     84          6           0        6.261080   -3.214302   -2.086985
     85          7           0        7.457485    1.122806    0.275996
     86          6           0        7.648191    1.979227   -0.716239
     87          6           0        8.151421    3.378365   -0.270467
     88          6           0        8.826699    2.957825    1.124534
     89          6           0        7.993089    1.716343    1.435163
     90          6           0       10.279844    2.535150    0.986480
     91          6           0        6.976354    4.395860   -0.056154
     92          6           0        7.408053    5.857832    0.078141
     93          1           0        6.542033    6.893275   -0.478940
     94          7           0        6.548736   -0.788235    2.462272
     95          6           0        7.137705    0.152899    3.229523
     96          6           0        6.888394   -0.249659    4.622342
     97          6           0        6.246136   -1.592103    4.614833
     98          6           0        6.343027   -1.922798    3.207235
     99          6           0        7.179922    0.644459    5.792383
    100          6           0        5.655518   -2.443564    5.697605
    101          8           0        5.367125   -3.677065    5.502317
    102          6           0        5.511548   -1.816550    7.019576
    103          7           0        6.495496   -2.944522    0.328068
    104          6           0        6.309972   -3.714757    1.414458
    105          6           0        6.052300   -5.151384    1.027031
    106          6           0        5.862698   -5.140737   -0.560902
    107          6           0        6.144356   -3.647914   -0.839379
    108          6           0        7.148697   -6.148328    1.401723
    109          6           0        4.552371   -5.762051   -1.117398
    110          6           0        3.367566   -4.913347   -0.715756
    111          7           0        6.559606   -0.823083   -1.680102
    112          6           0        6.458241   -1.923141   -2.559690
    113          6           0        6.651910   -1.404677   -3.929396
    114          6           0        6.877193   -0.031737   -3.748406
    115          6           0        6.847489    0.279801   -2.362200
    116          6           0        6.655377   -2.183412   -5.120902
    117          6           0        7.143929    1.223029   -4.414074
    118          8           0        7.192439    1.590945   -5.587110
    119          6           0        7.566288    2.295781   -3.319904
    120          6           0        6.786871    3.555769   -3.579624
    121          8           0        5.550402    3.572685   -3.447384
    122          8           0        7.644572    4.581759   -3.728112
    123          6           0        6.918465    5.855621   -3.976805
    124          1           0        8.517930    1.728330    3.531474
    125          1           0        6.038922   -4.000995    3.329144
    126          1           0        6.097132   -3.864723   -2.948808
    127          1           0        8.892750    3.823646   -0.923115
    128          1           0        8.672644    3.720295    1.883661
    129          1           0       10.585206    2.474186   -0.047528
    130          1           0       10.350064    1.564431    1.459582
    131          1           0       10.923114    3.201320    1.568507
    132          1           0        6.541473    4.236209    0.938889
    133          1           0        6.246427    4.304881   -0.836894
    134          1           0        8.445941    6.012139   -0.241134
    135          1           0        7.411572    6.122643    1.138271
    136          1           0        7.800536    1.500386    5.499760
    137          1           0        7.811887    0.073667    6.481351
    138          1           0        6.275781    0.957286    6.319012
    139          1           0        6.485997   -1.484540    7.369841
    140          1           0        4.989951   -2.551124    7.636178
    141          1           0        4.891938   -0.918860    6.915404
    142          1           0        5.143208   -5.518883    1.487036
    143          1           0        6.654434   -5.710138   -1.069610
    144          1           0        6.784872   -6.979870    2.034379
    145          1           0        7.943309   -5.610083    1.901146
    146          1           0        7.669642   -6.600093    0.559272
    147          1           0        4.387552   -6.750856   -0.682377
    148          1           0        4.554723   -5.880965   -2.195757
    149          1           0        3.146141   -5.262310    0.297295
    150          1           0        2.527577   -5.086757   -1.385370
    151          1           0        3.646652   -3.855540   -0.646388
    152          1           0        6.077167   -1.635230   -5.852794
    153          1           0        6.242565   -3.175253   -4.948822
    154          1           0        7.728064   -2.215807   -5.329610
    155          1           0        8.641535    2.452967   -3.413181
    156          1           0        7.311297    6.270298   -4.910300
    157          1           0        7.053955    6.460505   -3.060560
    158          1           0        5.860163    5.793599   -4.201764
 ---------------------------------------------------------------------

 SCF Done:  E(RCAM-B3LYP) =  -4069.81169406     A.U. after   19 cycles

 Excitation energies and oscillator strengths:

 Excited State   1:      Singlet-A      1.6654 eV  744.47 nm  f=0.0091  <S**2>=0.000
     309 -> 315       -0.11012
     310 -> 316        0.13117
     311 -> 313        0.52704
     312 -> 314       -0.44007
 This state for optimization and/or second-order correction.
 Total Energy, E(TD-HF/TD-DFT) =  -4069.75049161
 Copying the excited state density for this state as the 1-particle RhoCI density.

 Excited State   2:      Singlet-A      1.6887 eV  734.20 nm  f=0.7365  <S**2>=0.000
     309 -> 315        0.13644
     310 -> 316        0.11330
     311 -> 313        0.43921
     312 -> 314        0.52587

 Excited State   3:      Singlet-A      2.1847 eV  567.52 nm  f=0.0450  <S**2>=0.000
     309 -> 314        0.18900
     310 -> 313        0.61457
     311 -> 316       -0.26014

 Excited State   4:      Singlet-A      2.1926 eV  565.46 nm  f=0.1454  <S**2>=0.000
     309 -> 314        0.61237
     310 -> 313       -0.18758
     312 -> 315       -0.26630

 Excited State   5:      Singlet-A      2.7085 eV  457.76 nm  f=0.0000  <S**2>=0.000
     312 -> 313        0.70710

 The electronic state is 1-A.
 Alpha  occ. eigenvalues --  -46.87661 -46.87561 -19.26263 -19.26170 -19.19064
 Alpha  occ. eigenvalues --  -19.18895 -19.18711 -19.18651 -19.18036 -19.17951
 Alpha  occ. eigenvalues --  -14.42403 -14.42319 -14.41315 -14.41260 -14.39271
 Alpha  occ. eigenvalues --  -14.39257 -14.38497 -14.38449 -10.38995 -10.38956
 Alpha  occ. eigenvalues --  -10.35346 -10.35331 -10.34256 -10.34128 -10.31680
 Alpha  occ. eigenvalues --  -10.31579 -10.31271 -10.31210 -10.30937 -10.30786
 Alpha  occ. eigenvalues --  -10.30432 -10.30373 -10.30298 -10.30258 -10.30076
 Alpha  occ. eigenvalues --  -10.30046 -10.29792 -10.29784 -10.29498 -10.29344
 Alpha  occ. eigenvalues --  -10.29304 -10.29124 -10.28637 -10.28631 -10.28583
 Alpha  occ. eigenvalues --  -10.28434 -10.28311 -10.28235 -10.28058 -10.27998
 Alpha  occ. eigenvalues --  -10.27903 -10.27660 -10.27597 -10.27575 -10.27456
 Alpha  occ. eigenvalues --  -10.27410 -10.27394 -10.27389 -10.27375 -10.27368
 Alpha  occ. eigenvalues --  -10.27360 -10.27319 -10.27281 -10.27274 -10.27032
 Alpha  occ. eigenvalues --  -10.26957 -10.26610 -10.26588 -10.26378 -10.26328
 Alpha  occ. eigenvalues --  -10.26124 -10.26018 -10.25998 -10.25952 -10.25880
 Alpha  occ. eigenvalues --  -10.25829 -10.25722 -10.25684 -10.25325 -10.25324
 Alpha  occ. eigenvalues --  -10.24773 -10.24698 -10.24658 -10.24596 -10.24551
 Alpha  occ. eigenvalues --  -10.24489  -3.16404  -3.16310  -1.91285  -1.91192
 Alpha  occ. eigenvalues --   -1.90872  -1.90781  -1.90714  -1.90618  -1.16555
 Alpha  occ. eigenvalues --   -1.16516  -1.08557  -1.08493  -1.07114  -1.06906
 Alpha  occ. eigenvalues --   -1.06850  -1.06519  -1.04451  -1.04401  -1.03628
 Alpha  occ. eigenvalues --   -1.03567  -1.03100  -1.02940  -1.02277  -1.02013
 Alpha  occ. eigenvalues --   -0.91891  -0.91841  -0.89387  -0.89377  -0.89067
 Alpha  occ. eigenvalues --   -0.89066  -0.88149  -0.88116  -0.87729  -0.87686
 Alpha  occ. eigenvalues --   -0.87590  -0.87544  -0.87155  -0.87041  -0.84914
 Alpha  occ. eigenvalues --   -0.84861  -0.83794  -0.83765  -0.82858  -0.82855
 Alpha  occ. eigenvalues --   -0.82569  -0.82529  -0.81503  -0.81462  -0.80472
 Alpha  occ. eigenvalues --   -0.80353  -0.78671  -0.78545  -0.77086  -0.77050
 Alpha  occ. eigenvalues --   -0.76810  -0.76804  -0.75800  -0.75750  -0.74769
 Alpha  occ. eigenvalues --   -0.74707  -0.72639  -0.72598  -0.71546  -0.71491
 Alpha  occ. eigenvalues --   -0.69755  -0.69635  -0.68751  -0.68740  -0.67515
 Alpha  occ. eigenvalues --   -0.67511  -0.67121  -0.67104  -0.65182  -0.65162
 Alpha  occ. eigenvalues --   -0.64723  -0.64672  -0.64561  -0.64493  -0.64131
 Alpha  occ. eigenvalues --   -0.64098  -0.62185  -0.62174  -0.60319  -0.60254
 Alpha  occ. eigenvalues --   -0.59708  -0.59680  -0.58896  -0.58856  -0.58373
 Alpha  occ. eigenvalues --   -0.58330  -0.57458  -0.57456  -0.57179  -0.57142
 Alpha  occ. eigenvalues --   -0.56181  -0.56109  -0.55861  -0.55799  -0.55401
 Alpha  occ. eigenvalues --   -0.55371  -0.55205  -0.55145  -0.54391  -0.54384
 Alpha  occ. eigenvalues --   -0.53828  -0.53775  -0.53174  -0.53136  -0.53102
 Alpha  occ. eigenvalues --   -0.53055  -0.52810  -0.52788  -0.52644  -0.52599
 Alpha  occ. eigenvalues --   -0.52281  -0.52270  -0.51768  -0.51767  -0.51578
 Alpha  occ. eigenvalues --   -0.51498  -0.51100  -0.51062  -0.50463  -0.50404
 Alpha  occ. eigenvalues --   -0.49896  -0.49894  -0.49802  -0.49767  -0.49410
 Alpha  occ. eigenvalues --   -0.49398  -0.49115  -0.49089  -0.49014  -0.48975
 Alpha  occ. eigenvalues --   -0.48468  -0.48467  -0.48342  -0.48323  -0.48281
 Alpha  occ. eigenvalues --   -0.48264  -0.47572  -0.47507  -0.47175  -0.47033
 Alpha  occ. eigenvalues --   -0.46662  -0.46609  -0.46470  -0.46436  -0.46226
 Alpha  occ. eigenvalues --   -0.46172  -0.46030  -0.45987  -0.45722  -0.45690
 Alpha  occ. eigenvalues --   -0.45112  -0.45070  -0.44449  -0.44426  -0.44384
 Alpha  occ. eigenvalues --   -0.44381  -0.44040  -0.44011  -0.43973  -0.43968
 Alpha  occ. eigenvalues --   -0.43896  -0.43859  -0.43456  -0.43367  -0.43296
 Alpha  occ. eigenvalues --   -0.43259  -0.42897  -0.42839  -0.42805  -0.42576
 Alpha  occ. eigenvalues --   -0.42512  -0.42446  -0.41867  -0.41852  -0.41574
 Alpha  occ. eigenvalues --   -0.41573  -0.41411  -0.41366  -0.41016  -0.40900
 Alpha  occ. eigenvalues --   -0.40745  -0.40712  -0.40651  -0.40609  -0.40434
 Alpha  occ. eigenvalues --   -0.40388  -0.40150  -0.40119  -0.39297  -0.39283
 Alpha  occ. eigenvalues --   -0.38335  -0.38251  -0.37629  -0.37569  -0.37185
 Alpha  occ. eigenvalues --   -0.37165  -0.37139  -0.37109  -0.36677  -0.36587
 Alpha  occ. eigenvalues --   -0.36119  -0.36063  -0.34155  -0.34152  -0.33765
 Alpha  occ. eigenvalues --   -0.33644  -0.33078  -0.33053  -0.31240  -0.31210
 Alpha  occ. eigenvalues --   -0.30906  -0.30880  -0.29895  -0.29855  -0.29321
 Alpha  occ. eigenvalues --   -0.29237  -0.29185  -0.29110  -0.23947  -0.23938
 Alpha  occ. eigenvalues --   -0.21020  -0.20994
 Alpha virt. eigenvalues --   -0.08697  -0.08643  -0.01619  -0.01589   0.00052
 Alpha virt. eigenvalues --    0.00061   0.02307   0.02335   0.03284   0.03355
 Alpha virt. eigenvalues --    0.04819   0.04843   0.05222   0.05260   0.06260

 Mulliken charges:
               1
     1  Mg   0.839265
     2  C   -0.002944
     3  C   -0.094138
     4  C   -0.045908
     5  C   -0.063687
     6  N   -0.256750
     7  C   -0.052411
     8  C   -0.014055
     9  C   -0.086986
    10  C    0.046282
    11  C    0.104876
    12  C    0.053449
    13  C   -0.071621
    14  H    0.035746
    15  N   -0.433058
    16  C    0.168382
    17  C   -0.177288
    18  C   -0.004195
    19  C    0.148715
    20  C    0.110232
    21  C    0.012127
    22  O   -0.250043
    23  C    0.062531
    24  N   -0.341222
    25  C    0.041278
    26  C   -0.028043
    27  C   -0.024064
    28  C    0.075069
    29  C    0.076306
    30  C    0.035076
    31  C   -0.004581
    32  N   -0.310602
    33  C    0.080749
    34  C   -0.169080
    35  C    0.008410
    36  C    0.083340
    37  C    0.127170
    38  C    0.046404
    39  O   -0.188307
    40  C   -0.005473
    41  C    0.212859
    42  O   -0.256792
    43  O   -0.304865
    44  C    0.157793
    45  H   -0.017873
    46  H   -0.017168
    47  H   -0.041173
    48  H    0.000776
    49  H   -0.004123
    50  H    0.025368
    51  H    0.016378
    52  H    0.016423
    53  H    0.011440
    54  H    0.044215
    55  H    0.017714
    56  H    0.017975
    57  H    0.005811
    58  H    0.026452
    59  H    0.039469
    60  H    0.037274
    61  H    0.035004
    62  H    0.031537
    63  H    0.016406
    64  H    0.009260
    65  H    0.022826
    66  H    0.012350
    67  H    0.004611
    68  H    0.005887
    69  H    0.005094
    70  H    0.008135
    71  H    0.019684
    72  H    0.029306
    73  H    0.048244
    74  H    0.009517
    75  H    0.045702
    76  H    0.034947
    77  H    0.042787
    78  H    0.046225
    79  H    0.053569
    80  Mg   0.838308
    81  C   -0.016807
    82  C   -0.087866
    83  C   -0.045565
    84  C   -0.064562
    85  N   -0.254543
    86  C   -0.049782
    87  C   -0.015111
    88  C   -0.090503
    89  C    0.045733
    90  C    0.114438
    91  C    0.062543
    92  C   -0.077760
    93  H    0.034672
    94  N   -0.423376
    95  C    0.162862
    96  C   -0.174797
    97  C   -0.008047
    98  C    0.152101
    99  C    0.099428
   100  C    0.015341
   101  O   -0.253671
   102  C    0.061298
   103  N   -0.350109
   104  C    0.037548
   105  C   -0.019688
   106  C   -0.034905
   107  C    0.089162
   108  C    0.073815
   109  C    0.034676
   110  C   -0.007804
   111  N   -0.324278
   112  C    0.078878
   113  C   -0.162399
   114  C    0.002292
   115  C    0.096599
   116  C    0.131346
   117  C    0.042722
   118  O   -0.187651
   119  C    0.000774
   120  C    0.211244
   121  O   -0.250646
   122  O   -0.305723
   123  C    0.152090
   124  H   -0.019950
   125  H   -0.015955
   126  H   -0.040027
   127  H   -0.000775
   128  H   -0.004443
   129  H    0.022362
   130  H    0.014348
   131  H    0.016046
   132  H    0.014060
   133  H    0.037830
   134  H    0.020639
   135  H    0.019543
   136  H    0.008685
   137  H    0.025761
   138  H    0.039598
   139  H    0.038208
   140  H    0.035659
   141  H    0.033858
   142  H    0.014214
   143  H    0.012198
   144  H    0.024680
   145  H    0.011427
   146  H    0.005534
   147  H    0.005661
   148  H    0.004113
   149  H    0.010079
   150  H    0.020023
   151  H    0.030422
   152  H    0.046792
   153  H    0.009026
   154  H    0.046612
   155  H    0.034813
   156  H    0.043778
   157  H    0.049307
   158  H    0.053595
 Sum of Mulliken charges =  -0.00000

 Dipole moment (field-independent basis, Debye):
    X=              0.0292    Y=             -0.1051    Z=              7.2107  Tot=              7.2115
 Quadrupole moment (field-independent basis, Debye-Ang):
   XX=           -455.0330   YY=           -464.6219   ZZ=           -540.0149
   XY=             29.5571   XZ=              1.6668   YZ=             -0.4363

 Normal termination of Gaussian 16 at Sat Sep 11 06:36:18 2021.
