 Gaussian 16, Revision A.03,
 Gaussian 16:  ES64L-G16RevA.03 25-Dec-2016

 -----------------------------------
 #p cam-b3lyp/Def2SVP td=(nstates=5)
 -----------------------------------

 --------------------------------
 TDDFT excited states in gaussian
 --------------------------------
 Symbolic Z-matrix:
 Charge =  0 Multiplicity = 1

                         Standard orientation:
 ---------------------------------------------------------------------
 Center     Atomic      Atomic             Coordinates (Angstroms)
 Number     Number       Type             X           Y           Z
 ---------------------------------------------------------------------
      1         12           0        6.400330    0.674293   -0.006435
      2          6           0        6.770671   -2.697990   -1.147825
      3          6           0        7.319213    1.676994   -3.135862
      4          6           0        6.521729    3.644176    1.098861
      5          6           0        6.625217   -0.557834    3.245787
      6          7           0        6.948736   -0.461097   -1.825992
      7          6           0        6.993424   -1.749866   -2.148868
      8          6           0        7.224979   -1.998161   -3.669429
      9          6           0        7.932696   -0.619640   -4.044682
     10          6           0        7.338820    0.261484   -2.959853
     11          6           0        9.448701   -0.648205   -3.879108
     12          6           0        5.882028   -2.184513   -4.452683
     13          6           0        6.024477   -2.751112   -5.868320
     14          1           0        4.997551   -3.652594   -6.368421
     15          7           0        6.375598    2.400671   -0.966570
     16          6           0        6.770372    2.623012   -2.243286
     17          6           0        6.558479    4.065538   -2.490068
     18          6           0        6.187352    4.699134   -1.194339
     19          6           0        6.374678    3.597234   -0.285436
     20          6           0        6.663738    4.692436   -3.846412
     21          6           0        5.745658    6.081586   -0.831206
     22          8           0        5.697557    6.483736    0.381450
     23          6           0        5.451561    6.992911   -1.951936
     24          7           0        6.771165    1.470680    1.887208
     25          6           0        6.706319    2.788538    2.106361
     26          6           0        6.726170    3.099686    3.573581
     27          6           0        6.572836    1.698920    4.324644
     28          6           0        6.573672    0.766745    3.087987
     29          6           0        7.980143    3.820022    4.088051
     30          6           0        5.413167    1.570847    5.344047
     31          6           0        4.086085    1.619639    4.620465
     32          7           0        6.475077   -1.284849    0.924812
     33          6           0        6.590680   -1.563544    2.294352
     34          6           0        6.710901   -3.026948    2.428755
     35          6           0        6.673296   -3.499712    1.118440
     36          6           0        6.564556   -2.399351    0.220847
     37          6           0        6.892959   -3.739808    3.646589
     38          6           0        6.724471   -4.676776    0.266525
     39          8           0        6.719173   -5.892395    0.465864
     40          6           0        6.912224   -4.196978   -1.240249
     41          6           0        5.916924   -4.946598   -2.083312
     42          8           0        4.691545   -4.748793   -1.954135
     43          8           0        6.563970   -5.595472   -3.063534
     44          6           0        5.631286   -6.335938   -3.954581
     45          1           0        7.820206    2.107799   -4.004973
     46          1           0        6.457419    4.645311    1.530175
     47          1           0        6.613948   -1.020579    4.234318
     48          1           0        7.889167   -2.831895   -3.897830
     49          1           0        7.632086   -0.262741   -5.029557
     50          1           0        9.780494   -1.572524   -3.406384
     51          1           0        9.688941    0.208857   -3.249646
     52          1           0        9.945954   -0.468421   -4.832625
     53          1           0        5.463165   -1.205627   -4.685917
     54          1           0        5.186900   -2.803831   -3.884732
     55          1           0        7.016183   -3.174428   -6.030280
     56          1           0        5.964505   -1.923433   -6.575110
     57          1           0        7.111978    4.011339   -4.568722
     58          1           0        7.379002    5.510592   -3.764388
     59          1           0        5.705306    5.075781   -4.196823
     60          1           0        6.341287    7.098277   -2.573092
     61          1           0        5.065136    7.907080   -1.502693
     62          1           0        4.687913    6.539566   -2.584606
     63          1           0        5.892707    3.745123    3.847766
     64          1           0        7.462679    1.444195    4.900812
     65          1           0        7.767912    4.765237    4.588282
     66          1           0        8.654419    3.966629    3.244755
     67          1           0        8.601321    3.231058    4.762348
     68          1           0        5.428463    2.406647    6.042724
     69          1           0        5.452225    0.650550    5.926952
     70          1           0        3.908575    2.688738    4.509343
     71          1           0        3.306100    1.155097    5.224647
     72          1           0        4.163009    1.196259    3.618807
     73          1           0        6.230126   -4.603582    3.596439
     74          1           0        6.664280   -3.114581    4.509375
     75          1           0        7.952238   -3.987305    3.579278
     76          1           0        7.940180   -4.428723   -1.517238
     77          1           0        5.954383   -7.376978   -3.963439
     78          1           0        5.620416   -5.801425   -4.904624
     79          1           0        4.606044   -6.441684   -3.598161
     80         12           0       -6.803766    0.141123   -0.358743
     81          6           0       -5.550269   -1.005073    2.802594
     82          6           0       -6.345374    3.322818    0.782004
     83          6           0       -8.317532    1.180848   -2.946191
     84          6           0       -8.205340   -3.020121   -0.792092
     85          7           0       -6.039066    0.928756    1.561451
     86          6           0       -5.534415    0.398621    2.665366
     87          6           0       -4.908317    1.427288    3.644859
     88          6           0       -5.724820    2.729666    3.180096
     89          6           0       -6.029856    2.325596    1.739133
     90          6           0       -7.042761    2.907868    3.915367
     91          6           0       -3.365837    1.605463    3.419025
     92          6           0       -2.635233    2.356997    4.534008
     93          1           0       -1.273620    1.950777    4.870883
     94          7           0       -6.824477    1.938902   -1.199070
     95          6           0       -6.593868    3.122799   -0.593701
     96          6           0       -6.747267    4.146025   -1.639471
     97          6           0       -7.248800    3.483462   -2.874057
     98          6           0       -7.508521    2.149651   -2.370477
     99          6           0       -6.353251    5.580506   -1.438368
    100          6           0       -7.471454    3.973148   -4.272925
    101          8           0       -8.138698    3.289484   -5.127447
    102          6           0       -6.965531    5.317789   -4.585131
    103          7           0       -8.252865   -0.710646   -1.582232
    104          6           0       -8.702854   -0.065816   -2.672937
    105          6           0       -9.530062   -0.980215   -3.544705
    106          6           0       -9.340325   -2.445290   -2.932238
    107          6           0       -8.469592   -2.095889   -1.705404
    108          6           0      -11.020738   -0.652241   -3.626562
    109          6           0       -8.842942   -3.553705   -3.900078
    110          6           0       -7.419254   -3.269820   -4.321851
    111          7           0       -6.729474   -1.749501    0.684368
    112          6           0       -7.412434   -2.938096    0.345433
    113          6           0       -7.138296   -3.918213    1.416249
    114          6           0       -6.327180   -3.218901    2.322651
    115          6           0       -6.127667   -1.890061    1.860176
    116          6           0       -7.657174   -5.241891    1.485197
    117          6           0       -5.603129   -3.299423    3.570833
    118          8           0       -5.339857   -4.200788    4.365785
    119          6           0       -5.171916   -1.831157    4.000524
    120          6           0       -3.720881   -1.869894    4.394883
    121          8           0       -2.843328   -2.125593    3.551593
    122          8           0       -3.590838   -1.388084    5.644410
    123          6           0       -2.167771   -1.395957    6.076448
    124          1           0       -6.454921    4.352777    1.122700
    125          1           0       -8.774398    1.454107   -3.900180
    126          1           0       -8.525480   -4.058376   -0.902633
    127          1           0       -5.093369    1.226988    4.693391
    128          1           0       -5.098291    3.617534    3.202636
    129          1           0       -7.269024    2.062056    4.547472
    130          1           0       -7.796133    3.017720    3.146342
    131          1           0       -7.039929    3.849850    4.471240
    132          1           0       -3.203978    2.301521    2.585932
    133          1           0       -2.893086    0.657084    3.252553
    134          1           0       -3.245755    2.444237    5.440980
    135          1           0       -2.482227    3.390377    4.213485
    136          1           0       -6.172814    5.803447   -0.379532
    137          1           0       -7.224296    6.191038   -1.699893
    138          1           0       -5.511387    5.878200   -2.067115
    139          1           0       -7.425821    6.041127   -3.916261
    140          1           0       -7.139380    5.454479   -5.654224
    141          1           0       -5.888991    5.342318   -4.382465
    142          1           0       -9.165868   -0.975869   -4.564730
    143          1           0      -10.285897   -2.849257   -2.541688
    144          1           0      -11.374907   -0.486085   -4.661463
    145          1           0      -11.212662    0.218995   -3.014482
    146          1           0      -11.682066   -1.395447   -3.184404
    147          1           0       -9.442688   -3.555905   -4.813570
    148          1           0       -8.895890   -4.551583   -3.477677
    149          1           0       -7.542527   -2.557086   -5.142757
    150          1           0       -6.931061   -4.181405   -4.660570
    151          1           0       -6.866370   -2.760942   -3.523717
    152          1           0       -6.838681   -5.881824    1.786958
    153          1           0       -8.076578   -5.554718    0.531253
    154          1           0       -8.428172   -5.109611    2.248963
    155          1           0       -5.813616   -1.530721    4.829701
    156          1           0       -2.120822   -1.963013    7.011285
    157          1           0       -1.861624   -0.333656    6.115767
    158          1           0       -1.460608   -1.941349    5.462509
 ---------------------------------------------------------------------

 SCF Done:  E(RCAM-B3LYP) =  -4069.81131414     A.U. after   19 cycles

 Excitation energies and oscillator strengths:

 Excited State   1:      Singlet-A      1.6651 eV  744.60 nm  f=0.0090  <S**2>=0.000
     309 -> 315       -0.11052
     310 -> 316        0.13047
     311 -> 313       -0.44273
     312 -> 314        0.52485
 This state for optimization and/or second-order correction.
 Total Energy, E(TD-HF/TD-DFT) =  -4069.75012219
 Copying the excited state density for this state as the 1-particle RhoCI density.

 Excited State   2:      Singlet-A      1.6895 eV  733.87 nm  f=0.7341  <S**2>=0.000
     309 -> 315        0.13575
     310 -> 316        0.11405
     311 -> 313        0.52361
     312 -> 314        0.44180

 Excited State   3:      Singlet-A      2.1845 eV  567.56 nm  f=0.0521  <S**2>=0.000
     309 -> 313        0.21089
     310 -> 314        0.60750
     312 -> 316       -0.25692

 Excited State   4:      Singlet-A      2.1922 eV  565.57 nm  f=0.1402  <S**2>=0.000
     309 -> 313        0.60518
     310 -> 314       -0.20940
     311 -> 315       -0.26304

 Excited State   5:      Singlet-A      2.7036 eV  458.58 nm  f=0.0000  <S**2>=0.000
     312 -> 313        0.70703

 The electronic state is 1-A.
 Alpha  occ. eigenvalues --  -46.87717 -46.87557 -19.26211 -19.26124 -19.18999
 Alpha  occ. eigenvalues --  -19.18848 -19.18792 -19.18644 -19.18054 -19.17929
 Alpha  occ. eigenvalues --  -14.42395 -14.42370 -14.41383 -14.41260 -14.39330
 Alpha  occ. eigenvalues --  -14.39252 -14.38499 -14.38492 -10.38936 -10.38916
 Alpha  occ. eigenvalues --  -10.35428 -10.35324 -10.34272 -10.34105 -10.31633
 Alpha  occ. eigenvalues --  -10.31514 -10.31313 -10.31200 -10.30923 -10.30831
 Alpha  occ. eigenvalues --  -10.30482 -10.30433 -10.30295 -10.30252 -10.30160
 Alpha  occ. eigenvalues --  -10.30052 -10.29854 -10.29794 -10.29556 -10.29342
 Alpha  occ. eigenvalues --  -10.29300 -10.29189 -10.28651 -10.28611 -10.28539
 Alpha  occ. eigenvalues --  -10.28419 -10.28301 -10.28282 -10.28037 -10.28026
 Alpha  occ. eigenvalues --  -10.27897 -10.27711 -10.27651 -10.27569 -10.27517
 Alpha  occ. eigenvalues --  -10.27486 -10.27435 -10.27435 -10.27432 -10.27389
 Alpha  occ. eigenvalues --  -10.27379 -10.27370 -10.27319 -10.27295 -10.27040
 Alpha  occ. eigenvalues --  -10.26928 -10.26586 -10.26567 -10.26420 -10.26373
 Alpha  occ. eigenvalues --  -10.26205 -10.26153 -10.26054 -10.25955 -10.25935
 Alpha  occ. eigenvalues --  -10.25835 -10.25737 -10.25734 -10.25425 -10.25330
 Alpha  occ. eigenvalues --  -10.24765 -10.24742 -10.24731 -10.24724 -10.24638
 Alpha  occ. eigenvalues --  -10.24592  -3.16460  -3.16306  -1.91341  -1.91188
 Alpha  occ. eigenvalues --   -1.90928  -1.90777  -1.90770  -1.90614  -1.16500
 Alpha  occ. eigenvalues --   -1.16471  -1.08532  -1.08504  -1.07197  -1.06899
 Alpha  occ. eigenvalues --   -1.06788  -1.06474  -1.04500  -1.04392  -1.03692
 Alpha  occ. eigenvalues --   -1.03563  -1.03158  -1.02939  -1.02336  -1.02009
 Alpha  occ. eigenvalues --   -0.91880  -0.91878  -0.89479  -0.89399  -0.89095
 Alpha  occ. eigenvalues --   -0.89046  -0.88249  -0.88130  -0.87779  -0.87684
 Alpha  occ. eigenvalues --   -0.87596  -0.87582  -0.87222  -0.87037  -0.84897
 Alpha  occ. eigenvalues --   -0.84896  -0.83906  -0.83785  -0.82943  -0.82859
 Alpha  occ. eigenvalues --   -0.82572  -0.82556  -0.81483  -0.81477  -0.80511
 Alpha  occ. eigenvalues --   -0.80338  -0.78731  -0.78542  -0.77155  -0.77045
 Alpha  occ. eigenvalues --   -0.76847  -0.76795  -0.75829  -0.75734  -0.74850
 Alpha  occ. eigenvalues --   -0.74712  -0.72700  -0.72597  -0.71600  -0.71483
 Alpha  occ. eigenvalues --   -0.69893  -0.69668  -0.68793  -0.68726  -0.67568
 Alpha  occ. eigenvalues --   -0.67501  -0.67136  -0.67099  -0.65195  -0.65163
 Alpha  occ. eigenvalues --   -0.64772  -0.64667  -0.64547  -0.64542  -0.64221
 Alpha  occ. eigenvalues --   -0.64109  -0.62183  -0.62161  -0.60392  -0.60252
 Alpha  occ. eigenvalues --   -0.59716  -0.59692  -0.58912  -0.58890  -0.58425
 Alpha  occ. eigenvalues --   -0.58321  -0.57472  -0.57430  -0.57240  -0.57140
 Alpha  occ. eigenvalues --   -0.56233  -0.56103  -0.55856  -0.55771  -0.55458
 Alpha  occ. eigenvalues --   -0.55357  -0.55278  -0.55146  -0.54440  -0.54379
 Alpha  occ. eigenvalues --   -0.53805  -0.53802  -0.53240  -0.53144  -0.53134
 Alpha  occ. eigenvalues --   -0.53040  -0.52826  -0.52789  -0.52702  -0.52589
 Alpha  occ. eigenvalues --   -0.52421  -0.52309  -0.51815  -0.51770  -0.51557
 Alpha  occ. eigenvalues --   -0.51530  -0.51113  -0.51094  -0.50544  -0.50403
 Alpha  occ. eigenvalues --   -0.50006  -0.49888  -0.49867  -0.49782  -0.49442
 Alpha  occ. eigenvalues --   -0.49397  -0.49130  -0.49097  -0.49007  -0.48999
 Alpha  occ. eigenvalues --   -0.48499  -0.48448  -0.48420  -0.48372  -0.48285
 Alpha  occ. eigenvalues --   -0.48251  -0.47628  -0.47498  -0.47232  -0.47027
 Alpha  occ. eigenvalues --   -0.46731  -0.46608  -0.46465  -0.46451  -0.46291
 Alpha  occ. eigenvalues --   -0.46171  -0.46080  -0.45980  -0.45715  -0.45708
 Alpha  occ. eigenvalues --   -0.45161  -0.45119  -0.44483  -0.44458  -0.44408
 Alpha  occ. eigenvalues --   -0.44376  -0.44097  -0.44029  -0.44010  -0.43984
 Alpha  occ. eigenvalues --   -0.43931  -0.43844  -0.43441  -0.43391  -0.43317
 Alpha  occ. eigenvalues --   -0.43282  -0.42949  -0.42819  -0.42782  -0.42655
 Alpha  occ. eigenvalues --   -0.42536  -0.42463  -0.41954  -0.41864  -0.41622
 Alpha  occ. eigenvalues --   -0.41561  -0.41450  -0.41357  -0.41068  -0.40891
 Alpha  occ. eigenvalues --   -0.40808  -0.40785  -0.40639  -0.40603  -0.40522
 Alpha  occ. eigenvalues --   -0.40400  -0.40137  -0.40121  -0.39437  -0.39336
 Alpha  occ. eigenvalues --   -0.38428  -0.38260  -0.37652  -0.37545  -0.37270
 Alpha  occ. eigenvalues --   -0.37170  -0.37170  -0.37093  -0.36638  -0.36597
 Alpha  occ. eigenvalues --   -0.36108  -0.36095  -0.34206  -0.34148  -0.33709
 Alpha  occ. eigenvalues --   -0.33616  -0.33103  -0.33070  -0.31321  -0.31202
 Alpha  occ. eigenvalues --   -0.30960  -0.30872  -0.29910  -0.29831  -0.29381
 Alpha  occ. eigenvalues --   -0.29232  -0.29231  -0.29103  -0.24002  -0.23933
 Alpha  occ. eigenvalues --   -0.21053  -0.21016
 Alpha virt. eigenvalues --   -0.08700  -0.08691  -0.01684  -0.01587   0.00003
 Alpha virt. eigenvalues --    0.00062   0.02291   0.02317   0.03236   0.03355
 Alpha virt. eigenvalues --    0.04800   0.04825   0.05252   0.05312   0.06247

 Mulliken charges:
               1
     1  Mg   0.839591
     2  C   -0.002434
     3  C   -0.094006
     4  C   -0.046221
     5  C   -0.064101
     6  N   -0.256699
     7  C   -0.052203
     8  C   -0.014066
     9  C   -0.087004
    10  C    0.046283
    11  C    0.104863
    12  C    0.053444
    13  C   -0.071852
    14  H    0.036646
    15  N   -0.432993
    16  C    0.168240
    17  C   -0.177337
    18  C   -0.004446
    19  C    0.148623
    20  C    0.110228
    21  C    0.011801
    22  O   -0.250477
    23  C    0.062683
    24  N   -0.341130
    25  C    0.041130
    26  C   -0.028011
    27  C   -0.023971
    28  C    0.074950
    29  C    0.076270
    30  C    0.035230
    31  C   -0.004134
    32  N   -0.310760
    33  C    0.081072
    34  C   -0.168916
    35  C    0.008826
    36  C    0.083703
    37  C    0.127098
    38  C    0.046976
    39  O   -0.187583
    40  C   -0.005661
    41  C    0.212803
    42  O   -0.255677
    43  O   -0.305157
    44  C    0.157511
    45  H   -0.017799
    46  H   -0.017538
    47  H   -0.041664
    48  H    0.000987
    49  H   -0.004081
    50  H    0.025457
    51  H    0.016237
    52  H    0.016499
    53  H    0.011207
    54  H    0.044909
    55  H    0.017648
    56  H    0.017718
    57  H    0.005941
    58  H    0.026470
    59  H    0.039076
    60  H    0.037497
    61  H    0.034728
    62  H    0.031154
    63  H    0.015746
    64  H    0.009465
    65  H    0.022654
    66  H    0.012697
    67  H    0.004665
    68  H    0.005674
    69  H    0.004759
    70  H    0.007920
    71  H    0.016212
    72  H    0.030697
    73  H    0.048805
    74  H    0.008814
    75  H    0.045839
    76  H    0.034970
    77  H    0.042844
    78  H    0.046095
    79  H    0.054554
    80  Mg   0.838301
    81  C   -0.016422
    82  C   -0.087708
    83  C   -0.045689
    84  C   -0.064964
    85  N   -0.254507
    86  C   -0.049700
    87  C   -0.015152
    88  C   -0.090538
    89  C    0.045725
    90  C    0.114422
    91  C    0.062417
    92  C   -0.077781
    93  H    0.034780
    94  N   -0.423392
    95  C    0.162815
    96  C   -0.174836
    97  C   -0.008094
    98  C    0.152076
    99  C    0.099453
   100  C    0.015322
   101  O   -0.253542
   102  C    0.061336
   103  N   -0.350133
   104  C    0.037478
   105  C   -0.019741
   106  C   -0.034844
   107  C    0.089091
   108  C    0.073769
   109  C    0.034764
   110  C   -0.007672
   111  N   -0.324258
   112  C    0.078813
   113  C   -0.162680
   114  C    0.002443
   115  C    0.096689
   116  C    0.131333
   117  C    0.043039
   118  O   -0.187332
   119  C    0.000646
   120  C    0.211145
   121  O   -0.249477
   122  O   -0.305980
   123  C    0.151860
   124  H   -0.019845
   125  H   -0.015921
   126  H   -0.040428
   127  H   -0.000809
   128  H   -0.004243
   129  H    0.022333
   130  H    0.014269
   131  H    0.016087
   132  H    0.014202
   133  H    0.038378
   134  H    0.020315
   135  H    0.019907
   136  H    0.008848
   137  H    0.025806
   138  H    0.039385
   139  H    0.038216
   140  H    0.035871
   141  H    0.033578
   142  H    0.014183
   143  H    0.012265
   144  H    0.024829
   145  H    0.011543
   146  H    0.005517
   147  H    0.005926
   148  H    0.003756
   149  H    0.010550
   150  H    0.018130
   151  H    0.030578
   152  H    0.046763
   153  H    0.008497
   154  H    0.046691
   155  H    0.034716
   156  H    0.043495
   157  H    0.048693
   158  H    0.054652
 Sum of Mulliken charges =  -0.00000

 Dipole moment (field-independent basis, Debye):
    X=              1.1680    Y=              6.7076    Z=             -2.5589  Tot=              7.2735
 Quadrupole moment (field-independent basis, Debye-Ang):
   XX=           -475.8153   YY=           -528.2129   ZZ=           -474.9199
   XY=              8.3507   XZ=            -25.0317   YZ=             27.0921

 Normal termination of Gaussian 16 at Sat Sep 11 08:28:22 2021.
