 Gaussian 16, Revision A.03,
 Gaussian 16:  ES64L-G16RevA.03 25-Dec-2016

 -----------------------------------
 #p cam-b3lyp/Def2SVP td=(nstates=5)
 -----------------------------------

 --------------------------------
 TDDFT excited states in gaussian
 --------------------------------
 Symbolic Z-matrix:
 Charge =  0 Multiplicity = 1

                         Standard orientation:
 ---------------------------------------------------------------------
 Center     Atomic      Atomic             Coordinates (Angstroms)
 Number     Number       Type             X           Y           Z
 ---------------------------------------------------------------------
      1         12           0       -4.340786    1.321936    0.281272
      2          6           0       -5.240995   -1.308003   -1.973781
      3          6           0       -5.875699   -0.468832    2.747089
      4          6           0       -3.958533    3.826627    2.188370
      5          6           0       -3.904736    3.364656   -2.508498
      6          7           0       -5.387732   -0.628522    0.264987
      7          6           0       -5.611591   -1.564689   -0.651882
      8          6           0       -6.209346   -2.876913   -0.061855
      9          6           0       -6.869447   -2.280235    1.261112
     10          6           0       -5.969822   -1.072854    1.458163
     11          6           0       -8.302702   -1.797668    1.062590
     12          6           0       -5.104816   -3.934180    0.275682
     13          6           0       -5.617930   -5.351522    0.546254
     14          1           0       -4.812562   -6.482755    0.111462
     15          7           0       -4.398252    1.452537    2.251676
     16          6           0       -5.059036    0.627549    3.099052
     17          6           0       -4.792760    1.142335    4.459483
     18          6           0       -4.080352    2.443024    4.322454
     19          6           0       -4.141203    2.641391    2.896858
     20          6           0       -5.158277    0.398133    5.707005
     21          6           0       -3.454684    3.366559    5.319327
     22          8           0       -3.093609    4.554194    5.013188
     23          6           0       -3.355135    2.869239    6.703453
     24          7           0       -4.195369    3.372774   -0.080048
     25          6           0       -3.973667    4.235262    0.917924
     26          6           0       -3.626814    5.597739    0.395153
     27          6           0       -3.418618    5.427490   -1.178830
     28          6           0       -3.782881    3.927533   -1.304177
     29          6           0       -4.663748    6.698834    0.656625
     30          6           0       -2.068486    5.910177   -1.765836
     31          6           0       -0.946219    5.030093   -1.262780
     32          7           0       -4.357572    1.056218   -1.872831
     33          6           0       -4.174529    2.048983   -2.846272
     34          6           0       -4.379751    1.409813   -4.159060
     35          6           0       -4.686215    0.084772   -3.855427
     36          6           0       -4.699031   -0.086396   -2.441628
     37          6           0       -4.331907    2.064616   -5.421351
     38          6           0       -5.030019   -1.220488   -4.395752
     39          8           0       -5.078210   -1.705354   -5.527156
     40          6           0       -5.522464   -2.145314   -3.196576
     41          6           0       -4.814921   -3.467057   -3.321818
     42          8           0       -3.581059   -3.550564   -3.154555
     43          8           0       -5.722768   -4.453336   -3.381918
     44          6           0       -5.086303   -5.794215   -3.477348
     45          1           0       -6.527732   -0.826382    3.546435
     46          1           0       -3.714050    4.693465    2.805831
     47          1           0       -3.702251    3.919616   -3.426360
     48          1           0       -6.974425   -3.346225   -0.680582
     49          1           0       -6.777475   -2.963151    2.105439
     50          1           0       -8.590279   -1.824881    0.011648
     51          1           0       -8.319204   -0.773345    1.435395
     52          1           0       -8.991271   -2.358029    1.695555
     53          1           0       -4.672783   -3.704201    1.249601
     54          1           0       -4.349979   -3.968020   -0.510704
     55          1           0       -6.651398   -5.470406    0.219575
     56          1           0       -5.656063   -5.500753    1.625363
     57          1           0       -5.816204   -0.443268    5.493179
     58          1           0       -5.765454    1.070661    6.312605
     59          1           0       -4.279276    0.087333    6.271888
     60          1           0       -4.353042    2.633498    7.073800
     61          1           0       -2.801414    3.627299    7.256254
     62          1           0       -2.799000    1.931336    6.702509
     63          1           0       -2.702469    5.963708    0.840213
     64          1           0       -4.168195    5.973651   -1.751993
     65          1           0       -4.264481    7.556551    1.198485
     66          1           0       -5.501024    6.252840    1.192674
     67          1           0       -5.157535    7.082877   -0.235622
     68          1           0       -1.852641    6.925576   -1.435195
     69          1           0       -2.046430    5.904522   -2.855667
     70          1           0       -0.712372    5.465048   -0.291718
     71          1           0       -0.088045    5.087572   -1.933186
     72          1           0       -1.287989    4.009575   -1.088932
     73          1           0       -3.771886    1.406326   -6.085428
     74          1           0       -3.858751    3.043113   -5.342159
     75          1           0       -5.394490    2.132223   -5.654164
     76          1           0       -6.602073   -2.247260   -3.302282
     77          1           0       -5.486809   -6.276905   -4.368886
     78          1           0       -5.252516   -6.285084   -2.518273
     79          1           0       -4.018537   -5.806302   -3.698863
     80         12           0        4.278322   -1.210009    0.613174
     81          6           0        5.457799    0.851243   -2.077390
     82          6           0        5.953961    0.865329    2.739174
     83          6           0        3.634074   -3.251531    2.955092
     84          6           0        3.679824   -3.705082   -1.745234
     85          7           0        5.510159    0.592202    0.256964
     86          6           0        5.837532    1.317824   -0.801638
     87          6           0        6.546250    2.658092   -0.468519
     88          6           0        7.138465    2.265501    0.971632
     89          6           0        6.121821    1.198054    1.371246
     90          6           0        8.510482    1.615897    0.901431
     91          6           0        5.539757    3.857636   -0.368138
     92          6           0        6.189778    5.242910   -0.352211
     93          1           0        5.497206    6.344396   -1.015191
     94          7           0        4.302394   -0.955894    2.581283
     95          6           0        5.023095   -0.050906    3.276152
     96          6           0        4.704490   -0.285200    4.693112
     97          6           0        3.863813   -1.509471    4.788644
     98          6           0        3.919346   -1.975033    3.417423
     99          6           0        5.121046    0.654663    5.786990
    100          6           0        3.141359   -2.161268    5.928571
    101          8           0        2.668479   -3.348903    5.835087
    102          6           0        3.085445   -1.404486    7.187790
    103          7           0        3.934747   -3.260247    0.641688
    104          6           0        3.625018   -3.893452    1.786696
    105          6           0        3.152747   -5.302808    1.520104
    106          6           0        2.978953   -5.404810   -0.066387
    107          6           0        3.488547   -4.003076   -0.467430
    108          6           0        4.080238   -6.417714    2.002932
    109          6           0        1.592984   -5.866401   -0.594318
    110          6           0        0.549549   -4.814844   -0.292909
    111          7           0        4.338877   -1.360588   -1.541286
    112          6           0        4.076414   -2.506270   -2.323980
    113          6           0        4.357673   -2.147351   -3.729152
    114          6           0        4.789713   -0.814118   -3.663324
    115          6           0        4.797786   -0.379556   -2.310332
    116          6           0        4.250483   -3.020459   -4.848216
    117          6           0        5.250922    0.321107   -4.429657
    118          8           0        5.364147    0.571450   -5.628922
    119          6           0        5.824747    1.410118   -3.424100
    120          6           0        5.249992    2.745913   -3.808568
    121          8           0        4.029825    2.962618   -3.704369
    122          8           0        6.256139    3.612012   -4.027474
    123          6           0        5.736106    4.954327   -4.401062
    124          1           0        6.626530    1.316541    3.469196
    125          1           0        3.298869   -3.963493    3.712860
    126          1           0        3.424423   -4.397056   -2.550597
    127          1           0        7.352030    2.925408   -1.141606
    128          1           0        7.097604    3.107038    1.658286
    129          1           0        8.810613    1.417340   -0.116731
    130          1           0        8.427279    0.691818    1.458382
    131          1           0        9.244016    2.225484    1.436832
    132          1           0        5.078066    3.855281    0.627640
    133          1           0        4.810398    3.809730   -1.153227
    134          1           0        7.241419    5.208342   -0.661753
    135          1           0        6.225955    5.597402    0.680764
    136          1           0        5.867891    1.376616    5.434287
    137          1           0        5.652692    0.057912    6.536063
    138          1           0        4.271727    1.147135    6.265318
    139          1           0        4.096657   -1.194878    7.528350
    140          1           0        2.452638   -1.993235    7.854727
    141          1           0        2.611805   -0.435796    6.993056
    142          1           0        2.194584   -5.485174    1.991033
    143          1           0        3.677667   -6.131120   -0.506958
    144          1           0        3.588320   -7.124505    2.697588
    145          1           0        4.944295   -5.964444    2.470362
    146          1           0        4.531953   -7.016720    1.214038
    147          1           0        1.275043   -6.775894   -0.078654
    148          1           0        1.585146   -6.079800   -1.657983
    149          1           0        0.269575   -5.034443    0.741735
    150          1           0       -0.302055   -4.917239   -0.962477
    151          1           0        0.987204   -3.809941   -0.309775
    152          1           0        3.768800   -2.457988   -5.636947
    153          1           0        3.689007   -3.918575   -4.599409
    154          1           0        5.307014   -3.234258   -5.030691
    155          1           0        6.912050    1.392823   -3.508010
    156          1           0        6.194941    5.219581   -5.358554
    157          1           0        5.955978    5.610657   -3.538140
    158          1           0        4.682548    5.034396   -4.642010
 ---------------------------------------------------------------------

 SCF Done:  E(RCAM-B3LYP) =  -4069.81210795     A.U. after   19 cycles

 Excitation energies and oscillator strengths:

 Excited State   1:      Singlet-A      1.6467 eV  752.92 nm  f=0.0039  <S**2>=0.000
     309 -> 315       -0.11356
     310 -> 316        0.12149
     311 -> 313        0.50348
     312 -> 314       -0.46767
 This state for optimization and/or second-order correction.
 Total Energy, E(TD-HF/TD-DFT) =  -4069.75159212
 Copying the excited state density for this state as the 1-particle RhoCI density.

 Excited State   2:      Singlet-A      1.7021 eV  728.44 nm  f=0.7009  <S**2>=0.000
     309 -> 315        0.13269
     310 -> 316        0.12247
     311 -> 313        0.46535
     312 -> 314        0.50086

 Excited State   3:      Singlet-A      2.1810 eV  568.48 nm  f=0.0177  <S**2>=0.000
     309 -> 314        0.31002
     310 -> 313        0.56499
     311 -> 316       -0.23570
     312 -> 315       -0.12831

 Excited State   4:      Singlet-A      2.1942 eV  565.07 nm  f=0.1604  <S**2>=0.000
     309 -> 314        0.56089
     310 -> 313       -0.30638
     311 -> 316        0.13536
     312 -> 315       -0.24587

 Excited State   5:      Singlet-A      2.4780 eV  500.33 nm  f=0.0000  <S**2>=0.000
     312 -> 313        0.70651

 The electronic state is 1-A.
 Alpha  occ. eigenvalues --  -46.87589 -46.87464 -19.26263 -19.26228 -19.19059
 Alpha  occ. eigenvalues --  -19.18962 -19.18683 -19.18613 -19.17989 -19.17876
 Alpha  occ. eigenvalues --  -14.42311 -14.42251 -14.41238 -14.41155 -14.39203
 Alpha  occ. eigenvalues --  -14.39166 -14.38394 -14.38372 -10.39006 -10.38983
 Alpha  occ. eigenvalues --  -10.35321 -10.35297 -10.34213 -10.34055 -10.31708
 Alpha  occ. eigenvalues --  -10.31667 -10.31200 -10.31112 -10.30867 -10.30737
 Alpha  occ. eigenvalues --  -10.30353 -10.30298 -10.30198 -10.30151 -10.29993
 Alpha  occ. eigenvalues --  -10.29938 -10.29701 -10.29681 -10.29424 -10.29249
 Alpha  occ. eigenvalues --  -10.29206 -10.29050 -10.28603 -10.28583 -10.28568
 Alpha  occ. eigenvalues --  -10.28455 -10.28228 -10.28175 -10.27990 -10.27953
 Alpha  occ. eigenvalues --  -10.27809 -10.27587 -10.27523 -10.27480 -10.27389
 Alpha  occ. eigenvalues --  -10.27318 -10.27304 -10.27299 -10.27286 -10.27259
 Alpha  occ. eigenvalues --  -10.27246 -10.27231 -10.27216 -10.27165 -10.27013
 Alpha  occ. eigenvalues --  -10.26901 -10.26584 -10.26575 -10.26384 -10.26333
 Alpha  occ. eigenvalues --  -10.26082 -10.25889 -10.25842 -10.25785 -10.25766
 Alpha  occ. eigenvalues --  -10.25701 -10.25560 -10.25556 -10.25259 -10.25242
 Alpha  occ. eigenvalues --  -10.24678 -10.24627 -10.24590 -10.24503 -10.24225
 Alpha  occ. eigenvalues --  -10.24185  -3.16331  -3.16214  -1.91213  -1.91096
 Alpha  occ. eigenvalues --   -1.90799  -1.90685  -1.90641  -1.90522  -1.16573
 Alpha  occ. eigenvalues --   -1.16553  -1.08487  -1.08453  -1.07090  -1.06873
 Alpha  occ. eigenvalues --   -1.06841  -1.06573  -1.04387  -1.04313  -1.03554
 Alpha  occ. eigenvalues --   -1.03472  -1.03025  -1.02837  -1.02203  -1.01914
 Alpha  occ. eigenvalues --   -0.91807  -0.91787  -0.89275  -0.89255  -0.89025
 Alpha  occ. eigenvalues --   -0.88996  -0.88052  -0.87980  -0.87640  -0.87573
 Alpha  occ. eigenvalues --   -0.87494  -0.87477  -0.87098  -0.86971  -0.84845
 Alpha  occ. eigenvalues --   -0.84820  -0.83690  -0.83618  -0.82805  -0.82792
 Alpha  occ. eigenvalues --   -0.82496  -0.82489  -0.81443  -0.81443  -0.80429
 Alpha  occ. eigenvalues --   -0.80283  -0.78602  -0.78455  -0.77012  -0.76958
 Alpha  occ. eigenvalues --   -0.76767  -0.76715  -0.75760  -0.75678  -0.74691
 Alpha  occ. eigenvalues --   -0.74597  -0.72559  -0.72490  -0.71487  -0.71405
 Alpha  occ. eigenvalues --   -0.69617  -0.69448  -0.68705  -0.68666  -0.67460
 Alpha  occ. eigenvalues --   -0.67430  -0.67076  -0.67069  -0.65119  -0.65114
 Alpha  occ. eigenvalues --   -0.64671  -0.64581  -0.64482  -0.64437  -0.64035
 Alpha  occ. eigenvalues --   -0.63963  -0.62163  -0.62127  -0.60255  -0.60171
 Alpha  occ. eigenvalues --   -0.59632  -0.59628  -0.58803  -0.58791  -0.58314
 Alpha  occ. eigenvalues --   -0.58242  -0.57436  -0.57399  -0.57115  -0.57045
 Alpha  occ. eigenvalues --   -0.56123  -0.56021  -0.55868  -0.55757  -0.55356
 Alpha  occ. eigenvalues --   -0.55316  -0.55138  -0.55041  -0.54341  -0.54277
 Alpha  occ. eigenvalues --   -0.53766  -0.53739  -0.53122  -0.53060  -0.53055
 Alpha  occ. eigenvalues --   -0.52976  -0.52759  -0.52745  -0.52609  -0.52554
 Alpha  occ. eigenvalues --   -0.52130  -0.52056  -0.51672  -0.51638  -0.51521
 Alpha  occ. eigenvalues --   -0.51464  -0.50999  -0.50996  -0.50415  -0.50342
 Alpha  occ. eigenvalues --   -0.49826  -0.49807  -0.49735  -0.49621  -0.49362
 Alpha  occ. eigenvalues --   -0.49351  -0.49052  -0.49045  -0.48934  -0.48930
 Alpha  occ. eigenvalues --   -0.48433  -0.48404  -0.48302  -0.48259  -0.48216
 Alpha  occ. eigenvalues --   -0.48174  -0.47519  -0.47428  -0.47121  -0.46955
 Alpha  occ. eigenvalues --   -0.46583  -0.46508  -0.46403  -0.46398  -0.46155
 Alpha  occ. eigenvalues --   -0.46069  -0.45964  -0.45889  -0.45643  -0.45638
 Alpha  occ. eigenvalues --   -0.44993  -0.44985  -0.44410  -0.44368  -0.44322
 Alpha  occ. eigenvalues --   -0.44281  -0.43979  -0.43958  -0.43900  -0.43842
 Alpha  occ. eigenvalues --   -0.43828  -0.43803  -0.43380  -0.43337  -0.43218
 Alpha  occ. eigenvalues --   -0.43197  -0.42838  -0.42795  -0.42716  -0.42596
 Alpha  occ. eigenvalues --   -0.42398  -0.42308  -0.41764  -0.41701  -0.41516
 Alpha  occ. eigenvalues --   -0.41488  -0.41364  -0.41266  -0.40961  -0.40818
 Alpha  occ. eigenvalues --   -0.40708  -0.40661  -0.40613  -0.40521  -0.40335
 Alpha  occ. eigenvalues --   -0.40241  -0.40108  -0.40101  -0.39132  -0.39094
 Alpha  occ. eigenvalues --   -0.38247  -0.38132  -0.37605  -0.37515  -0.37096
 Alpha  occ. eigenvalues --   -0.37095  -0.37056  -0.37024  -0.36643  -0.36598
 Alpha  occ. eigenvalues --   -0.36021  -0.36015  -0.34082  -0.34060  -0.33744
 Alpha  occ. eigenvalues --   -0.33683  -0.32987  -0.32981  -0.31213  -0.31171
 Alpha  occ. eigenvalues --   -0.30844  -0.30791  -0.29850  -0.29780  -0.29256
 Alpha  occ. eigenvalues --   -0.29153  -0.29110  -0.29009  -0.23877  -0.23841
 Alpha  occ. eigenvalues --   -0.20920  -0.20918
 Alpha virt. eigenvalues --   -0.08603  -0.08574  -0.01549  -0.01495   0.00109
 Alpha virt. eigenvalues --    0.00117   0.02392   0.02401   0.02950   0.03870
 Alpha virt. eigenvalues --    0.04886   0.04899   0.05164   0.05279   0.06248

 Mulliken charges:
               1
     1  Mg   0.839355
     2  C   -0.003497
     3  C   -0.093852
     4  C   -0.046054
     5  C   -0.062412
     6  N   -0.256803
     7  C   -0.052399
     8  C   -0.014184
     9  C   -0.087019
    10  C    0.046174
    11  C    0.104900
    12  C    0.053077
    13  C   -0.071122
    14  H    0.033885
    15  N   -0.432983
    16  C    0.168373
    17  C   -0.177202
    18  C   -0.004507
    19  C    0.148549
    20  C    0.110216
    21  C    0.011564
    22  O   -0.250641
    23  C    0.062647
    24  N   -0.341311
    25  C    0.041358
    26  C   -0.027743
    27  C   -0.024183
    28  C    0.075324
    29  C    0.076451
    30  C    0.034856
    31  C   -0.005242
    32  N   -0.310847
    33  C    0.081431
    34  C   -0.167566
    35  C    0.008249
    36  C    0.083783
    37  C    0.127034
    38  C    0.046512
    39  O   -0.188532
    40  C   -0.005690
    41  C    0.213136
    42  O   -0.257993
    43  O   -0.304415
    44  C    0.158136
    45  H   -0.018067
    46  H   -0.017578
    47  H   -0.040282
    48  H    0.000524
    49  H   -0.004049
    50  H    0.025210
    51  H    0.016458
    52  H    0.016290
    53  H    0.012389
    54  H    0.043567
    55  H    0.017844
    56  H    0.018574
    57  H    0.005944
    58  H    0.026025
    59  H    0.039778
    60  H    0.037584
    61  H    0.034010
    62  H    0.031154
    63  H    0.016042
    64  H    0.008917
    65  H    0.022308
    66  H    0.012109
    67  H    0.004509
    68  H    0.004588
    69  H    0.005985
    70  H    0.005619
    71  H    0.025639
    72  H    0.029493
    73  H    0.049132
    74  H    0.010660
    75  H    0.045154
    76  H    0.034921
    77  H    0.043072
    78  H    0.046279
    79  H    0.051861
    80  Mg   0.838300
    81  C   -0.017350
    82  C   -0.087807
    83  C   -0.045812
    84  C   -0.062977
    85  N   -0.254566
    86  C   -0.049742
    87  C   -0.015171
    88  C   -0.090483
    89  C    0.045553
    90  C    0.114496
    91  C    0.062488
    92  C   -0.077378
    93  H    0.033398
    94  N   -0.423275
    95  C    0.162719
    96  C   -0.174909
    97  C   -0.008480
    98  C    0.151866
    99  C    0.099455
   100  C    0.014615
   101  O   -0.254487
   102  C    0.061487
   103  N   -0.350317
   104  C    0.037683
   105  C   -0.019298
   106  C   -0.034949
   107  C    0.089566
   108  C    0.074035
   109  C    0.034424
   110  C   -0.010040
   111  N   -0.324577
   112  C    0.079763
   113  C   -0.160660
   114  C    0.002046
   115  C    0.097095
   116  C    0.131248
   117  C    0.042883
   118  O   -0.187823
   119  C    0.000660
   120  C    0.211394
   121  O   -0.251451
   122  O   -0.305484
   123  C    0.152452
   124  H   -0.020264
   125  H   -0.016538
   126  H   -0.038813
   127  H   -0.001000
   128  H   -0.004522
   129  H    0.022202
   130  H    0.014379
   131  H    0.015819
   132  H    0.014611
   133  H    0.037170
   134  H    0.020673
   135  H    0.019869
   136  H    0.008715
   137  H    0.025281
   138  H    0.039542
   139  H    0.038538
   140  H    0.034447
   141  H    0.033347
   142  H    0.013680
   143  H    0.011657
   144  H    0.023919
   145  H    0.011130
   146  H    0.005362
   147  H    0.003566
   148  H    0.005242
   149  H    0.006260
   150  H    0.030048
   151  H    0.030311
   152  H    0.047765
   153  H    0.010498
   154  H    0.045925
   155  H    0.034664
   156  H    0.043807
   157  H    0.049283
   158  H    0.052360
 Sum of Mulliken charges =  -0.00000

 Dipole moment (field-independent basis, Debye):
    X=             -0.0887    Y=              0.5156    Z=              6.7687  Tot=              6.7889
 Quadrupole moment (field-independent basis, Debye-Ang):
   XX=           -466.3131   YY=           -472.8215   ZZ=           -539.8594
   XY=             25.9901   XZ=             -0.0001   YZ=             -6.5506

 Normal termination of Gaussian 16 at Thu Sep  9 17:05:18 2021.
