 Gaussian 16, Revision A.03,
 Gaussian 16:  ES64L-G16RevA.03 25-Dec-2016

 -----------------------------------
 #p cam-b3lyp/Def2SVP td=(nstates=5)
 -----------------------------------

 --------------------------------
 TDDFT excited states in gaussian
 --------------------------------
 Symbolic Z-matrix:
 Charge =  0 Multiplicity = 1

                         Standard orientation:
 ---------------------------------------------------------------------
 Center     Atomic      Atomic             Coordinates (Angstroms)
 Number     Number       Type             X           Y           Z
 ---------------------------------------------------------------------
      1         12           0        6.528963   -0.640187   -0.432672
      2          6           0        6.736973    2.792710    0.559379
      3          6           0        7.591900   -1.456773    2.705228
      4          6           0        6.789579   -3.642498   -1.420006
      5          6           0        6.590800    0.464414   -3.737471
      6          7           0        7.062352    0.599961    1.321801
      7          6           0        7.042003    1.901669    1.590712
      8          6           0        7.301730    2.226488    3.092181
      9          6           0        8.097800    0.907006    3.501129
     10          6           0        7.525159   -0.051083    2.471532
     11          6           0        9.604381    1.013790    3.288259
     12          6           0        5.972931    2.369866    3.907942
     13          6           0        6.122481    3.002765    5.294459
     14          1           0        5.059974    3.865342    5.788814
     15          7           0        6.630583   -2.323201    0.596884
     16          6           0        7.073356   -2.468956    1.868887
     17          6           0        6.951755   -3.909426    2.180239
     18          6           0        6.581230   -4.616963    0.923180
     19          6           0        6.679200   -3.545576   -0.034896
     20          6           0        7.131102   -4.471664    3.557000
     21          6           0        6.209634   -6.036150    0.629996
     22          8           0        6.150517   -6.491142   -0.563345
     23          6           0        6.000138   -6.914508    1.795174
     24          7           0        6.891357   -1.493589   -2.302969
     25          6           0        6.896187   -2.821075   -2.466497
     26          6           0        6.892469   -3.192200   -3.919835
     27          6           0        6.637760   -1.835192   -4.721960
     28          6           0        6.619929   -0.853134   -3.524666
     29          6           0        8.170743   -3.861914   -4.442818
     30          6           0        5.444339   -1.815646   -5.709778
     31          6           0        4.143205   -1.908452   -4.944576
     32          7           0        6.464694    1.279047   -1.444332
     33          6           0        6.525394    1.505810   -2.826927
     34          6           0        6.557482    2.966689   -3.024086
     35          6           0        6.529768    3.491417   -1.733451
     36          6           0        6.509814    2.425508   -0.789135
     37          6           0        6.663833    3.636677   -4.274781
     38          6           0        6.537243    4.704367   -0.931858
     39          8           0        6.456476    5.908276   -1.179999
     40          6           0        6.794707    4.299849    0.586662
     41          6           0        5.782166    5.027179    1.428719
     42          8           0        4.567022    4.755493    1.345185
     43          8           0        6.418262    5.752172    2.361622
     44          6           0        5.470089    6.475916    3.250057
     45          1           0        8.141149   -1.821688    3.575345
     46          1           0        6.770757   -4.662959   -1.808261
     47          1           0        6.525064    0.883701   -4.743120
     48          1           0        7.923092    3.105147    3.266222
     49          1           0        7.846112    0.575607    4.508378
     50          1           0        9.869037    1.934552    2.768572
     51          1           0        9.875614    0.145820    2.686964
     52          1           0       10.137856    0.902624    4.232623
     53          1           0        5.617760    1.379677    4.193319
     54          1           0        5.227611    2.924606    3.336901
     55          1           0        7.092399    3.487643    5.408749
     56          1           0        6.130141    2.203562    6.035685
     57          1           0        7.559669   -3.736584    4.237097
     58          1           0        7.889598   -5.251023    3.486340
     59          1           0        6.206554   -4.893195    3.951786
     60          1           0        6.911624   -6.943379    2.392593
     61          1           0        5.654359   -7.867093    1.395340
     62          1           0        5.229862   -6.478561    2.432022
     63          1           0        6.090067   -3.894481   -4.142050
     64          1           0        7.494878   -1.555339   -5.334907
     65          1           0        7.999146   -4.837820   -4.897643
     66          1           0        8.875860   -3.934676   -3.615287
     67          1           0        8.737772   -3.267899   -5.159086
     68          1           0        5.487914   -2.677977   -6.374181
     69          1           0        5.413982   -0.920006   -6.330390
     70          1           0        4.030629   -2.980206   -4.784881
     71          1           0        3.321075   -1.514406   -5.542941
     72          1           0        4.223912   -1.439558   -3.963703
     73          1           0        5.954139    4.463146   -4.239404
     74          1           0        6.447200    2.963756   -5.104149
     75          1           0        7.708616    3.945981   -4.249967
     76          1           0        7.815054    4.600519    0.822480
     77          1           0        5.732951    7.532928    3.206872
     78          1           0        5.516770    5.982172    4.220852
     79          1           0        4.430814    6.508706    2.921162
     80         12           0       -6.685652   -0.827373    0.307574
     81          6           0       -6.607333    2.456156   -1.138579
     82          6           0       -5.665262    0.599339    3.232955
     83          6           0       -6.310049   -3.749227    1.486203
     84          6           0       -6.579439   -2.105822   -2.932799
     85          7           0       -6.229310    1.267263    0.852079
     86          6           0       -6.294463    2.438307    0.236640
     87          6           0       -6.086893    3.665104    1.164779
     88          6           0       -5.250574    2.945204    2.331475
     89          6           0       -5.767925    1.518641    2.158505
     90          6           0       -3.751270    2.942889    2.083662
     91          6           0       -7.442519    4.243658    1.702891
     92          6           0       -7.337689    5.621138    2.361171
     93          1           0       -8.444089    6.559178    2.192517
     94          7           0       -6.555920   -1.446528    2.188634
     95          6           0       -6.143703   -0.729168    3.254827
     96          6           0       -6.211349   -1.643437    4.405358
     97          6           0       -6.539739   -3.005436    3.903524
     98          6           0       -6.459058   -2.785957    2.473339
     99          6           0       -6.053369   -1.179060    5.824090
    100          6           0       -6.859329   -4.295426    4.596336
    101          8           0       -6.879014   -5.411330    3.966098
    102          6           0       -7.056698   -4.226615    6.051600
    103          7           0       -6.262075   -2.660712   -0.576612
    104          6           0       -6.205149   -3.785667    0.157674
    105          6           0       -6.161833   -5.010920   -0.723954
    106          6           0       -6.446640   -4.483616   -2.206659
    107          6           0       -6.520127   -2.966639   -1.925999
    108          6           0       -4.850996   -5.796919   -0.706645
    109          6           0       -7.618708   -5.150279   -2.977700
    110          6           0       -8.934894   -4.793252   -2.325354
    111          7           0       -6.793094   -0.012156   -1.690411
    112          6           0       -6.702497   -0.722495   -2.907499
    113          6           0       -6.713241    0.276032   -3.996194
    114          6           0       -6.786719    1.509043   -3.330784
    115          6           0       -6.799085    1.295107   -1.925947
    116          6           0       -6.610983   -0.008630   -5.387103
    117          6           0       -6.845900    2.943458   -3.497105
    118          8           0       -6.952469    3.702735   -4.459328
    119          6           0       -6.604812    3.626599   -2.082322
    120          6           0       -7.658286    4.683078   -1.891101
    121          8           0       -8.857256    4.368936   -1.789130
    122          8           0       -7.059778    5.862400   -1.643371
    123          6           0       -8.063766    6.939759   -1.435714
    124          1           0       -5.130508    0.908914    4.131339
    125          1           0       -6.287512   -4.783760    1.836496
    126          1           0       -6.648187   -2.428859   -3.973757
    127          1           0       -5.504212    4.469149    0.731438
    128          1           0       -5.522464    3.333428    3.309595
    129          1           0       -3.504348    3.322727    1.103406
    130          1           0       -3.438879    1.911237    2.179379
    131          1           0       -3.236767    3.488668    2.879736
    132          1           0       -7.769069    3.647828    2.564921
    133          1           0       -8.180932    4.270032    0.925274
    134          1           0       -6.381421    6.111267    2.141473
    135          1           0       -7.327504    5.487613    3.445648
    136          1           0       -5.656860   -0.157304    5.871121
    137          1           0       -5.269481   -1.795724    6.276977
    138          1           0       -6.970084   -1.288108    6.407537
    139          1           0       -6.160202   -3.826340    6.519097
    140          1           0       -7.363720   -5.230100    6.352642
    141          1           0       -7.864848   -3.517193    6.261900
    142          1           0       -6.936882   -5.714715   -0.446338
    143          1           0       -5.581440   -4.639345   -2.867726
    144          1           0       -4.982010   -6.857953   -0.421819
    145          1           0       -4.165983   -5.303382   -0.030092
    146          1           0       -4.295944   -5.789950   -1.643165
    147          1           0       -7.533425   -6.238643   -2.929228
    148          1           0       -7.656606   -4.876629   -4.026831
    149          1           0       -9.010678   -5.518359   -1.509531
    150          1           0       -9.755327   -4.906082   -3.031191
    151          1           0       -8.893142   -3.794372   -1.875758
    152          1           0       -7.340183    0.614986   -5.886963
    153          1           0       -6.782602   -1.063558   -5.590698
    154          1           0       -5.572690    0.281038   -5.569649
    155          1           0       -5.598877    4.048052   -2.089199
    156          1           0       -7.830793    7.735562   -2.149932
    157          1           0       -8.009277    7.195752   -0.360882
    158          1           0       -9.093890    6.720947   -1.691455
 ---------------------------------------------------------------------

 SCF Done:  E(RCAM-B3LYP) =  -4069.81182342     A.U. after   19 cycles

 Excitation energies and oscillator strengths:

 Excited State   1:      Singlet-A      1.6679 eV  743.34 nm  f=0.0877  <S**2>=0.000
     309 -> 315       -0.10547
     310 -> 316        0.13565
     311 -> 313       -0.41948
     312 -> 314        0.54342
 This state for optimization and/or second-order correction.
 Total Energy, E(TD-HF/TD-DFT) =  -4069.75052776
 Copying the excited state density for this state as the 1-particle RhoCI density.

 Excited State   2:      Singlet-A      1.6863 eV  735.26 nm  f=0.6523  <S**2>=0.000
     309 -> 315        0.14046
     310 -> 316        0.10737
     311 -> 313        0.54242
     312 -> 314        0.41876

 Excited State   3:      Singlet-A      2.1844 eV  567.59 nm  f=0.0625  <S**2>=0.000
     309 -> 313       -0.16108
     310 -> 314        0.62259
     312 -> 316       -0.26283

 Excited State   4:      Singlet-A      2.1936 eV  565.22 nm  f=0.1298  <S**2>=0.000
     309 -> 313        0.62013
     310 -> 314        0.15961
     311 -> 315       -0.27023

 Excited State   5:      Singlet-A      2.6472 eV  468.36 nm  f=0.0000  <S**2>=0.000
     312 -> 313        0.70710

 The electronic state is 1-A.
 Alpha  occ. eigenvalues --  -46.87857 -46.87544 -19.26399 -19.26200 -19.19133
 Alpha  occ. eigenvalues --  -19.19023 -19.18861 -19.18640 -19.18232 -19.17926
 Alpha  occ. eigenvalues --  -14.42515 -14.42373 -14.41507 -14.41246 -14.39462
 Alpha  occ. eigenvalues --  -14.39241 -14.38646 -14.38484 -10.39188 -10.38951
 Alpha  occ. eigenvalues --  -10.35494 -10.35320 -10.34455 -10.34100 -10.31813
 Alpha  occ. eigenvalues --  -10.31609 -10.31471 -10.31174 -10.30979 -10.30898
 Alpha  occ. eigenvalues --  -10.30630 -10.30563 -10.30288 -10.30259 -10.30243
 Alpha  occ. eigenvalues --  -10.30039 -10.29974 -10.29784 -10.29686 -10.29331
 Alpha  occ. eigenvalues --  -10.29309 -10.29296 -10.28841 -10.28681 -10.28557
 Alpha  occ. eigenvalues --  -10.28514 -10.28427 -10.28288 -10.28198 -10.27965
 Alpha  occ. eigenvalues --  -10.27891 -10.27848 -10.27789 -10.27639 -10.27547
 Alpha  occ. eigenvalues --  -10.27541 -10.27537 -10.27492 -10.27469 -10.27425
 Alpha  occ. eigenvalues --  -10.27395 -10.27365 -10.27361 -10.27281 -10.27236
 Alpha  occ. eigenvalues --  -10.26905 -10.26828 -10.26553 -10.26447 -10.26369
 Alpha  occ. eigenvalues --  -10.26306 -10.26215 -10.26072 -10.26058 -10.25875
 Alpha  occ. eigenvalues --  -10.25826 -10.25777 -10.25749 -10.25472 -10.25304
 Alpha  occ. eigenvalues --  -10.24890 -10.24844 -10.24759 -10.24721 -10.24656
 Alpha  occ. eigenvalues --  -10.24580  -3.16600  -3.16294  -1.91482  -1.91176
 Alpha  occ. eigenvalues --   -1.91068  -1.90910  -1.90765  -1.90602  -1.16747
 Alpha  occ. eigenvalues --   -1.16497  -1.08693  -1.08530  -1.07262  -1.06894
 Alpha  occ. eigenvalues --   -1.06807  -1.06753  -1.04646  -1.04370  -1.03819
 Alpha  occ. eigenvalues --   -1.03547  -1.03291  -1.02928  -1.02469  -1.01997
 Alpha  occ. eigenvalues --   -0.92038  -0.91862  -0.89569  -0.89390  -0.89273
 Alpha  occ. eigenvalues --   -0.88991  -0.88336  -0.88120  -0.87921  -0.87740
 Alpha  occ. eigenvalues --   -0.87683  -0.87563  -0.87327  -0.87034  -0.85063
 Alpha  occ. eigenvalues --   -0.84861  -0.83985  -0.83778  -0.83014  -0.82855
 Alpha  occ. eigenvalues --   -0.82724  -0.82525  -0.81670  -0.81468  -0.80667
 Alpha  occ. eigenvalues --   -0.80323  -0.78851  -0.78536  -0.77282  -0.77024
 Alpha  occ. eigenvalues --   -0.77015  -0.76765  -0.76000  -0.75694  -0.74952
 Alpha  occ. eigenvalues --   -0.74694  -0.72830  -0.72585  -0.71735  -0.71452
 Alpha  occ. eigenvalues --   -0.69951  -0.69663  -0.68948  -0.68696  -0.67704
 Alpha  occ. eigenvalues --   -0.67490  -0.67306  -0.67082  -0.65368  -0.65132
 Alpha  occ. eigenvalues --   -0.64922  -0.64692  -0.64651  -0.64527  -0.64322
 Alpha  occ. eigenvalues --   -0.64099  -0.62385  -0.62149  -0.60494  -0.60246
 Alpha  occ. eigenvalues --   -0.59879  -0.59653  -0.59049  -0.58876  -0.58567
 Alpha  occ. eigenvalues --   -0.58308  -0.57663  -0.57422  -0.57367  -0.57131
 Alpha  occ. eigenvalues --   -0.56370  -0.56093  -0.56076  -0.55755  -0.55579
 Alpha  occ. eigenvalues --   -0.55401  -0.55344  -0.55136  -0.54596  -0.54372
 Alpha  occ. eigenvalues --   -0.53981  -0.53760  -0.53356  -0.53294  -0.53123
 Alpha  occ. eigenvalues --   -0.53021  -0.52992  -0.52818  -0.52779  -0.52567
 Alpha  occ. eigenvalues --   -0.52481  -0.52311  -0.51961  -0.51776  -0.51696
 Alpha  occ. eigenvalues --   -0.51532  -0.51261  -0.51082  -0.50621  -0.50397
 Alpha  occ. eigenvalues --   -0.50080  -0.49976  -0.49860  -0.49768  -0.49584
 Alpha  occ. eigenvalues --   -0.49373  -0.49279  -0.49172  -0.49079  -0.48955
 Alpha  occ. eigenvalues --   -0.48666  -0.48514  -0.48504  -0.48425  -0.48275
 Alpha  occ. eigenvalues --   -0.48242  -0.47761  -0.47477  -0.47357  -0.47015
 Alpha  occ. eigenvalues --   -0.46858  -0.46640  -0.46592  -0.46418  -0.46415
 Alpha  occ. eigenvalues --   -0.46223  -0.46164  -0.45972  -0.45892  -0.45695
 Alpha  occ. eigenvalues --   -0.45252  -0.45103  -0.44645  -0.44570  -0.44393
 Alpha  occ. eigenvalues --   -0.44347  -0.44202  -0.44162  -0.44084  -0.43989
 Alpha  occ. eigenvalues --   -0.43979  -0.43831  -0.43573  -0.43454  -0.43425
 Alpha  occ. eigenvalues --   -0.43258  -0.43090  -0.42804  -0.42792  -0.42773
 Alpha  occ. eigenvalues --   -0.42711  -0.42457  -0.42071  -0.41852  -0.41768
 Alpha  occ. eigenvalues --   -0.41615  -0.41545  -0.41329  -0.41206  -0.40943
 Alpha  occ. eigenvalues --   -0.40882  -0.40855  -0.40627  -0.40625  -0.40574
 Alpha  occ. eigenvalues --   -0.40380  -0.40337  -0.40094  -0.39484  -0.39334
 Alpha  occ. eigenvalues --   -0.38525  -0.38242  -0.37847  -0.37523  -0.37375
 Alpha  occ. eigenvalues --   -0.37344  -0.37155  -0.37069  -0.36805  -0.36639
 Alpha  occ. eigenvalues --   -0.36267  -0.36098  -0.34347  -0.34135  -0.33874
 Alpha  occ. eigenvalues --   -0.33729  -0.33249  -0.33061  -0.31392  -0.31197
 Alpha  occ. eigenvalues --   -0.31097  -0.30855  -0.30093  -0.29828  -0.29504
 Alpha  occ. eigenvalues --   -0.29378  -0.29226  -0.29099  -0.24142  -0.23918
 Alpha  occ. eigenvalues --   -0.21186  -0.21002
 Alpha virt. eigenvalues --   -0.08832  -0.08681  -0.01807  -0.01573  -0.00115
 Alpha virt. eigenvalues --    0.00074   0.02142   0.02323   0.03053   0.03331
 Alpha virt. eigenvalues --    0.04640   0.04862   0.04995   0.05304   0.06065

 Mulliken charges:
               1
     1  Mg   0.838578
     2  C   -0.003249
     3  C   -0.094330
     4  C   -0.045769
     5  C   -0.063729
     6  N   -0.256755
     7  C   -0.052609
     8  C   -0.013988
     9  C   -0.086960
    10  C    0.046178
    11  C    0.104785
    12  C    0.053569
    13  C   -0.071417
    14  H    0.034880
    15  N   -0.433152
    16  C    0.168353
    17  C   -0.177173
    18  C   -0.003906
    19  C    0.148681
    20  C    0.110166
    21  C    0.012351
    22  O   -0.249516
    23  C    0.062450
    24  N   -0.341117
    25  C    0.041252
    26  C   -0.028193
    27  C   -0.024025
    28  C    0.074770
    29  C    0.076131
    30  C    0.035086
    31  C   -0.004550
    32  N   -0.310491
    33  C    0.080355
    34  C   -0.169437
    35  C    0.008379
    36  C    0.082927
    37  C    0.127265
    38  C    0.046109
    39  O   -0.188361
    40  C   -0.005359
    41  C    0.212964
    42  O   -0.257684
    43  O   -0.304576
    44  C    0.157882
    45  H   -0.017611
    46  H   -0.016701
    47  H   -0.041150
    48  H    0.000968
    49  H   -0.004258
    50  H    0.025547
    51  H    0.016650
    52  H    0.016670
    53  H    0.010963
    54  H    0.043628
    55  H    0.018243
    56  H    0.017896
    57  H    0.005719
    58  H    0.026981
    59  H    0.039539
    60  H    0.037360
    61  H    0.035890
    62  H    0.031559
    63  H    0.016573
    64  H    0.009633
    65  H    0.023307
    66  H    0.012552
    67  H    0.004903
    68  H    0.006461
    69  H    0.005064
    70  H    0.008593
    71  H    0.018458
    72  H    0.028835
    73  H    0.047853
    74  H    0.009440
    75  H    0.046090
    76  H    0.035261
    77  H    0.043150
    78  H    0.046172
    79  H    0.052995
    80  Mg   0.837984
    81  C   -0.016709
    82  C   -0.087702
    83  C   -0.045767
    84  C   -0.064971
    85  N   -0.254647
    86  C   -0.049268
    87  C   -0.015247
    88  C   -0.090601
    89  C    0.045940
    90  C    0.114401
    91  C    0.062508
    92  C   -0.077795
    93  H    0.034412
    94  N   -0.423454
    95  C    0.162881
    96  C   -0.174845
    97  C   -0.008172
    98  C    0.152163
    99  C    0.099532
   100  C    0.015281
   101  O   -0.253526
   102  C    0.061308
   103  N   -0.350059
   104  C    0.037573
   105  C   -0.019810
   106  C   -0.034808
   107  C    0.089041
   108  C    0.073675
   109  C    0.034789
   110  C   -0.007619
   111  N   -0.324157
   112  C    0.078654
   113  C   -0.163169
   114  C    0.002499
   115  C    0.096203
   116  C    0.131433
   117  C    0.042521
   118  O   -0.187675
   119  C    0.000867
   120  C    0.211144
   121  O   -0.251396
   122  O   -0.305167
   123  C    0.152160
   124  H   -0.019710
   125  H   -0.015957
   126  H   -0.040683
   127  H    0.000364
   128  H   -0.004806
   129  H    0.024279
   130  H    0.014391
   131  H    0.016936
   132  H    0.013531
   133  H    0.037449
   134  H    0.021510
   135  H    0.019266
   136  H    0.008733
   137  H    0.025452
   138  H    0.039432
   139  H    0.037837
   140  H    0.035971
   141  H    0.033875
   142  H    0.014113
   143  H    0.012454
   144  H    0.024811
   145  H    0.011676
   146  H    0.005904
   147  H    0.006080
   148  H    0.003529
   149  H    0.010788
   150  H    0.017715
   151  H    0.030217
   152  H    0.045868
   153  H    0.008233
   154  H    0.047180
   155  H    0.036356
   156  H    0.044081
   157  H    0.049516
   158  H    0.053202
 Sum of Mulliken charges =  -0.00000

 Dipole moment (field-independent basis, Debye):
    X=              4.5272    Y=             -2.1451    Z=              6.8677  Tot=              8.5007
 Quadrupole moment (field-independent basis, Debye-Ang):
   XX=           -517.8885   YY=           -539.4652   ZZ=           -460.0052
   XY=            -11.4962   XZ=             -2.4196   YZ=             37.5812

 Normal termination of Gaussian 16 at Sat Sep  4 10:59:55 2021.
