 Gaussian 16, Revision A.03,
 Gaussian 16:  ES64L-G16RevA.03 25-Dec-2016

 -----------------------------------
 #p cam-b3lyp/Def2SVP td=(nstates=5)
 -----------------------------------

 --------------------------------
 TDDFT excited states in gaussian
 --------------------------------
 Symbolic Z-matrix:
 Charge =  0 Multiplicity = 1

                         Standard orientation:
 ---------------------------------------------------------------------
 Center     Atomic      Atomic             Coordinates (Angstroms)
 Number     Number       Type             X           Y           Z
 ---------------------------------------------------------------------
      1         12           0       -3.871617    0.343525   -0.730882
      2          6           0       -3.916240   -3.084438    0.298338
      3          6           0       -5.362875    1.101048    2.243235
      4          6           0       -4.256283    3.303514   -1.801918
      5          6           0       -3.450148   -0.796195   -3.997236
      6          7           0       -4.507158   -0.918623    0.973147
      7          6           0       -4.413139   -2.211312    1.268589
      8          6           0       -4.822225   -2.541193    2.735287
      9          6           0       -5.765900   -1.288320    3.021266
     10          6           0       -5.154747   -0.296551    2.047198
     11          6           0       -7.222788   -1.522126    2.634851
     12          6           0       -3.592589   -2.565269    3.704384
     13          6           0       -3.853932   -3.194169    5.076076
     14          1           0       -2.791126   -3.960343    5.709138
     15          7           0       -4.231414    2.022730    0.245676
     16          6           0       -4.832626    2.144205    1.453597
     17          6           0       -4.866434    3.592913    1.748191
     18          6           0       -4.407878    4.315880    0.529528
     19          6           0       -4.303822    3.230298   -0.411779
     20          6           0       -5.253285    4.152375    3.082769
     21          6           0       -4.120707    5.757963    0.253736
     22          8           0       -3.957350    6.204043   -0.933236
     23          6           0       -4.123322    6.662585    1.417649
     24          7           0       -4.077305    1.144647   -2.647528
     25          6           0       -4.170590    2.465394   -2.837030
     26          6           0       -4.024330    2.820635   -4.286979
     27          6           0       -3.566584    1.481344   -5.026250
     28          6           0       -3.611406    0.516485   -3.815752
     29          6           0       -5.281568    3.376396   -4.969982
     30          6           0       -2.266594    1.550935   -5.866252
     31          6           0       -1.077530    1.759397   -4.955335
     32          7           0       -3.531701   -1.573991   -1.689336
     33          6           0       -3.408980   -1.819168   -3.064655
     34          6           0       -3.298506   -3.279602   -3.234936
     35          6           0       -3.381831   -3.786960   -1.939757
     36          6           0       -3.561010   -2.713462   -1.021177
     37          6           0       -3.200599   -3.968890   -4.475795
     38          6           0       -3.385883   -4.988059   -1.120487
     39          8           0       -3.178567   -6.183568   -1.333255
     40          6           0       -3.854062   -4.590801    0.348806
     41          6           0       -2.893030   -5.222794    1.318502
     42          8           0       -1.702717   -4.851924    1.373050
     43          8           0       -3.574437   -5.988551    2.184437
     44          6           0       -2.682906   -6.621844    3.192538
     45          1           0       -6.039502    1.427946    3.035229
     46          1           0       -4.274483    4.317977   -2.205615
     47          1           0       -3.231462   -1.218848   -4.979576
     48          1           0       -5.386349   -3.466627    2.852590
     49          1           0       -5.663515   -0.926847    4.044290
     50          1           0       -7.348038   -2.466976    2.106180
     51          1           0       -7.490295   -0.685909    1.988574
     52          1           0       -7.871997   -1.446014    3.507497
     53          1           0       -3.355561   -1.546115    4.009675
     54          1           0       -2.742052   -3.061965    3.236190
     55          1           0       -4.787896   -3.756786    5.085175
     56          1           0       -4.014609   -2.390816    5.795108
     57          1           0       -5.698455    3.391225    3.722315
     58          1           0       -6.058847    4.865231    2.907798
     59          1           0       -4.419581    4.653312    3.575041
     60          1           0       -5.098668    6.621719    1.903013
     61          1           0       -3.811079    7.636467    1.042271
     62          1           0       -3.401330    6.298715    2.149274
     63          1           0       -3.260984    3.584862   -4.427287
     64          1           0       -4.319149    1.124957   -5.730031
     65          1           0       -5.137050    4.358477   -5.420911
     66          1           0       -6.083619    3.398776   -4.232755
     67          1           0       -5.709241    2.730001   -5.735936
     68          1           0       -2.300856    2.399809   -6.548297
     69          1           0       -2.089953    0.654606   -6.460931
     70          1           0       -1.072260    2.838379   -4.804995
     71          1           0       -0.160802    1.428934   -5.444839
     72          1           0       -1.235864    1.295492   -3.981575
     73          1           0       -2.435305   -4.733109   -4.340651
     74          1           0       -2.942356   -3.288824   -5.287229
     75          1           0       -4.212288   -4.363688   -4.567852
     76          1           0       -4.867355   -4.972804    0.468946
     77          1           0       -2.851944   -7.697432    3.139904
     78          1           0       -2.884647   -6.123768    4.141024
     79          1           0       -1.612704   -6.571511    2.988887
     80         12           0        3.915293    1.116869    0.642908
     81          6           0        4.302969   -2.080173   -0.940668
     82          6           0        2.708202   -0.545309    3.365898
     83          6           0        3.141937    3.928879    1.892672
     84          6           0        4.056840    2.550547   -2.530456
     85          7           0        3.595552   -1.035243    1.040934
     86          6           0        3.837112   -2.162119    0.388130
     87          6           0        3.640395   -3.449569    1.232727
     88          6           0        2.615429   -2.867422    2.323335
     89          6           0        3.015303   -1.394255    2.272705
     90          6           0        1.159707   -2.981932    1.902506
     91          6           0        4.974410   -3.936089    1.900358
     92          6           0        4.923567   -5.350280    2.482784
     93          1           0        6.123601   -6.178724    2.404744
     94          7           0        3.518355    1.622288    2.520552
     95          6           0        3.056705    0.816643    3.499882
     96          6           0        2.910010    1.671320    4.688240
     97          6           0        3.165863    3.081233    4.286490
     98          6           0        3.267099    2.931388    2.848642
     99          6           0        2.636942    1.120758    6.057815
    100          6           0        3.285293    4.355680    5.066042
    101          8           0        3.272836    5.500801    4.490394
    102          6           0        3.323248    4.227516    6.530159
    103          7           0        3.426740    2.950717   -0.206000
    104          6           0        3.184209    4.026176    0.563741
    105          6           0        3.127609    5.287889   -0.264066
    106          6           0        3.624720    4.866247   -1.724435
    107          6           0        3.805625    3.348644   -1.501814
    108          6           0        1.756340    5.955342   -0.366528
    109          6           0        4.809619    5.671718   -2.324358
    110          6           0        6.071366    5.396131   -1.538581
    111          7           0        4.321392    0.420629   -1.361683
    112          6           0        4.303199    1.183688   -2.549744
    113          6           0        4.528253    0.248711   -3.671178
    114          6           0        4.639711   -1.006700   -3.054726
    115          6           0        4.474258   -0.866943   -1.650233
    116          6           0        4.557274    0.596466   -5.051151
    117          6           0        4.849133   -2.419802   -3.273773
    118          8           0        5.132728   -3.115133   -4.248358
    119          6           0        4.514435   -3.194982   -1.927127
    120          6           0        5.632546   -4.164835   -1.659274
    121          8           0        6.778364   -3.753820   -1.404780
    122          8           0        5.121190   -5.402995   -1.533432
    123          6           0        6.190413   -6.398777   -1.255939
    124          1           0        2.106611   -0.947039    4.181736
    125          1           0        2.984931    4.937634    2.281570
    126          1           0        4.212162    2.932822   -3.541595
    127          1           0        3.186724   -4.277066    0.700562
    128          1           0        2.810195   -3.281718    3.309130
    129          1           0        1.060648   -3.329460    0.884887
    130          1           0        0.744828   -1.987718    2.004839
    131          1           0        0.611434   -3.611500    2.609162
    132          1           0        5.145651   -3.360542    2.819137
    133          1           0        5.794852   -3.857293    1.213851
    134          1           0        4.047323   -5.909141    2.132324
    135          1           0        4.779229   -5.275578    3.563337
    136          1           0        2.333489    0.067456    6.014783
    137          1           0        1.753637    1.642428    6.441872
    138          1           0        3.468254    1.277880    6.748392
    139          1           0        2.420581    3.726953    6.872364
    140          1           0        3.500703    5.236533    6.907327
    141          1           0        4.164518    3.580665    6.803028
    142          1           0        3.798367    6.040547    0.131783
    143          1           0        2.828701    4.981097   -2.474770
    144          1           0        1.756180    7.007216   -0.023544
    145          1           0        1.047991    5.369291    0.203837
    146          1           0        1.313143    5.949757   -1.360893
    147          1           0        4.619526    6.744518   -2.239972
    148          1           0        4.990317    5.458144   -3.372554
    149          1           0        5.987795    6.080998   -0.689425
    150          1           0        6.952058    5.616722   -2.138365
    151          1           0        6.071516    4.375055   -1.139764
    152          1           0        5.392402    0.065629   -5.488508
    153          1           0        4.652770    1.671568   -5.188316
    154          1           0        3.577234    0.227969   -5.365804
    155          1           0        3.558786   -3.701057   -2.069289
    156          1           0        6.113560   -7.172961   -2.025634
    157          1           0        6.039223   -6.714904   -0.206676
    158          1           0        7.218198   -6.078351   -1.380148
 ---------------------------------------------------------------------

 SCF Done:  E(RCAM-B3LYP) =  -4069.81425539     A.U. after   19 cycles

 Excitation energies and oscillator strengths:

 Excited State   1:      Singlet-A      1.6449 eV  753.75 nm  f=0.0832  <S**2>=0.000
     309 -> 315       -0.10850
     310 -> 316        0.12450
     311 -> 313       -0.44740
     312 -> 314        0.52235
 This state for optimization and/or second-order correction.
 Total Energy, E(TD-HF/TD-DFT) =  -4069.75380674
 Copying the excited state density for this state as the 1-particle RhoCI density.

 Excited State   2:      Singlet-A      1.6971 eV  730.57 nm  f=0.5855  <S**2>=0.000
     309 -> 315        0.13737
     310 -> 316        0.11447
     311 -> 313        0.51960
     312 -> 314        0.44503

 Excited State   3:      Singlet-A      2.1773 eV  569.43 nm  f=0.0479  <S**2>=0.000
     309 -> 313       -0.26447
     310 -> 314        0.58930
     311 -> 315        0.10761
     312 -> 316       -0.23965

 Excited State   4:      Singlet-A      2.1930 eV  565.36 nm  f=0.0020  <S**2>=0.000
     312 -> 313        0.70226

 Excited State   5:      Singlet-A      2.1980 eV  564.07 nm  f=0.1305  <S**2>=0.000
     309 -> 313        0.57966
     310 -> 314        0.25690
     311 -> 315       -0.25658
     312 -> 316       -0.11448

 The electronic state is 1-A.
 Alpha  occ. eigenvalues --  -46.87978 -46.87300 -19.26868 -19.25897 -19.19747
 Alpha  occ. eigenvalues --  -19.18931 -19.18742 -19.18522 -19.18416 -19.17703
 Alpha  occ. eigenvalues --  -14.42651 -14.42058 -14.41627 -14.41008 -14.39575
 Alpha  occ. eigenvalues --  -14.39014 -14.38773 -14.38248 -10.39701 -10.38663
 Alpha  occ. eigenvalues --  -10.35558 -10.35209 -10.34653 -10.33865 -10.32250
 Alpha  occ. eigenvalues --  -10.31627 -10.31329 -10.31141 -10.30824 -10.30763
 Alpha  occ. eigenvalues --  -10.30681 -10.30574 -10.30353 -10.30095 -10.30081
 Alpha  occ. eigenvalues --  -10.30011 -10.29820 -10.29799 -10.29563 -10.29408
 Alpha  occ. eigenvalues --  -10.29112 -10.29103 -10.29075 -10.29027 -10.28569
 Alpha  occ. eigenvalues --  -10.28388 -10.28155 -10.28039 -10.28007 -10.27963
 Alpha  occ. eigenvalues --  -10.27916 -10.27745 -10.27676 -10.27633 -10.27625
 Alpha  occ. eigenvalues --  -10.27598 -10.27589 -10.27507 -10.27289 -10.27251
 Alpha  occ. eigenvalues --  -10.27245 -10.27225 -10.27184 -10.27165 -10.27081
 Alpha  occ. eigenvalues --  -10.27067 -10.26603 -10.26466 -10.26440 -10.26313
 Alpha  occ. eigenvalues --  -10.26282 -10.26175 -10.26152 -10.25925 -10.25894
 Alpha  occ. eigenvalues --  -10.25649 -10.25603 -10.25558 -10.25050 -10.25020
 Alpha  occ. eigenvalues --  -10.24969 -10.24795 -10.24542 -10.24504 -10.24437
 Alpha  occ. eigenvalues --  -10.24357  -3.16720  -3.16051  -1.91601  -1.91188
 Alpha  occ. eigenvalues --   -1.91030  -1.90933  -1.90520  -1.90359  -1.17225
 Alpha  occ. eigenvalues --   -1.16199  -1.08902  -1.08303  -1.07330  -1.07292
 Alpha  occ. eigenvalues --   -1.06784  -1.06526  -1.04792  -1.04063  -1.03942
 Alpha  occ. eigenvalues --   -1.03411  -1.03287  -1.02700  -1.02593  -1.01755
 Alpha  occ. eigenvalues --   -0.92218  -0.91588  -0.89684  -0.89479  -0.89176
 Alpha  occ. eigenvalues --   -0.88446  -0.88430  -0.88027  -0.87896  -0.87885
 Alpha  occ. eigenvalues --   -0.87489  -0.87408  -0.87268  -0.86882  -0.85260
 Alpha  occ. eigenvalues --   -0.84443  -0.84110  -0.83567  -0.83095  -0.82895
 Alpha  occ. eigenvalues --   -0.82726  -0.82136  -0.81922  -0.81190  -0.80839
 Alpha  occ. eigenvalues --   -0.80062  -0.78947  -0.78349  -0.77429  -0.77227
 Alpha  occ. eigenvalues --   -0.76765  -0.76377  -0.76198  -0.75207  -0.75081
 Alpha  occ. eigenvalues --   -0.74413  -0.72951  -0.72335  -0.71886  -0.71077
 Alpha  occ. eigenvalues --   -0.70045  -0.69446  -0.69129  -0.68302  -0.67859
 Alpha  occ. eigenvalues --   -0.67492  -0.67268  -0.66767  -0.65576  -0.65119
 Alpha  occ. eigenvalues --   -0.64868  -0.64749  -0.64441  -0.64382  -0.64191
 Alpha  occ. eigenvalues --   -0.63862  -0.62667  -0.61883  -0.60587  -0.60067
 Alpha  occ. eigenvalues --   -0.60055  -0.59224  -0.59203  -0.58737  -0.58608
 Alpha  occ. eigenvalues --   -0.58052  -0.57955  -0.57499  -0.57158  -0.56912
 Alpha  occ. eigenvalues --   -0.56566  -0.56347  -0.55867  -0.55722  -0.55598
 Alpha  occ. eigenvalues --   -0.55468  -0.55107  -0.54903  -0.54842  -0.54200
 Alpha  occ. eigenvalues --   -0.54124  -0.53512  -0.53462  -0.53340  -0.53157
 Alpha  occ. eigenvalues --   -0.52921  -0.52908  -0.52750  -0.52580  -0.52539
 Alpha  occ. eigenvalues --   -0.52198  -0.52117  -0.52056  -0.51879  -0.51620
 Alpha  occ. eigenvalues --   -0.51431  -0.51171  -0.50809  -0.50674  -0.50261
 Alpha  occ. eigenvalues --   -0.50197  -0.50085  -0.49754  -0.49620  -0.49526
 Alpha  occ. eigenvalues --   -0.49464  -0.49352  -0.49030  -0.48902  -0.48806
 Alpha  occ. eigenvalues --   -0.48686  -0.48594  -0.48391  -0.48089  -0.48049
 Alpha  occ. eigenvalues --   -0.47975  -0.47916  -0.47491  -0.47146  -0.47006
 Alpha  occ. eigenvalues --   -0.46845  -0.46793  -0.46575  -0.46377  -0.46290
 Alpha  occ. eigenvalues --   -0.46101  -0.45977  -0.45896  -0.45736  -0.45388
 Alpha  occ. eigenvalues --   -0.45361  -0.44848  -0.44836  -0.44708  -0.44375
 Alpha  occ. eigenvalues --   -0.44305  -0.44218  -0.44162  -0.44074  -0.43815
 Alpha  occ. eigenvalues --   -0.43785  -0.43623  -0.43575  -0.43455  -0.43256
 Alpha  occ. eigenvalues --   -0.43151  -0.43139  -0.42830  -0.42819  -0.42511
 Alpha  occ. eigenvalues --   -0.42466  -0.42250  -0.42227  -0.41937  -0.41800
 Alpha  occ. eigenvalues --   -0.41595  -0.41357  -0.41253  -0.41125  -0.41005
 Alpha  occ. eigenvalues --   -0.40967  -0.40741  -0.40568  -0.40517  -0.40399
 Alpha  occ. eigenvalues --   -0.40233  -0.39914  -0.39684  -0.39577  -0.39133
 Alpha  occ. eigenvalues --   -0.38656  -0.38105  -0.37971  -0.37533  -0.37499
 Alpha  occ. eigenvalues --   -0.37230  -0.37171  -0.36879  -0.36688  -0.36465
 Alpha  occ. eigenvalues --   -0.36367  -0.35810  -0.34510  -0.34355  -0.33865
 Alpha  occ. eigenvalues --   -0.33457  -0.33392  -0.32818  -0.31470  -0.31241
 Alpha  occ. eigenvalues --   -0.31076  -0.30576  -0.30288  -0.29610  -0.29597
 Alpha  occ. eigenvalues --   -0.29497  -0.29045  -0.28891  -0.24280  -0.23666
 Alpha  occ. eigenvalues --   -0.21308  -0.20745
 Alpha virt. eigenvalues --   -0.08952  -0.08460  -0.01927  -0.01336  -0.00229
 Alpha virt. eigenvalues --    0.00297   0.01991   0.02384   0.02636   0.03674
 Alpha virt. eigenvalues --    0.04399   0.04478   0.05234   0.05591   0.05753

 Mulliken charges:
               1
     1  Mg   0.839199
     2  C   -0.004830
     3  C   -0.094534
     4  C   -0.045463
     5  C   -0.062793
     6  N   -0.256795
     7  C   -0.053228
     8  C   -0.014025
     9  C   -0.086899
    10  C    0.046140
    11  C    0.104702
    12  C    0.052147
    13  C   -0.070990
    14  H    0.032055
    15  N   -0.433370
    16  C    0.169055
    17  C   -0.176387
    18  C   -0.003043
    19  C    0.148937
    20  C    0.109906
    21  C    0.012880
    22  O   -0.249862
    23  C    0.061774
    24  N   -0.340938
    25  C    0.041554
    26  C   -0.028271
    27  C   -0.023952
    28  C    0.074577
    29  C    0.076070
    30  C    0.034831
    31  C   -0.004421
    32  N   -0.310514
    33  C    0.080257
    34  C   -0.168759
    35  C    0.007932
    36  C    0.082644
    37  C    0.127254
    38  C    0.044982
    39  O   -0.188467
    40  C   -0.005855
    41  C    0.215158
    42  O   -0.256799
    43  O   -0.302886
    44  C    0.157007
    45  H   -0.017443
    46  H   -0.016584
    47  H   -0.040343
    48  H    0.000944
    49  H   -0.004389
    50  H    0.025645
    51  H    0.017233
    52  H    0.016983
    53  H    0.011083
    54  H    0.042634
    55  H    0.019555
    56  H    0.018629
    57  H    0.005356
    58  H    0.027276
    59  H    0.041143
    60  H    0.037135
    61  H    0.036303
    62  H    0.034070
    63  H    0.016208
    64  H    0.009979
    65  H    0.023396
    66  H    0.012648
    67  H    0.005254
    68  H    0.006273
    69  H    0.005952
    70  H    0.007130
    71  H    0.018176
    72  H    0.030551
    73  H    0.048618
    74  H    0.010527
    75  H    0.046059
    76  H    0.036253
    77  H    0.045042
    78  H    0.046893
    79  H    0.051552
    80  Mg   0.836020
    81  C   -0.016901
    82  C   -0.088221
    83  C   -0.047157
    84  C   -0.065809
    85  N   -0.255802
    86  C   -0.046971
    87  C   -0.015243
    88  C   -0.092812
    89  C    0.047503
    90  C    0.122332
    91  C    0.062399
    92  C   -0.076937
    93  H    0.031751
    94  N   -0.423464
    95  C    0.163235
    96  C   -0.175910
    97  C   -0.009218
    98  C    0.152335
    99  C    0.100224
   100  C    0.014164
   101  O   -0.254453
   102  C    0.061638
   103  N   -0.350584
   104  C    0.037888
   105  C   -0.019893
   106  C   -0.034379
   107  C    0.089057
   108  C    0.073392
   109  C    0.034920
   110  C   -0.007479
   111  N   -0.324179
   112  C    0.078768
   113  C   -0.164295
   114  C    0.002423
   115  C    0.096030
   116  C    0.131172
   117  C    0.041683
   118  O   -0.188651
   119  C    0.001326
   120  C    0.210839
   121  O   -0.252269
   122  O   -0.303883
   123  C    0.152702
   124  H   -0.020193
   125  H   -0.017216
   126  H   -0.041891
   127  H    0.004747
   128  H   -0.009083
   129  H    0.031700
   130  H    0.005393
   131  H    0.021837
   132  H    0.012017
   133  H    0.036033
   134  H    0.023650
   135  H    0.017784
   136  H    0.008559
   137  H    0.023108
   138  H    0.038877
   139  H    0.036554
   140  H    0.035203
   141  H    0.034096
   142  H    0.013342
   143  H    0.012189
   144  H    0.024004
   145  H    0.011071
   146  H    0.008885
   147  H    0.005865
   148  H    0.002833
   149  H    0.010525
   150  H    0.017110
   151  H    0.030468
   152  H    0.045585
   153  H    0.007826
   154  H    0.045046
   155  H    0.039455
   156  H    0.043539
   157  H    0.049846
   158  H    0.052222
 Sum of Mulliken charges =  -0.00000

 Dipole moment (field-independent basis, Debye):
    X=             -5.9942    Y=              1.2662    Z=              6.0359  Tot=              8.6003
 Quadrupole moment (field-independent basis, Debye-Ang):
   XX=           -518.2476   YY=           -535.2741   ZZ=           -465.4509
   XY=              0.2586   XZ=             -2.6876   YZ=            -36.7496

 Normal termination of Gaussian 16 at Fri Sep  3 17:46:16 2021.
