 Gaussian 16, Revision A.03,
 Gaussian 16:  ES64L-G16RevA.03 25-Dec-2016

 -----------------------------------
 #p cam-b3lyp/Def2SVP td=(nstates=5)
 -----------------------------------

 --------------------------------
 TDDFT excited states in gaussian
 --------------------------------
 Symbolic Z-matrix:
 Charge =  0 Multiplicity = 1

                         Standard orientation:
 ---------------------------------------------------------------------
 Center     Atomic      Atomic             Coordinates (Angstroms)
 Number     Number       Type             X           Y           Z
 ---------------------------------------------------------------------
      1         12           0        4.149179   -0.395191   -0.151327
      2          6           0        3.363032   -3.818544   -0.840414
      3          6           0        4.838746   -0.039745   -3.474160
      4          6           0        5.280014    2.494250    0.503630
      5          6           0        4.494645   -1.302030    3.195904
      6          7           0        4.071162   -1.821251   -1.842750
      7          6           0        3.695996   -3.088747   -1.983732
      8          6           0        3.616929   -3.547949   -3.470425
      9          6           0        4.625610   -2.493870   -4.113448
     10          6           0        4.478031   -1.369300   -3.103753
     11          6           0        6.076852   -2.963324   -4.117173
     12          6           0        2.175648   -3.397038   -4.063438
     13          6           0        1.936726   -4.120285   -5.392040
     14          1           0        0.631914   -4.714146   -5.641324
     15          7           0        4.477016    1.151212   -1.336237
     16          6           0        4.723669    1.113241   -2.667780
     17          6           0        4.899582    2.519474   -3.089968
     18          6           0        4.923380    3.363341   -1.863014
     19          6           0        4.920683    2.354305   -0.834803
     20          6           0        4.976264    2.944511   -4.524267
     21          6           0        4.955683    4.843923   -1.650961
     22          8           0        5.206467    5.362227   -0.509452
     23          6           0        4.771101    5.683273   -2.848651
     24          7           0        5.011074    0.438707    1.557294
     25          6           0        5.360007    1.729385    1.594423
     26          6           0        5.687039    2.166616    2.991498
     27          6           0        5.252756    0.961565    3.944915
     28          6           0        4.801802   -0.047133    2.859816
     29          6           0        7.156967    2.521504    3.254894
     30          6           0        4.270814    1.294500    5.096159
     31          6           0        2.920831    1.669474    4.526913
     32          7           0        3.797671   -2.180242    1.032345
     33          6           0        4.031740   -2.340857    2.405694
     34          6           0        3.746308   -3.750478    2.730605
     35          6           0        3.379600   -4.319620    1.512637
     36          6           0        3.457916   -3.334699    0.486923
     37          6           0        3.896221   -4.358000    4.008446
     38          6           0        2.963578   -5.536725    0.834819
     39          8           0        2.640047   -6.666950    1.202805
     40          6           0        3.053720   -5.291285   -0.735997
     41          6           0        1.771133   -5.785496   -1.347580
     42          8           0        0.687435   -5.213870   -1.110496
     43          8           0        2.051194   -6.695497   -2.293099
     44          6           0        0.823322   -7.204849   -2.960215
     45          1           0        5.306514    0.128888   -4.446115
     46          1           0        5.570393    3.506077    0.794016
     47          1           0        4.499018   -1.637170    4.234709
     48          1           0        3.972518   -4.562292   -3.652327
     49          1           0        4.296306   -2.164213   -5.098642
     50          1           0        6.196618   -3.891938   -3.559273
     51          1           0        6.643760   -2.160224   -3.645856
     52          1           0        6.456558   -3.039976   -5.136351
     53          1           0        2.024878   -2.366125   -4.383667
     54          1           0        1.425173   -3.715978   -3.339290
     55          1           0        2.729777   -4.838165   -5.603291
     56          1           0        2.011561   -3.389247   -6.197138
     57          1           0        5.097463    2.090266   -5.189188
     58          1           0        5.899824    3.511515   -4.639387
     59          1           0        4.126739    3.562619   -4.815097
     60          1           0        5.550542    5.450849   -3.574600
     61          1           0        4.734403    6.712054   -2.492123
     62          1           0        3.824046    5.420950   -3.321115
     63          1           0        5.124142    3.058414    3.264021
     64          1           0        6.107933    0.508949    4.447393
     65          1           0        7.301629    3.532107    3.637594
     66          1           0        7.711156    2.370946    2.328882
     67          1           0        7.676781    1.843434    3.931231
     68          1           0        4.629085    2.152577    5.663867
     69          1           0        4.131150    0.469497    5.794810
     70          1           0        3.042552    2.725135    4.286919
     71          1           0        2.139806    1.526572    5.274436
     72          1           0        2.722752    1.143660    3.592692
     73          1           0        3.013970   -4.980890    4.155446
     74          1           0        3.987778   -3.608989    4.794704
     75          1           0        4.817728   -4.920156    3.857909
     76          1           0        3.918787   -5.850233   -1.091467
     77          1           0        0.829503   -8.290144   -2.858573
     78          1           0        0.824307   -6.791101   -3.968787
     79          1           0       -0.124009   -6.958515   -2.479358
     80         12           0       -3.486959    1.684128    0.576830
     81          6           0       -5.803243   -1.052731    0.423605
     82          6           0       -4.454063    2.485059   -2.594576
     83          6           0       -1.143515    3.822124    0.508557
     84          6           0       -1.916070    0.025833    3.208958
     85          7           0       -4.948808    0.760163   -0.802123
     86          6           0       -5.815017   -0.239143   -0.728518
     87          6           0       -6.800918   -0.325151   -1.924410
     88          6           0       -5.915295    0.443012   -3.021900
     89          6           0       -5.073438    1.313336   -2.091046
     90          6           0       -4.980995   -0.475679   -3.791582
     91          6           0       -8.148254    0.428445   -1.643698
     92          6           0       -9.272428    0.127717   -2.637463
     93          1           0      -10.645112    0.078839   -2.141658
     94          7           0       -3.212447    3.251282   -0.609438
     95          6           0       -3.696341    3.421636   -1.857680
     96          6           0       -3.194255    4.728728   -2.308905
     97          6           0       -2.239772    5.242090   -1.289034
     98          6           0       -2.143621    4.090424   -0.414671
     99          6           0       -3.684962    5.401944   -3.557669
    100          6           0       -1.521283    6.548225   -1.134195
    101          8           0       -0.556703    6.691650   -0.302429
    102          6           0       -1.917986    7.627326   -2.050529
    103          7           0       -1.653668    1.798250    1.550667
    104          6           0       -0.847037    2.860948    1.383520
    105          6           0        0.280092    2.853660    2.388463
    106          6           0       -0.076089    1.689128    3.425088
    107          6           0       -1.358160    1.141831    2.760149
    108          6           0        1.678322    2.616859    1.818137
    109          6           0       -0.130894    2.077309    4.928084
    110          6           0       -1.297864    3.004907    5.179334
    111          7           0       -3.884546   -0.076575    1.764236
    112          6           0       -3.083004   -0.606366    2.799091
    113          6           0       -3.707759   -1.874554    3.227825
    114          6           0       -4.825584   -2.007206    2.390354
    115          6           0       -4.881457   -0.910114    1.488819
    116          6           0       -3.207693   -2.750367    4.232313
    117          6           0       -5.965055   -2.831277    2.056872
    118          8           0       -6.478044   -3.840428    2.538743
    119          6           0       -6.577907   -2.314697    0.684309
    120          6           0       -8.067903   -2.199534    0.855045
    121          8           0       -8.551287   -1.369586    1.645066
    122          8           0       -8.678152   -2.930974   -0.095203
    123          6           0      -10.157627   -2.839724    0.025802
    124          1           0       -4.517752    2.686827   -3.664210
    125          1           0       -0.369292    4.587349    0.600752
    126          1           0       -1.541836   -0.500722    4.089507
    127          1           0       -7.019794   -1.331338   -2.261243
    128          1           0       -6.534328    1.061846   -3.666253
    129          1           0       -4.981508   -1.478425   -3.390780
    130          1           0       -3.996859   -0.034080   -3.704867
    131          1           0       -5.227019   -0.456690   -4.857158
    132          1           0       -8.006843    1.499340   -1.838417
    133          1           0       -8.489301    0.239734   -0.644351
    134          1           0       -9.054232   -0.754009   -3.252193
    135          1           0       -9.328692    0.948534   -3.356564
    136          1           0       -4.260560    4.711989   -4.186989
    137          1           0       -2.801671    5.644720   -4.158258
    138          1           0       -4.235923    6.322046   -3.351460
    139          1           0       -1.770825    7.301415   -3.077462
    140          1           0       -1.357164    8.506365   -1.727010
    141          1           0       -2.991258    7.812023   -1.929694
    142          1           0        0.329334    3.795402    2.921189
    143          1           0        0.664700    0.876609    3.395444
    144          1           0        2.391942    3.426472    2.061745
    145          1           0        1.593614    2.494312    0.746533
    146          1           0        2.148533    1.682856    2.121022
    147          1           0        0.769766    2.628199    5.210024
    148          1           0       -0.206990    1.222942    5.592348
    149          1           0       -0.897927    3.985087    4.902967
    150          1           0       -1.589268    2.978735    6.227393
    151          1           0       -2.129214    2.784531    4.499664
    152          1           0       -4.056599   -3.056762    4.828964
    153          1           0       -2.447653   -2.264708    4.840788
    154          1           0       -2.788436   -3.543959    3.608050
    155          1           0       -6.308864   -3.037252   -0.087132
    156          1           0      -10.535194   -3.863604    0.108216
    157          1           0      -10.492800   -2.247955   -0.846682
    158          1           0      -10.560140   -2.392675    0.927228
 ---------------------------------------------------------------------

 SCF Done:  E(RCAM-B3LYP) =  -4069.79594624     A.U. after   19 cycles

 Excitation energies and oscillator strengths:

 Excited State   1:      Singlet-A      1.6336 eV  758.96 nm  f=0.0014  <S**2>=0.000
     309 -> 315       -0.11161
     310 -> 316        0.11914
     311 -> 313       -0.46868
     312 -> 314        0.50385
 This state for optimization and/or second-order correction.
 Total Energy, E(TD-HF/TD-DFT) =  -4069.73591213
 Copying the excited state density for this state as the 1-particle RhoCI density.

 Excited State   2:      Singlet-A      1.7110 eV  724.64 nm  f=0.6717  <S**2>=0.000
     309 -> 315        0.13484
     310 -> 316        0.12429
     311 -> 313        0.50058
     312 -> 314        0.46566

 Excited State   3:      Singlet-A      2.1784 eV  569.14 nm  f=0.0447  <S**2>=0.000
     309 -> 313       -0.32175
     310 -> 314        0.56044
     311 -> 315        0.13153
     312 -> 316       -0.23005

 Excited State   4:      Singlet-A      2.1974 eV  564.23 nm  f=0.1371  <S**2>=0.000
     309 -> 313        0.55276
     310 -> 314        0.31429
     311 -> 315       -0.24526
     312 -> 316       -0.14334

 Excited State   5:      Singlet-A      2.2275 eV  556.60 nm  f=0.0008  <S**2>=0.000
     312 -> 313        0.70450

 The electronic state is 1-A.
 Alpha  occ. eigenvalues --  -46.87865 -46.87389 -19.26311 -19.26130 -19.19049
 Alpha  occ. eigenvalues --  -19.18931 -19.18735 -19.18486 -19.18215 -19.17749
 Alpha  occ. eigenvalues --  -14.42542 -14.42233 -14.41580 -14.41097 -14.39475
 Alpha  occ. eigenvalues --  -14.39086 -14.38687 -14.38307 -10.39113 -10.38853
 Alpha  occ. eigenvalues --  -10.35363 -10.35171 -10.34439 -10.33925 -10.31696
 Alpha  occ. eigenvalues --  -10.31569 -10.31510 -10.31028 -10.30975 -10.30787
 Alpha  occ. eigenvalues --  -10.30669 -10.30596 -10.30337 -10.30106 -10.30066
 Alpha  occ. eigenvalues --  -10.30054 -10.29917 -10.29698 -10.29612 -10.29333
 Alpha  occ. eigenvalues --  -10.29179 -10.29118 -10.28828 -10.28639 -10.28505
 Alpha  occ. eigenvalues --  -10.28502 -10.28432 -10.28203 -10.28136 -10.27920
 Alpha  occ. eigenvalues --  -10.27860 -10.27824 -10.27716 -10.27640 -10.27634
 Alpha  occ. eigenvalues --  -10.27618 -10.27519 -10.27487 -10.27416 -10.27319
 Alpha  occ. eigenvalues --  -10.27238 -10.27216 -10.27211 -10.27202 -10.27161
 Alpha  occ. eigenvalues --  -10.26790 -10.26762 -10.26509 -10.26312 -10.26300
 Alpha  occ. eigenvalues --  -10.26285 -10.26243 -10.26167 -10.25941 -10.25809
 Alpha  occ. eigenvalues --  -10.25771 -10.25655 -10.25544 -10.25416 -10.25032
 Alpha  occ. eigenvalues --  -10.24901 -10.24899 -10.24631 -10.24571 -10.24503
 Alpha  occ. eigenvalues --  -10.24404  -3.16617  -3.16138  -1.91498  -1.91086
 Alpha  occ. eigenvalues --   -1.91020  -1.90927  -1.90609  -1.90445  -1.16661
 Alpha  occ. eigenvalues --   -1.16421  -1.08672  -1.08354  -1.07118  -1.06744
 Alpha  occ. eigenvalues --   -1.06713  -1.06671  -1.04668  -1.04231  -1.03868
 Alpha  occ. eigenvalues --   -1.03396  -1.03323  -1.02767  -1.02509  -1.01836
 Alpha  occ. eigenvalues --   -0.92052  -0.91709  -0.89715  -0.89292  -0.89254
 Alpha  occ. eigenvalues --   -0.88930  -0.88469  -0.88009  -0.87956  -0.87771
 Alpha  occ. eigenvalues --   -0.87474  -0.87420  -0.87288  -0.86902  -0.85063
 Alpha  occ. eigenvalues --   -0.84776  -0.84117  -0.83680  -0.82993  -0.82748
 Alpha  occ. eigenvalues --   -0.82685  -0.82437  -0.81655  -0.81346  -0.80661
 Alpha  occ. eigenvalues --   -0.80197  -0.78850  -0.78383  -0.77376  -0.77051
 Alpha  occ. eigenvalues --   -0.76907  -0.76677  -0.76013  -0.75602  -0.75082
 Alpha  occ. eigenvalues --   -0.74618  -0.72921  -0.72441  -0.71771  -0.71435
 Alpha  occ. eigenvalues --   -0.70661  -0.69166  -0.68872  -0.68604  -0.67707
 Alpha  occ. eigenvalues --   -0.67351  -0.67263  -0.66992  -0.65377  -0.65056
 Alpha  occ. eigenvalues --   -0.64954  -0.64723  -0.64571  -0.64444  -0.64415
 Alpha  occ. eigenvalues --   -0.64080  -0.62374  -0.62066  -0.60498  -0.60113
 Alpha  occ. eigenvalues --   -0.59884  -0.59554  -0.59089  -0.58737  -0.58596
 Alpha  occ. eigenvalues --   -0.58179  -0.57649  -0.57417  -0.57280  -0.56998
 Alpha  occ. eigenvalues --   -0.56378  -0.56035  -0.55950  -0.55710  -0.55657
 Alpha  occ. eigenvalues --   -0.55506  -0.55218  -0.55110  -0.54719  -0.54256
 Alpha  occ. eigenvalues --   -0.53979  -0.53704  -0.53374  -0.53243  -0.53050
 Alpha  occ. eigenvalues --   -0.52971  -0.52916  -0.52756  -0.52713  -0.52603
 Alpha  occ. eigenvalues --   -0.52473  -0.52256  -0.52001  -0.51662  -0.51505
 Alpha  occ. eigenvalues --   -0.51440  -0.51404  -0.50960  -0.50620  -0.50357
 Alpha  occ. eigenvalues --   -0.50289  -0.49970  -0.49843  -0.49709  -0.49533
 Alpha  occ. eigenvalues --   -0.49278  -0.49261  -0.49171  -0.48960  -0.48869
 Alpha  occ. eigenvalues --   -0.48722  -0.48582  -0.48423  -0.48322  -0.48216
 Alpha  occ. eigenvalues --   -0.48105  -0.47769  -0.47422  -0.47363  -0.47169
 Alpha  occ. eigenvalues --   -0.46892  -0.46665  -0.46564  -0.46450  -0.46383
 Alpha  occ. eigenvalues --   -0.46325  -0.46069  -0.45939  -0.45779  -0.45649
 Alpha  occ. eigenvalues --   -0.45446  -0.45157  -0.44618  -0.44436  -0.44350
 Alpha  occ. eigenvalues --   -0.44306  -0.44161  -0.44069  -0.44038  -0.43864
 Alpha  occ. eigenvalues --   -0.43832  -0.43698  -0.43575  -0.43487  -0.43317
 Alpha  occ. eigenvalues --   -0.43098  -0.43057  -0.42738  -0.42695  -0.42625
 Alpha  occ. eigenvalues --   -0.42542  -0.42344  -0.42019  -0.41750  -0.41696
 Alpha  occ. eigenvalues --   -0.41591  -0.41415  -0.41248  -0.41214  -0.40932
 Alpha  occ. eigenvalues --   -0.40827  -0.40750  -0.40650  -0.40519  -0.40485
 Alpha  occ. eigenvalues --   -0.40286  -0.40033  -0.40010  -0.39273  -0.38927
 Alpha  occ. eigenvalues --   -0.38507  -0.38035  -0.37813  -0.37449  -0.37405
 Alpha  occ. eigenvalues --   -0.37341  -0.36968  -0.36929  -0.36718  -0.36534
 Alpha  occ. eigenvalues --   -0.36217  -0.35978  -0.34378  -0.33984  -0.33806
 Alpha  occ. eigenvalues --   -0.33623  -0.33267  -0.32902  -0.31284  -0.31099
 Alpha  occ. eigenvalues --   -0.31042  -0.30691  -0.30077  -0.29653  -0.29491
 Alpha  occ. eigenvalues --   -0.29386  -0.29071  -0.28896  -0.24182  -0.23760
 Alpha  occ. eigenvalues --   -0.21225  -0.20837
 Alpha virt. eigenvalues --   -0.08852  -0.08520  -0.01855  -0.01417  -0.00062
 Alpha virt. eigenvalues --    0.00211   0.02123   0.02506   0.02962   0.03693
 Alpha virt. eigenvalues --    0.04611   0.04988   0.05064   0.05406   0.06043

 Mulliken charges:
               1
     1  Mg   0.824975
     2  C   -0.001656
     3  C   -0.093918
     4  C   -0.048959
     5  C   -0.061758
     6  N   -0.254008
     7  C   -0.053412
     8  C   -0.013748
     9  C   -0.087068
    10  C    0.046132
    11  C    0.104774
    12  C    0.053560
    13  C   -0.071541
    14  H    0.035549
    15  N   -0.433082
    16  C    0.170725
    17  C   -0.177903
    18  C   -0.001448
    19  C    0.152245
    20  C    0.110538
    21  C    0.016825
    22  O   -0.248094
    23  C    0.061757
    24  N   -0.339485
    25  C    0.039336
    26  C   -0.027546
    27  C   -0.023929
    28  C    0.070615
    29  C    0.077410
    30  C    0.074363
    31  C   -0.058834
    32  N   -0.308810
    33  C    0.071804
    34  C   -0.169429
    35  C    0.007432
    36  C    0.084097
    37  C    0.127388
    38  C    0.046270
    39  O   -0.187771
    40  C   -0.005759
    41  C    0.212964
    42  O   -0.256682
    43  O   -0.304888
    44  C    0.157418
    45  H   -0.017485
    46  H   -0.016714
    47  H   -0.042460
    48  H    0.001144
    49  H   -0.004220
    50  H    0.025737
    51  H    0.016618
    52  H    0.016763
    53  H    0.010897
    54  H    0.044446
    55  H    0.018199
    56  H    0.017470
    57  H    0.005323
    58  H    0.027208
    59  H    0.039868
    60  H    0.035497
    61  H    0.038338
    62  H    0.032949
    63  H    0.014339
    64  H    0.009259
    65  H    0.023483
    66  H    0.013372
    67  H    0.005015
    68  H    0.003165
    69  H   -0.000903
    70  H    0.012330
    71  H    0.029580
    72  H    0.046946
    73  H    0.047349
    74  H    0.008072
    75  H    0.046493
    76  H    0.035365
    77  H    0.043465
    78  H    0.045899
    79  H    0.054303
    80  Mg   0.838787
    81  C   -0.016338
    82  C   -0.088470
    83  C   -0.047615
    84  C   -0.063600
    85  N   -0.254382
    86  C   -0.048873
    87  C   -0.015177
    88  C   -0.090659
    89  C    0.045857
    90  C    0.114655
    91  C    0.062673
    92  C   -0.077439
    93  H    0.034283
    94  N   -0.423137
    95  C    0.162510
    96  C   -0.176509
    97  C   -0.008546
    98  C    0.150823
    99  C    0.100334
   100  C    0.013537
   101  O   -0.251898
   102  C    0.061514
   103  N   -0.350126
   104  C    0.038486
   105  C   -0.009056
   106  C   -0.047621
   107  C    0.097570
   108  C    0.070698
   109  C    0.002121
   110  C    0.015756
   111  N   -0.325045
   112  C    0.079892
   113  C   -0.159627
   114  C    0.003385
   115  C    0.097215
   116  C    0.130707
   117  C    0.043882
   118  O   -0.187304
   119  C    0.000376
   120  C    0.210980
   121  O   -0.251510
   122  O   -0.305470
   123  C    0.152235
   124  H   -0.021429
   125  H   -0.013800
   126  H   -0.040619
   127  H   -0.000679
   128  H   -0.005354
   129  H    0.023951
   130  H    0.014242
   131  H    0.014337
   132  H    0.013684
   133  H    0.037647
   134  H    0.020522
   135  H    0.019038
   136  H    0.007932
   137  H    0.023363
   138  H    0.039058
   139  H    0.036063
   140  H    0.036097
   141  H    0.033835
   142  H    0.009786
   143  H    0.009641
   144  H    0.035653
   145  H    0.012223
   146  H   -0.004581
   147  H    0.020861
   148  H    0.006312
   149  H    0.008574
   150  H    0.014897
   151  H    0.026897
   152  H    0.044734
   153  H    0.006698
   154  H    0.054516
   155  H    0.036555
   156  H    0.043667
   157  H    0.048984
   158  H    0.053267
 Sum of Mulliken charges =  -0.00000

 Dipole moment (field-independent basis, Debye):
    X=              2.8762    Y=              2.9558    Z=             -7.7867  Tot=              8.8115
 Quadrupole moment (field-independent basis, Debye-Ang):
   XX=           -499.2494   YY=           -554.7101   ZZ=           -451.1206
   XY=            -22.6292   XZ=             30.7987   YZ=              8.3469

 Normal termination of Gaussian 16 at Thu Sep  9 08:36:07 2021.
