 Gaussian 16, Revision A.03,
 Gaussian 16:  ES64L-G16RevA.03 25-Dec-2016

 -----------------------------------
 #p cam-b3lyp/Def2SVP td=(nstates=5)
 -----------------------------------

 --------------------------------
 TDDFT excited states in gaussian
 --------------------------------
 Symbolic Z-matrix:
 Charge =  0 Multiplicity = 1

                         Standard orientation:
 ---------------------------------------------------------------------
 Center     Atomic      Atomic             Coordinates (Angstroms)
 Number     Number       Type             X           Y           Z
 ---------------------------------------------------------------------
      1         12           0       -6.559164   -0.659314    0.149724
      2          6           0       -6.692205    2.909885    0.384957
      3          6           0       -7.466897   -0.328747   -3.122861
      4          6           0       -6.890851   -3.811096    0.036266
      5          6           0       -6.781176   -0.749273    3.626545
      6          7           0       -6.993872    1.118124   -1.096225
      7          6           0       -6.950680    2.432480   -0.901869
      8          6           0       -7.131416    3.256934   -2.211444
      9          6           0       -7.914961    2.176150   -3.083202
     10          6           0       -7.402199    0.910447   -2.419126
     11          6           0       -9.429625    2.239961   -2.915210
     12          6           0       -5.761873    3.638429   -2.867602
     13          6           0       -5.836248    4.710397   -3.958797
     14          1           0       -4.743910    5.664163   -4.079117
     15          7           0       -6.620182   -1.886279   -1.397429
     16          6           0       -6.998717   -1.577937   -2.661123
     17          6           0       -6.871617   -2.827802   -3.441100
     18          6           0       -6.570503   -3.930972   -2.486929
     19          6           0       -6.709497   -3.249411   -1.225370
     20          6           0       -6.984686   -2.881286   -4.933783
     21          6           0       -6.224330   -5.373418   -2.680960
     22          8           0       -6.229189   -6.210061   -1.714223
     23          6           0       -5.962062   -5.805543   -4.065707
     24          7           0       -7.022218   -2.091441    1.596178
     25          6           0       -7.044734   -3.394380    1.294803
     26          6           0       -7.117548   -4.239738    2.531737
     27          6           0       -6.894380   -3.245027    3.760761
     28          6           0       -6.808751   -1.913702    2.974306
     29          6           0       -8.425462   -5.016902    2.735184
     30          6           0       -5.752629   -3.592887    4.748595
     31          6           0       -4.414953   -3.449899    4.057743
     32          7           0       -6.532870    0.796593    1.759286
     33          6           0       -6.662197    0.538676    3.131666
     34          6           0       -6.693950    1.844581    3.815530
     35          6           0       -6.596934    2.777899    2.785311
     36          6           0       -6.536515    2.098659    1.535001
     37          6           0       -6.859030    2.049242    5.213849
     38          6           0       -6.555069    4.191549    2.448121
     39          8           0       -6.478524    5.235897    3.096944
     40          6           0       -6.737830    4.336559    0.872875
     41          6           0       -5.678666    5.283268    0.377676
     42          8           0       -4.471292    4.970258    0.418147
     43          8           0       -6.261362    6.298462   -0.278364
     44          6           0       -5.264148    7.259196   -0.821234
     45          1           0       -7.973752   -0.361069   -4.089295
     46          1           0       -6.899006   -4.902940    0.052001
     47          1           0       -6.763705   -0.700555    4.716854
     48          1           0       -7.736902    4.156847   -2.102047
     49          1           0       -7.614724    2.202917   -4.130514
     50          1           0       -9.713857    2.933812   -2.124195
     51          1           0       -9.737209    1.225564   -2.660487
     52          1           0       -9.915159    2.471028   -3.863705
     53          1           0       -5.399653    2.797113   -3.458403
     54          1           0       -5.042658    3.946569   -2.107928
     55          1           0       -6.795650    5.228315   -3.943995
     56          1           0       -5.811850    4.212998   -4.928436
     57          1           0       -7.372912   -1.947987   -5.339712
     58          1           0       -7.751280   -3.619404   -5.168783
     59          1           0       -6.044260   -3.164651   -5.406683
     60          1           0       -6.842170   -5.606619   -4.677580
     61          1           0       -5.643800   -6.845435   -4.001029
     62          1           0       -5.157337   -5.196884   -4.479109
     63          1           0       -6.332465   -4.994755    2.536165
     64          1           0       -7.779562   -3.170935    4.392930
     65          1           0       -8.284113   -6.093306    2.835579
     66          1           0       -9.088081   -4.785548    1.901696
     67          1           0       -9.023972   -4.689932    3.585062
     68          1           0       -5.836023   -4.629025    5.074800
     69          1           0       -5.747546   -2.964218    5.639100
     70          1           0       -4.301975   -4.404957    3.545949
     71          1           0       -3.621553   -3.303915    4.791510
     72          1           0       -4.442362   -2.672274    3.294175
     73          1           0       -6.142635    2.820738    5.495879
     74          1           0       -6.689611    1.128433    5.771532
     75          1           0       -7.898988    2.373434    5.249093
     76          1           0       -7.742716    4.724150    0.708258
     77          1           0       -5.521394    8.243827   -0.430644
     78          1           0       -5.264887    7.128157   -1.903469
     79          1           0       -4.242738    7.152633   -0.454214
     80         12           0        6.673978   -0.904186   -0.013483
     81          6           0        6.695013    2.676545    0.225166
     82          6           0        5.620635   -0.534042   -3.236535
     83          6           0        6.212489   -4.041625   -0.118272
     84          6           0        6.611076   -0.997290    3.469776
     85          7           0        6.249581    0.890555   -1.234574
     86          6           0        6.352277    2.199090   -1.057018
     87          6           0        6.150278    3.040819   -2.345515
     88          6           0        5.274245    1.988868   -3.185076
     89          6           0        5.765479    0.693508   -2.542113
     90          6           0        3.780908    2.111494   -2.931659
     91          6           0        7.505717    3.364479   -3.066664
     92          6           0        7.415341    4.437076   -4.154372
     93          1           0        8.544347    5.346306   -4.330812
     94          7           0        6.490929   -2.124121   -1.568094
     95          6           0        6.070820   -1.802680   -2.809650
     96          6           0        6.094671   -3.056027   -3.579532
     97          6           0        6.405448   -4.173462   -2.647075
     98          6           0        6.360173   -3.477224   -1.376921
     99          6           0        5.915830   -3.099378   -5.069350
    100          6           0        6.683191   -5.630495   -2.861797
    101          8           0        6.693279   -6.464600   -1.888652
    102          6           0        6.850542   -6.067552   -4.255522
    103          7           0        6.231579   -2.313885    1.449173
    104          6           0        6.135510   -3.619881    1.144073
    105          6           0        6.085768   -4.469276    2.391642
    106          6           0        6.413340   -3.475691    3.601211
    107          6           0        6.512226   -2.147985    2.818393
    108          6           0        4.758826   -5.178520    2.661067
    109          6           0        7.587648   -3.870596    4.538082
    110          6           0        8.896613   -3.792998    3.785760
    111          7           0        6.841328    0.540464    1.584341
    112          6           0        6.762256    0.290605    2.971929
    113          6           0        6.817163    1.599930    3.653891
    114          6           0        6.901875    2.529567    2.606463
    115          6           0        6.879538    1.849013    1.359139
    116          6           0        6.739003    1.809643    5.059605
    117          6           0        6.994390    3.932540    2.272086
    118          8           0        7.137393    4.971339    2.915646
    119          6           0        6.737116    4.098340    0.712374
    120          6           0        7.807919    4.997517    0.157976
    121          8           0        8.997641    4.635343    0.153652
    122          8           0        7.228830    6.037223   -0.469734
    123          6           0        8.250255    6.951753   -1.046060
    124          1           0        5.073186   -0.535232   -4.179499
    125          1           0        6.160943   -5.132600   -0.093848
    126          1           0        6.695520   -0.947603    4.557467
    127          1           0        5.593884    3.959792   -2.205216
    128          1           0        5.533000    2.012715   -4.240464
    129          1           0        3.563098    2.809423   -2.136919
    130          1           0        3.445181    1.117858   -2.665166
    131          1           0        3.260816    2.366619   -3.859429
    132          1           0        7.801170    2.501798   -3.677583
    133          1           0        8.261089    3.634667   -2.354603
    134          1           0        6.474407    4.998256   -4.102715
    135          1           0        7.379023    3.941970   -5.127798
    136          1           0        5.539699   -2.144694   -5.457293
    137          1           0        5.109740   -3.812251   -5.274034
    138          1           0        6.817302   -3.425499   -5.592483
    139          1           0        5.952694   -5.826813   -4.819766
    140          1           0        7.130117   -7.121394   -4.199744
    141          1           0        7.668538   -5.494389   -4.706081
    142          1           0        6.839878   -5.246104    2.360909
    143          1           0        5.559527   -3.373279    4.287038
    144          1           0        4.861629   -6.276183    2.754053
    145          1           0        4.069790   -4.927145    1.865719
    146          1           0        4.224343   -4.837607    3.546119
    147          1           0        7.478766   -4.907510    4.865363
    148          1           0        7.653811   -3.256612    5.430069
    149          1           0        8.939735   -4.754652    3.265723
    150          1           0        9.729539   -3.680292    4.476831
    151          1           0        8.865916   -3.006654    3.022630
    152          1           0        7.491602    2.546529    5.306773
    153          1           0        6.893039    0.883223    5.608964
    154          1           0        5.711133    2.171994    5.145893
    155          1           0        5.740521    4.523720    0.588133
    156          1           0        8.049298    7.949402   -0.643573
    157          1           0        8.177961    6.827118   -2.142871
    158          1           0        9.280887    6.805717   -0.744545
 ---------------------------------------------------------------------

 SCF Done:  E(RCAM-B3LYP) =  -4069.81160117     A.U. after   19 cycles

 Excitation energies and oscillator strengths:

 Excited State   1:      Singlet-A      1.6654 eV  744.46 nm  f=0.0075  <S**2>=0.000
     309 -> 315       -0.11011
     310 -> 316        0.13128
     311 -> 313       -0.43959
     312 -> 314        0.52746
 This state for optimization and/or second-order correction.
 Total Energy, E(TD-HF/TD-DFT) =  -4069.75039804
 Copying the excited state density for this state as the 1-particle RhoCI density.

 Excited State   2:      Singlet-A      1.6892 eV  733.98 nm  f=0.7364  <S**2>=0.000
     309 -> 315        0.13680
     310 -> 316        0.11328
     311 -> 313        0.52626
     312 -> 314        0.43868

 Excited State   3:      Singlet-A      2.1845 eV  567.56 nm  f=0.0404  <S**2>=0.000
     309 -> 313       -0.19949
     310 -> 314        0.61142
     312 -> 316       -0.25854

 Excited State   4:      Singlet-A      2.1934 eV  565.26 nm  f=0.1484  <S**2>=0.000
     309 -> 313        0.60895
     310 -> 314        0.19771
     311 -> 315       -0.26540

 Excited State   5:      Singlet-A      2.6477 eV  468.27 nm  f=0.0000  <S**2>=0.000
     312 -> 313        0.70710

 The electronic state is 1-A.
 Alpha  occ. eigenvalues --  -46.87860 -46.87551 -19.26340 -19.26236 -19.19077
 Alpha  occ. eigenvalues --  -19.19050 -19.18875 -19.18629 -19.18217 -19.17925
 Alpha  occ. eigenvalues --  -14.42516 -14.42387 -14.41510 -14.41250 -14.39466
 Alpha  occ. eigenvalues --  -14.39245 -14.38647 -14.38487 -10.39137 -10.38976
 Alpha  occ. eigenvalues --  -10.35509 -10.35308 -10.34438 -10.34101 -10.31734
 Alpha  occ. eigenvalues --  -10.31655 -10.31469 -10.31193 -10.30979 -10.30918
 Alpha  occ. eigenvalues --  -10.30631 -10.30565 -10.30287 -10.30268 -10.30248
 Alpha  occ. eigenvalues --  -10.30041 -10.29975 -10.29782 -10.29690 -10.29334
 Alpha  occ. eigenvalues --  -10.29317 -10.29295 -10.28830 -10.28652 -10.28609
 Alpha  occ. eigenvalues --  -10.28580 -10.28427 -10.28294 -10.28192 -10.28025
 Alpha  occ. eigenvalues --  -10.27890 -10.27851 -10.27793 -10.27646 -10.27564
 Alpha  occ. eigenvalues --  -10.27562 -10.27552 -10.27498 -10.27466 -10.27422
 Alpha  occ. eigenvalues --  -10.27403 -10.27372 -10.27364 -10.27277 -10.27213
 Alpha  occ. eigenvalues --  -10.26919 -10.26809 -10.26603 -10.26480 -10.26355
 Alpha  occ. eigenvalues --  -10.26301 -10.26233 -10.26078 -10.26054 -10.25881
 Alpha  occ. eigenvalues --  -10.25879 -10.25828 -10.25720 -10.25478 -10.25295
 Alpha  occ. eigenvalues --  -10.24889 -10.24846 -10.24758 -10.24740 -10.24652
 Alpha  occ. eigenvalues --  -10.24582  -3.16603  -3.16300  -1.91484  -1.91182
 Alpha  occ. eigenvalues --   -1.91071  -1.90913  -1.90771  -1.90608  -1.16689
 Alpha  occ. eigenvalues --   -1.16531  -1.08674  -1.08530  -1.07275  -1.06882
 Alpha  occ. eigenvalues --   -1.06833  -1.06699  -1.04646  -1.04385  -1.03822
 Alpha  occ. eigenvalues --   -1.03554  -1.03294  -1.02930  -1.02472  -1.02001
 Alpha  occ. eigenvalues --   -0.92032  -0.91871  -0.89575  -0.89392  -0.89265
 Alpha  occ. eigenvalues --   -0.89040  -0.88342  -0.88120  -0.87923  -0.87740
 Alpha  occ. eigenvalues --   -0.87676  -0.87578  -0.87340  -0.87032  -0.85057
 Alpha  occ. eigenvalues --   -0.84895  -0.83989  -0.83778  -0.83031  -0.82850
 Alpha  occ. eigenvalues --   -0.82718  -0.82552  -0.81645  -0.81487  -0.80658
 Alpha  occ. eigenvalues --   -0.80337  -0.78861  -0.78537  -0.77283  -0.77042
 Alpha  occ. eigenvalues --   -0.77002  -0.76794  -0.75988  -0.75727  -0.74952
 Alpha  occ. eigenvalues --   -0.74700  -0.72833  -0.72590  -0.71732  -0.71470
 Alpha  occ. eigenvalues --   -0.69961  -0.69664  -0.68944  -0.68724  -0.67702
 Alpha  occ. eigenvalues --   -0.67497  -0.67301  -0.67109  -0.65359  -0.65164
 Alpha  occ. eigenvalues --   -0.64914  -0.64684  -0.64663  -0.64548  -0.64326
 Alpha  occ. eigenvalues --   -0.64103  -0.62354  -0.62170  -0.60504  -0.60245
 Alpha  occ. eigenvalues --   -0.59875  -0.59686  -0.59047  -0.58884  -0.58563
 Alpha  occ. eigenvalues --   -0.58317  -0.57640  -0.57434  -0.57366  -0.57133
 Alpha  occ. eigenvalues --   -0.56370  -0.56099  -0.56041  -0.55782  -0.55582
 Alpha  occ. eigenvalues --   -0.55393  -0.55354  -0.55143  -0.54578  -0.54384
 Alpha  occ. eigenvalues --   -0.53972  -0.53805  -0.53360  -0.53291  -0.53127
 Alpha  occ. eigenvalues --   -0.53040  -0.52976  -0.52827  -0.52799  -0.52582
 Alpha  occ. eigenvalues --   -0.52491  -0.52311  -0.51962  -0.51760  -0.51691
 Alpha  occ. eigenvalues --   -0.51561  -0.51254  -0.51092  -0.50644  -0.50398
 Alpha  occ. eigenvalues --   -0.50089  -0.49984  -0.49879  -0.49771  -0.49583
 Alpha  occ. eigenvalues --   -0.49390  -0.49275  -0.49164  -0.49094  -0.48988
 Alpha  occ. eigenvalues --   -0.48652  -0.48518  -0.48502  -0.48448  -0.48273
 Alpha  occ. eigenvalues --   -0.48245  -0.47760  -0.47496  -0.47358  -0.47023
 Alpha  occ. eigenvalues --   -0.46859  -0.46631  -0.46606  -0.46452  -0.46418
 Alpha  occ. eigenvalues --   -0.46217  -0.46169  -0.45976  -0.45876  -0.45707
 Alpha  occ. eigenvalues --   -0.45255  -0.45106  -0.44634  -0.44575  -0.44405
 Alpha  occ. eigenvalues --   -0.44373  -0.44204  -0.44159  -0.44079  -0.44017
 Alpha  occ. eigenvalues --   -0.43982  -0.43840  -0.43551  -0.43452  -0.43446
 Alpha  occ. eigenvalues --   -0.43278  -0.43086  -0.42823  -0.42788  -0.42755
 Alpha  occ. eigenvalues --   -0.42710  -0.42458  -0.42070  -0.41866  -0.41763
 Alpha  occ. eigenvalues --   -0.41609  -0.41555  -0.41358  -0.41203  -0.40941
 Alpha  occ. eigenvalues --   -0.40891  -0.40878  -0.40634  -0.40628  -0.40602
 Alpha  occ. eigenvalues --   -0.40392  -0.40326  -0.40136  -0.39495  -0.39334
 Alpha  occ. eigenvalues --   -0.38528  -0.38250  -0.37833  -0.37559  -0.37379
 Alpha  occ. eigenvalues --   -0.37338  -0.37164  -0.37094  -0.36769  -0.36663
 Alpha  occ. eigenvalues --   -0.36252  -0.36112  -0.34347  -0.34143  -0.33828
 Alpha  occ. eigenvalues --   -0.33751  -0.33247  -0.33067  -0.31404  -0.31187
 Alpha  occ. eigenvalues --   -0.31097  -0.30864  -0.30076  -0.29828  -0.29511
 Alpha  occ. eigenvalues --   -0.29378  -0.29225  -0.29096  -0.24142  -0.23925
 Alpha  occ. eigenvalues --   -0.21189  -0.21009
 Alpha virt. eigenvalues --   -0.08835  -0.08684  -0.01811  -0.01577  -0.00121
 Alpha virt. eigenvalues --    0.00071   0.02147   0.02325   0.03048   0.03324
 Alpha virt. eigenvalues --    0.04646   0.04837   0.05041   0.05280   0.06087

 Mulliken charges:
               1
     1  Mg   0.838545
     2  C   -0.003080
     3  C   -0.094476
     4  C   -0.045756
     5  C   -0.063872
     6  N   -0.256748
     7  C   -0.052569
     8  C   -0.013947
     9  C   -0.086945
    10  C    0.046179
    11  C    0.104804
    12  C    0.053613
    13  C   -0.071562
    14  H    0.035519
    15  N   -0.433136
    16  C    0.168281
    17  C   -0.177401
    18  C   -0.004027
    19  C    0.148649
    20  C    0.110234
    21  C    0.012291
    22  O   -0.249358
    23  C    0.062547
    24  N   -0.341136
    25  C    0.041190
    26  C   -0.028201
    27  C   -0.024029
    28  C    0.074882
    29  C    0.076113
    30  C    0.035095
    31  C   -0.004502
    32  N   -0.310526
    33  C    0.080466
    34  C   -0.169495
    35  C    0.008519
    36  C    0.082993
    37  C    0.127253
    38  C    0.046297
    39  O   -0.187940
    40  C   -0.005386
    41  C    0.212997
    42  O   -0.257212
    43  O   -0.304770
    44  C    0.157593
    45  H   -0.017697
    46  H   -0.016688
    47  H   -0.041291
    48  H    0.001112
    49  H   -0.004362
    50  H    0.025613
    51  H    0.016569
    52  H    0.016635
    53  H    0.010625
    54  H    0.044006
    55  H    0.018248
    56  H    0.017591
    57  H    0.005689
    58  H    0.026951
    59  H    0.038936
    60  H    0.037339
    61  H    0.035868
    62  H    0.030983
    63  H    0.016659
    64  H    0.009607
    65  H    0.023351
    66  H    0.012558
    67  H    0.004854
    68  H    0.006488
    69  H    0.004822
    70  H    0.008902
    71  H    0.017985
    72  H    0.028916
    73  H    0.047945
    74  H    0.009194
    75  H    0.046156
    76  H    0.035261
    77  H    0.043333
    78  H    0.046042
    79  H    0.053814
    80  Mg   0.838071
    81  C   -0.016673
    82  C   -0.087824
    83  C   -0.045518
    84  C   -0.064703
    85  N   -0.254550
    86  C   -0.049406
    87  C   -0.015125
    88  C   -0.090651
    89  C    0.045925
    90  C    0.114389
    91  C    0.062579
    92  C   -0.077656
    93  H    0.034530
    94  N   -0.423461
    95  C    0.162870
    96  C   -0.174903
    97  C   -0.007969
    98  C    0.152053
    99  C    0.099548
   100  C    0.015424
   101  O   -0.253301
   102  C    0.061292
   103  N   -0.349987
   104  C    0.037547
   105  C   -0.019824
   106  C   -0.034824
   107  C    0.089040
   108  C    0.073669
   109  C    0.034741
   110  C   -0.007615
   111  N   -0.324243
   112  C    0.078694
   113  C   -0.162823
   114  C    0.002664
   115  C    0.096251
   116  C    0.131348
   117  C    0.042833
   118  O   -0.187435
   119  C    0.000713
   120  C    0.211142
   121  O   -0.251331
   122  O   -0.305339
   123  C    0.152147
   124  H   -0.020222
   125  H   -0.015721
   126  H   -0.040453
   127  H   -0.000194
   128  H   -0.004979
   129  H    0.024067
   130  H    0.014620
   131  H    0.015497
   132  H    0.013677
   133  H    0.037632
   134  H    0.020859
   135  H    0.019189
   136  H    0.008338
   137  H    0.025560
   138  H    0.039418
   139  H    0.037935
   140  H    0.036153
   141  H    0.033721
   142  H    0.014164
   143  H    0.012511
   144  H    0.024905
   145  H    0.012007
   146  H    0.005596
   147  H    0.006061
   148  H    0.003618
   149  H    0.010815
   150  H    0.017751
   151  H    0.030171
   152  H    0.045885
   153  H    0.008240
   154  H    0.048036
   155  H    0.036279
   156  H    0.043982
   157  H    0.049216
   158  H    0.053360
 Sum of Mulliken charges =  -0.00000

 Dipole moment (field-independent basis, Debye):
    X=             -4.4254    Y=             -2.1197    Z=             -7.4231  Tot=              8.8983
 Quadrupole moment (field-independent basis, Debye-Ang):
   XX=           -521.1406   YY=           -550.7226   ZZ=           -448.0325
   XY=             -6.8955   XZ=              1.7579   YZ=            -48.8578

 Normal termination of Gaussian 16 at Sat Sep 11 15:35:42 2021.
