 Gaussian 16, Revision A.03,
 Gaussian 16:  ES64L-G16RevA.03 25-Dec-2016

 -----------------------------------
 #p cam-b3lyp/Def2SVP td=(nstates=5)
 -----------------------------------

 --------------------------------
 TDDFT excited states in gaussian
 --------------------------------
 Symbolic Z-matrix:
 Charge =  0 Multiplicity = 1

                         Standard orientation:
 ---------------------------------------------------------------------
 Center     Atomic      Atomic             Coordinates (Angstroms)
 Number     Number       Type             X           Y           Z
 ---------------------------------------------------------------------
      1         12           0      -15.824285   -0.725736    0.104536
      2          6           0      -16.013281    2.839489    0.360776
      3          6           0      -16.706081   -0.387934   -3.174395
      4          6           0      -16.107376   -3.881352   -0.031745
      5          6           0      -16.077600   -0.841219    3.578462
      6          7           0      -16.273982    1.052900   -1.134362
      7          6           0      -16.252424    2.366488   -0.931402
      8          6           0      -16.433236    3.196483   -2.237461
      9          6           0      -17.192179    2.109654   -3.123354
     10          6           0      -16.666678    0.847572   -2.462353
     11          6           0      -18.709146    2.149658   -2.969361
     12          6           0      -15.063486    3.602666   -2.878187
     13          6           0      -15.143736    4.680345   -3.963324
     14          1           0      -14.064805    5.651141   -4.067305
     15          7           0      -15.852263   -1.943574   -1.450758
     16          6           0      -16.223499   -1.632882   -2.716040
     17          6           0      -16.070258   -2.875693   -3.502563
     18          6           0      -15.761546   -3.980292   -2.552483
     19          6           0      -15.922648   -3.308963   -1.288070
     20          6           0      -16.168468   -2.921334   -4.996559
     21          6           0      -15.391876   -5.416112   -2.752219
     22          8           0      -15.393222   -6.258891   -1.790816
     23          6           0      -15.110118   -5.835402   -4.137084
     24          7           0      -16.279295   -2.173858    1.537556
     25          6           0      -16.279347   -3.475037    1.227851
     26          6           0      -16.351046   -4.329274    2.458735
     27          6           0      -16.154455   -3.339196    3.696010
     28          6           0      -16.081498   -2.001740    2.918733
     29          6           0      -17.648960   -5.127257    2.644893
     30          6           0      -15.016932   -3.676187    4.692453
     31          6           0      -13.675125   -3.508737    4.015244
     32          7           0      -15.835061    0.720093    1.723334
     33          6           0      -15.973388    0.451505    3.092787
     34          6           0      -16.031238    1.752393    3.784460
     35          6           0      -15.938608    2.693621    2.761056
     36          6           0      -15.856210    2.023363    1.507160
     37          6           0      -16.212523    1.945620    5.182398
     38          6           0      -15.914874    4.109865    2.433112
     39          8           0      -15.860173    5.151079    3.089142
     40          6           0      -16.084977    4.262173    0.857138
     41          6           0      -15.035585    5.227810    0.377943
     42          8           0      -13.824066    4.932699    0.427925
     43          8           0      -15.627312    6.238316   -0.277250
     44          6           0      -14.639623    7.217351   -0.804615
     45          1           0      -17.203281   -0.421684   -4.145783
     46          1           0      -16.099231   -4.973274   -0.022906
     47          1           0      -16.071118   -0.799208    4.669171
     48          1           0      -17.053211    4.086493   -2.128203
     49          1           0      -16.882545    2.147611   -4.167580
     50          1           0      -19.011222    2.834101   -2.176765
     51          1           0      -19.003796    1.129154   -2.723910
     52          1           0      -19.189165    2.379468   -3.920963
     53          1           0      -14.683094    2.770670   -3.470762
     54          1           0      -14.356168    3.916705   -2.109806
     55          1           0      -16.110927    5.183705   -3.954402
     56          1           0      -15.102731    4.189570   -4.935774
     57          1           0      -16.566874   -1.991391   -5.400321
     58          1           0      -16.921613   -3.669354   -5.243433
     59          1           0      -15.219474   -3.187531   -5.462265
     60          1           0      -15.987330   -5.645802   -4.756035
     61          1           0      -14.776850   -6.870794   -4.075881
     62          1           0      -14.310801   -5.212110   -4.539016
     63          1           0      -15.554756   -5.072440    2.465906
     64          1           0      -17.046557   -3.282432    4.320194
     65          1           0      -17.492363   -6.202039    2.739903
     66          1           0      -18.307122   -4.900553    1.806610
     67          1           0      -18.260293   -4.814738    3.491073
     68          1           0      -15.087773   -4.715522    5.011375
     69          1           0      -15.029693   -3.053213    5.586875
     70          1           0      -13.542966   -4.458704    3.498593
     71          1           0      -12.890948   -3.355554    4.757411
     72          1           0      -13.707063   -2.726751    3.256321
     73          1           0      -15.510515    2.725961    5.476032
     74          1           0      -16.034505    1.023913    5.735905
     75          1           0      -17.257533    2.253940    5.209787
     76          1           0      -17.093996    4.635687    0.685407
     77          1           0      -14.915333    8.195497   -0.410345
     78          1           0      -14.628211    7.093229   -1.887605
     79          1           0      -13.620219    7.123784   -0.428582
     80         12           0       15.932706   -0.838294    0.021041
     81          6           0       16.055162    2.738963    0.280393
     82          6           0       14.763695   -0.418682   -3.155736
     83          6           0       15.386930   -3.962138   -0.084518
     84          6           0       16.004031   -0.954399    3.503449
     85          7           0       15.507068    0.975250   -1.171487
     86          6           0       15.650267    2.279462   -0.990175
     87          6           0       15.419621    3.135153   -2.264597
     88          6           0       14.484592    2.111809   -3.075378
     89          6           0       14.967171    0.799854   -2.460114
     90          6           0       13.005973    2.270625   -2.762625
     91          6           0       16.753619    3.429295   -3.036574
     92          6           0       16.648295    4.511513   -4.113357
     93          1           0       17.792527    5.392921   -4.328588
     94          7           0       15.657537   -2.042154   -1.532519
     95          6           0       15.197483   -1.701350   -2.754601
     96          6           0       15.158891   -2.949423   -3.532410
     97          6           0       15.477152   -4.080966   -2.619703
     98          6           0       15.499622   -3.392795   -1.344554
     99          6           0       14.920733   -2.977671   -5.014270
    100          6           0       15.708694   -5.543056   -2.854028
    101          8           0       15.735467   -6.383993   -1.887118
    102          6           0       15.809991   -5.974354   -4.255884
    103          7           0       15.511881   -2.246575    1.491417
    104          6           0       15.370363   -3.547513    1.182415
    105          6           0       15.347745   -4.404169    2.425809
    106          6           0       15.747923   -3.427825    3.627541
    107          6           0       15.850164   -2.097559    2.849495
    108          6           0       14.014586   -5.081283    2.742959
    109          6           0       16.947513   -3.859107    4.515038
    110          6           0       18.227542   -3.809548    3.712252
    111          7           0       16.199668    0.590294    1.619773
    112          6           0       16.168653    0.332725    3.007857
    113          6           0       16.283912    1.635375    3.695051
    114          6           0       16.351374    2.569938    2.650770
    115          6           0       16.262664    1.899002    1.401178
    116          6           0       16.266339    1.837070    5.104002
    117          6           0       16.466771    3.972424    2.321519
    118          8           0       16.661566    5.002680    2.965231
    119          6           0       16.152889    4.155744    0.774172
    120          6           0       17.223915    5.031262    0.183518
    121          8           0       18.402836    4.638956    0.130158
    122          8           0       16.647595    6.089793   -0.414595
    123          6           0       17.668820    6.982069   -1.025134
    124          1           0       14.179854   -0.399258   -4.076408
    125          1           0       15.308339   -5.051594   -0.064696
    126          1           0       16.132303   -0.914559    4.587257
    127          1           0       14.892978    4.066987   -2.096928
    128          1           0       14.702299    2.136520   -4.139971
    129          1           0       12.837519    2.968227   -1.955709
    130          1           0       12.655516    1.284005   -2.489151
    131          1           0       12.456644    2.545462   -3.667634
    132          1           0       17.002623    2.563704   -3.663876
    133          1           0       17.543035    3.675119   -2.353179
    134          1           0       15.724856    5.096084   -4.021298
    135          1           0       16.561120    4.024370   -5.087585
    136          1           0       14.554358   -2.010999   -5.381303
    137          1           0       14.089170   -3.668328   -5.191375
    138          1           0       15.792320   -3.322934   -5.574459
    139          1           0       14.897194   -5.706861   -4.782881
    140          1           0       16.064339   -7.035357   -4.217550
    141          1           0       16.624153   -5.419040   -4.734812
    142          1           0       16.079845   -5.199710    2.360694
    143          1           0       14.924571   -3.308557    4.347064
    144          1           0       14.092677   -6.181838    2.825164
    145          1           0       13.301585   -4.806828    1.976894
    146          1           0       13.524151   -4.733143    3.650407
    147          1           0       16.824917   -4.895205    4.840057
    148          1           0       17.064361   -3.253328    5.407438
    149          1           0       18.225492   -4.768295    3.185092
    150          1           0       19.089535   -3.722979    4.370659
    151          1           0       18.187195   -3.017298    2.955707
    152          1           0       17.046750    2.552789    5.325820
    153          1           0       16.417915    0.903168    5.641246
    154          1           0       15.252297    2.224852    5.232880
    155          1           0       15.163464    4.607230    0.691850
    156          1           0       17.509524    7.981643   -0.609002
    157          1           0       17.550395    6.867081   -2.118983
    158          1           0       18.706389    6.807703   -0.765322
 ---------------------------------------------------------------------

 SCF Done:  E(RCAM-B3LYP) =  -4069.81176675     A.U. after   19 cycles

 Excitation energies and oscillator strengths:

 Excited State   1:      Singlet-A      1.6753 eV  740.06 nm  f=0.2149  <S**2>=0.000
     310 -> 316        0.16868
     311 -> 314       -0.16118
     312 -> 313        0.66685
     310 <- 316        0.10169
 This state for optimization and/or second-order correction.
 Total Energy, E(TD-HF/TD-DFT) =  -4069.75019999
 Copying the excited state density for this state as the 1-particle RhoCI density.

 Excited State   2:      Singlet-A      1.6801 eV  737.96 nm  f=0.5626  <S**2>=0.000
     309 -> 315        0.17070
     311 -> 314        0.66649
     312 -> 313        0.16112
     309 <- 315        0.10220

 Excited State   3:      Singlet-A      2.1861 eV  567.15 nm  f=0.0951  <S**2>=0.000
     310 -> 313        0.64210
     312 -> 316       -0.27294

 Excited State   4:      Singlet-A      2.1925 eV  565.48 nm  f=0.1051  <S**2>=0.000
     309 -> 314        0.64032
     311 -> 315       -0.27814

 Excited State   5:      Singlet-A      3.0662 eV  404.35 nm  f=0.0000  <S**2>=0.000
     312 -> 314        0.70711

 The electronic state is 1-A.
 Alpha  occ. eigenvalues --  -46.87800 -46.87660 -19.26348 -19.26288 -19.19160
 Alpha  occ. eigenvalues --  -19.19023 -19.18819 -19.18715 -19.18172 -19.18050
 Alpha  occ. eigenvalues --  -14.42497 -14.42454 -14.41453 -14.41359 -14.39407
 Alpha  occ. eigenvalues --  -14.39352 -14.38600 -14.38590 -10.39090 -10.39083
 Alpha  occ. eigenvalues --  -10.35453 -10.35393 -10.34392 -10.34227 -10.31755
 Alpha  occ. eigenvalues --  -10.31683 -10.31409 -10.31308 -10.31023 -10.30913
 Alpha  occ. eigenvalues --  -10.30573 -10.30511 -10.30398 -10.30361 -10.30210
 Alpha  occ. eigenvalues --  -10.30141 -10.29924 -10.29894 -10.29634 -10.29437
 Alpha  occ. eigenvalues --  -10.29401 -10.29258 -10.28753 -10.28719 -10.28655
 Alpha  occ. eigenvalues --  -10.28544 -10.28405 -10.28369 -10.28140 -10.28121
 Alpha  occ. eigenvalues --  -10.28001 -10.27796 -10.27731 -10.27669 -10.27588
 Alpha  occ. eigenvalues --  -10.27517 -10.27504 -10.27487 -10.27483 -10.27469
 Alpha  occ. eigenvalues --  -10.27466 -10.27452 -10.27407 -10.27375 -10.27161
 Alpha  occ. eigenvalues --  -10.27049 -10.26710 -10.26693 -10.26417 -10.26416
 Alpha  occ. eigenvalues --  -10.26238 -10.26186 -10.26138 -10.26023 -10.26023
 Alpha  occ. eigenvalues --  -10.25934 -10.25849 -10.25845 -10.25438 -10.25396
 Alpha  occ. eigenvalues --  -10.24872 -10.24836 -10.24791 -10.24732 -10.24690
 Alpha  occ. eigenvalues --  -10.24690  -3.16543  -3.16410  -1.91425  -1.91292
 Alpha  occ. eigenvalues --   -1.91011  -1.90881  -1.90853  -1.90718  -1.16642
 Alpha  occ. eigenvalues --   -1.16636  -1.08657  -1.08630  -1.07221  -1.06968
 Alpha  occ. eigenvalues --   -1.06945  -1.06646  -1.04585  -1.04495  -1.03764
 Alpha  occ. eigenvalues --   -1.03663  -1.03237  -1.03039  -1.02415  -1.02111
 Alpha  occ. eigenvalues --   -0.91987  -0.91976  -0.89523  -0.89494  -0.89192
 Alpha  occ. eigenvalues --   -0.89151  -0.88290  -0.88220  -0.87873  -0.87793
 Alpha  occ. eigenvalues --   -0.87684  -0.87677  -0.87278  -0.87121  -0.84999
 Alpha  occ. eigenvalues --   -0.84986  -0.83939  -0.83876  -0.82972  -0.82933
 Alpha  occ. eigenvalues --   -0.82653  -0.82653  -0.81596  -0.81589  -0.80600
 Alpha  occ. eigenvalues --   -0.80442  -0.78801  -0.78636  -0.77222  -0.77144
 Alpha  occ. eigenvalues --   -0.76938  -0.76898  -0.75927  -0.75838  -0.74901
 Alpha  occ. eigenvalues --   -0.74802  -0.72778  -0.72699  -0.71676  -0.71580
 Alpha  occ. eigenvalues --   -0.69910  -0.69758  -0.68877  -0.68827  -0.67645
 Alpha  occ. eigenvalues --   -0.67602  -0.67224  -0.67200  -0.65290  -0.65271
 Alpha  occ. eigenvalues --   -0.64857  -0.64770  -0.64653  -0.64624  -0.64273
 Alpha  occ. eigenvalues --   -0.64204  -0.62301  -0.62278  -0.60446  -0.60340
 Alpha  occ. eigenvalues --   -0.59808  -0.59796  -0.58993  -0.58991  -0.58507
 Alpha  occ. eigenvalues --   -0.58425  -0.57588  -0.57553  -0.57312  -0.57236
 Alpha  occ. eigenvalues --   -0.56313  -0.56204  -0.55982  -0.55886  -0.55524
 Alpha  occ. eigenvalues --   -0.55452  -0.55342  -0.55247  -0.54527  -0.54487
 Alpha  occ. eigenvalues --   -0.53912  -0.53899  -0.53303  -0.53228  -0.53226
 Alpha  occ. eigenvalues --   -0.53142  -0.52918  -0.52902  -0.52761  -0.52669
 Alpha  occ. eigenvalues --   -0.52441  -0.52401  -0.51917  -0.51884  -0.51659
 Alpha  occ. eigenvalues --   -0.51621  -0.51201  -0.51199  -0.50577  -0.50476
 Alpha  occ. eigenvalues --   -0.50035  -0.49980  -0.49923  -0.49867  -0.49519
 Alpha  occ. eigenvalues --   -0.49488  -0.49218  -0.49202  -0.49104  -0.49100
 Alpha  occ. eigenvalues --   -0.48596  -0.48558  -0.48465  -0.48449  -0.48376
 Alpha  occ. eigenvalues --   -0.48339  -0.47699  -0.47595  -0.47301  -0.47118
 Alpha  occ. eigenvalues --   -0.46800  -0.46709  -0.46559  -0.46554  -0.46363
 Alpha  occ. eigenvalues --   -0.46270  -0.46166  -0.46085  -0.45825  -0.45821
 Alpha  occ. eigenvalues --   -0.45208  -0.45204  -0.44581  -0.44514  -0.44511
 Alpha  occ. eigenvalues --   -0.44476  -0.44148  -0.44127  -0.44092  -0.44078
 Alpha  occ. eigenvalues --   -0.44023  -0.43939  -0.43553  -0.43498  -0.43389
 Alpha  occ. eigenvalues --   -0.43385  -0.43030  -0.42930  -0.42901  -0.42702
 Alpha  occ. eigenvalues --   -0.42658  -0.42554  -0.42013  -0.41964  -0.41707
 Alpha  occ. eigenvalues --   -0.41669  -0.41538  -0.41459  -0.41145  -0.40989
 Alpha  occ. eigenvalues --   -0.40873  -0.40828  -0.40723  -0.40699  -0.40574
 Alpha  occ. eigenvalues --   -0.40493  -0.40239  -0.40227  -0.39444  -0.39426
 Alpha  occ. eigenvalues --   -0.38472  -0.38350  -0.37753  -0.37654  -0.37324
 Alpha  occ. eigenvalues --   -0.37268  -0.37266  -0.37199  -0.36770  -0.36716
 Alpha  occ. eigenvalues --   -0.36217  -0.36196  -0.34289  -0.34253  -0.33861
 Alpha  occ. eigenvalues --   -0.33774  -0.33190  -0.33175  -0.31349  -0.31274
 Alpha  occ. eigenvalues --   -0.31039  -0.30973  -0.30032  -0.29954  -0.29453
 Alpha  occ. eigenvalues --   -0.29328  -0.29325  -0.29211  -0.24084  -0.24036
 Alpha  occ. eigenvalues --   -0.21131  -0.21117
 Alpha virt. eigenvalues --   -0.08792  -0.08778  -0.01753  -0.01684  -0.00062
 Alpha virt. eigenvalues --   -0.00029   0.02197   0.02207   0.03119   0.03226
 Alpha virt. eigenvalues --    0.04714   0.04730   0.05095   0.05166   0.06173

 Mulliken charges:
               1
     1  Mg   0.838774
     2  C   -0.002973
     3  C   -0.094129
     4  C   -0.045874
     5  C   -0.063956
     6  N   -0.256784
     7  C   -0.052465
     8  C   -0.014017
     9  C   -0.087004
    10  C    0.046324
    11  C    0.104812
    12  C    0.053473
    13  C   -0.071788
    14  H    0.036105
    15  N   -0.433146
    16  C    0.168418
    17  C   -0.177170
    18  C   -0.004008
    19  C    0.148715
    20  C    0.110181
    21  C    0.012274
    22  O   -0.249621
    23  C    0.062483
    24  N   -0.341171
    25  C    0.041254
    26  C   -0.028180
    27  C   -0.023979
    28  C    0.074858
    29  C    0.076163
    30  C    0.035121
    31  C   -0.004504
    32  N   -0.310470
    33  C    0.080414
    34  C   -0.169691
    35  C    0.008358
    36  C    0.082966
    37  C    0.127308
    38  C    0.046132
    39  O   -0.188416
    40  C   -0.005319
    41  C    0.212869
    42  O   -0.257112
    43  O   -0.304793
    44  C    0.157697
    45  H   -0.017612
    46  H   -0.016835
    47  H   -0.041472
    48  H    0.000947
    49  H   -0.004049
    50  H    0.025483
    51  H    0.016452
    52  H    0.016654
    53  H    0.011187
    54  H    0.044121
    55  H    0.017882
    56  H    0.017931
    57  H    0.005866
    58  H    0.026824
    59  H    0.039521
    60  H    0.037347
    61  H    0.035643
    62  H    0.031478
    63  H    0.016554
    64  H    0.009473
    65  H    0.023217
    66  H    0.012546
    67  H    0.004765
    68  H    0.006376
    69  H    0.004747
    70  H    0.008775
    71  H    0.018158
    72  H    0.028968
    73  H    0.047589
    74  H    0.009124
    75  H    0.046021
    76  H    0.035158
    77  H    0.042962
    78  H    0.046384
    79  H    0.053685
    80  Mg   0.837850
    81  C   -0.016832
    82  C   -0.087774
    83  C   -0.045515
    84  C   -0.064846
    85  N   -0.254569
    86  C   -0.049816
    87  C   -0.015092
    88  C   -0.090500
    89  C    0.045748
    90  C    0.114368
    91  C    0.062507
    92  C   -0.077894
    93  H    0.034895
    94  N   -0.423499
    95  C    0.162927
    96  C   -0.174616
    97  C   -0.007818
    98  C    0.152124
    99  C    0.099359
   100  C    0.015573
   101  O   -0.253167
   102  C    0.061192
   103  N   -0.350072
   104  C    0.037547
   105  C   -0.019853
   106  C   -0.034788
   107  C    0.088907
   108  C    0.073635
   109  C    0.034696
   110  C   -0.007665
   111  N   -0.324115
   112  C    0.078432
   113  C   -0.163109
   114  C    0.002248
   115  C    0.096210
   116  C    0.131485
   117  C    0.042407
   118  O   -0.187837
   119  C    0.000909
   120  C    0.211266
   121  O   -0.251034
   122  O   -0.305620
   123  C    0.152029
   124  H   -0.019658
   125  H   -0.015564
   126  H   -0.040431
   127  H   -0.000618
   128  H   -0.004339
   129  H    0.022506
   130  H    0.014446
   131  H    0.016294
   132  H    0.013908
   133  H    0.037677
   134  H    0.020808
   135  H    0.019580
   136  H    0.008760
   137  H    0.026147
   138  H    0.039781
   139  H    0.038254
   140  H    0.036394
   141  H    0.033887
   142  H    0.014394
   143  H    0.012461
   144  H    0.025144
   145  H    0.011665
   146  H    0.005718
   147  H    0.006280
   148  H    0.003671
   149  H    0.010928
   150  H    0.017931
   151  H    0.030089
   152  H    0.046011
   153  H    0.008521
   154  H    0.047004
   155  H    0.035075
   156  H    0.043936
   157  H    0.049485
   158  H    0.053572
 Sum of Mulliken charges =  -0.00000

 Dipole moment (field-independent basis, Debye):
    X=             -4.4759    Y=             -2.1673    Z=             -7.5668  Tot=              9.0547
 Quadrupole moment (field-independent basis, Debye-Ang):
   XX=           -531.1234   YY=           -549.8580   ZZ=           -448.3696
   XY=             -4.6602   XZ=              6.1061   YZ=            -49.4015

 Normal termination of Gaussian 16 at Sun Sep 12 21:55:52 2021.
