 Gaussian 16, Revision A.03,
 Gaussian 16:  ES64L-G16RevA.03 25-Dec-2016

 -----------------------------------
 #p cam-b3lyp/Def2SVP td=(nstates=5)
 -----------------------------------

 --------------------------------
 TDDFT excited states in gaussian
 --------------------------------
 Symbolic Z-matrix:
 Charge =  0 Multiplicity = 1

                         Standard orientation:
 ---------------------------------------------------------------------
 Center     Atomic      Atomic             Coordinates (Angstroms)
 Number     Number       Type             X           Y           Z
 ---------------------------------------------------------------------
      1         12           0      -15.751344   -0.799806    0.115846
      2          6           0      -15.959265    2.768512    0.305818
      3          6           0      -16.634714   -0.527657   -3.168763
      4          6           0      -16.017683   -3.958866    0.038220
      5          6           0      -16.004260   -0.852076    3.591326
      6          7           0      -16.210392    0.953098   -1.155865
      7          6           0      -16.195814    2.270326   -0.977343
      8          6           0      -16.380945    3.074944   -2.298588
      9          6           0      -17.134057    1.967835   -3.164111
     10          6           0      -16.601909    0.721056   -2.479798
     11          6           0      -18.651224    2.002645   -3.010833
     12          6           0      -15.013328    3.476415   -2.946798
     13          6           0      -15.099225    4.533309   -4.051765
     14          1           0      -14.025453    5.507715   -4.173802
     15          7           0      -15.772763   -2.046457   -1.416555
     16          6           0      -16.145563   -1.761297   -2.687378
     17          6           0      -15.985683   -3.017675   -3.450683
     18          6           0      -15.671175   -4.102780   -2.480258
     19          6           0      -15.835915   -3.408942   -1.228528
     20          6           0      -16.083555   -3.091582   -4.943569
     21          6           0      -15.293881   -5.540082   -2.653300
     22          8           0      -15.290817   -6.364851   -1.676406
     23          6           0      -15.009817   -5.983526   -4.030147
     24          7           0      -16.198755   -2.223451    1.575536
     25          6           0      -16.191886   -3.530140    1.290056
     26          6           0      -16.259130   -4.361733    2.536600
     27          6           0      -16.067870   -3.347811    3.755262
     28          6           0      -16.001961   -2.024658    2.953270
     29          6           0      -17.552804   -5.162994    2.737596
     30          6           0      -14.928639   -3.660195    4.757752
     31          6           0      -13.587696   -3.498238    4.077501
     32          7           0      -15.769891    0.675768    1.707506
     33          6           0      -15.906876    0.431936    3.081717
     34          6           0      -15.971669    1.745124    3.749106
     35          6           0      -15.883970    2.667656    2.708391
     36          6           0      -15.797938    1.974667    1.467159
     37          6           0      -16.154065    1.963322    5.143220
     38          6           0      -15.867727    4.077669    2.354193
     39          8           0      -15.818592    5.131166    2.990765
     40          6           0      -16.038538    4.199770    0.775668
     41          6           0      -14.994252    5.161892    0.278578
     42          8           0      -13.781188    4.874191    0.333991
     43          8           0      -15.591291    6.156899   -0.395252
     44          6           0      -14.608775    7.131194   -0.940748
     45          1           0      -17.131667   -0.582083   -4.139339
     46          1           0      -16.003746   -5.050377    0.067341
     47          1           0      -15.998070   -0.789777    4.681066
     48          1           0      -17.005639    3.963529   -2.205860
     49          1           0      -16.824562    1.988028   -4.208873
     50          1           0      -18.956976    2.700082   -2.231078
     51          1           0      -18.940471    0.985328   -2.746456
     52          1           0      -19.132395    2.212187   -3.966523
     53          1           0      -14.628491    2.635584   -3.523828
     54          1           0      -14.307735    3.808421   -2.184410
     55          1           0      -16.069074    5.031609   -4.052160
     56          1           0      -15.055557    4.024778   -5.014932
     57          1           0      -16.486863   -2.171427   -5.364523
     58          1           0      -16.832706   -3.848044   -5.176478
     59          1           0      -15.133134   -3.361346   -5.404284
     60          1           0      -15.887983   -5.810112   -4.652482
     61          1           0      -14.671065   -7.015819   -3.949732
     62          1           0      -14.213792   -5.363576   -4.443616
     63          1           0      -15.458909   -5.100403    2.557546
     64          1           0      -16.960300   -3.284196    4.378315
     65          1           0      -17.390514   -6.234979    2.852550
     66          1           0      -18.212107   -4.955396    1.895270
     67          1           0      -18.165839   -4.838056    3.577846
     68          1           0      -14.993985   -4.693787    5.095929
     69          1           0      -14.944760   -3.020789    5.640447
     70          1           0      -13.450468   -4.456925    3.578582
     71          1           0      -12.804390   -3.327137    4.816666
     72          1           0      -13.623734   -2.730666    3.304183
     73          1           0      -15.456224    2.752697    5.422282
     74          1           0      -15.971194    1.053014    5.713747
     75          1           0      -17.200696    2.266550    5.164914
     76          1           0      -17.049512    4.564671    0.597064
     77          1           0      -14.889694    8.115020   -0.564708
     78          1           0      -14.596637    6.987038   -2.021247
     79          1           0      -13.588913    7.050037   -0.563079
     80         12           0       16.005398   -0.744206    0.033429
     81          6           0       15.469797    2.797490    0.253836
     82          6           0       14.828401   -0.572461   -3.163409
     83          6           0       16.039819   -3.915987   -0.044077
     84          6           0       16.043208   -0.815100    3.517566
     85          7           0       15.274706    0.950860   -1.185232
     86          6           0       15.174987    2.260829   -1.016797
     87          6           0       14.811842    3.048993   -2.303839
     88          6           0       14.091550    1.865258   -3.115525
     89          6           0       14.795674    0.668730   -2.478967
     90          6           0       12.604132    1.754406   -2.824603
     91          6           0       16.081574    3.574818   -3.061003
     92          6           0       15.797305    4.610276   -4.151314
     93          1           0       16.764891    5.683710   -4.361034
     94          7           0       15.978149   -1.991499   -1.509967
     95          6           0       15.482504   -1.750958   -2.741936
     96          6           0       15.683985   -2.991839   -3.506004
     97          6           0       16.189104   -4.038375   -2.576310
     98          6           0       16.066185   -3.346603   -1.308855
     99          6           0       15.477752   -3.075921   -4.990522
    100          6           0       16.686822   -5.435667   -2.790885
    101          8           0       16.851578   -6.249195   -1.814227
    102          6           0       16.886549   -5.853414   -4.186271
    103          7           0       15.825767   -2.192803    1.513850
    104          6           0       15.928504   -3.500353    1.217730
    105          6           0       16.043310   -4.335937    2.470334
    106          6           0       16.240332   -3.292574    3.666225
    107          6           0       16.110339   -1.972791    2.874601
    108          6           0       14.851184   -5.242096    2.777098
    109          6           0       17.484665   -3.490085    4.574680
    110          6           0       18.746391   -3.214837    3.788753
    111          7           0       15.982929    0.722938    1.619313
    112          6           0       15.978061    0.476098    3.009685
    113          6           0       15.843398    1.783833    3.683562
    114          6           0       15.755411    2.705919    2.629762
    115          6           0       15.809671    2.019231    1.386774
    116          6           0       15.767725    1.991162    5.089775
    117          6           0       15.618292    4.103015    2.286217
    118          8           0       15.612137    5.157061    2.920795
    119          6           0       15.300062    4.212560    0.732802
    120          6           0       16.202509    5.263597    0.146779
    121          8           0       17.433863    5.092463    0.113805
    122          8           0       15.452154    6.194004   -0.471031
    123          6           0       16.302902    7.252261   -1.077784
    124          1           0       14.265005   -0.667862   -4.092051
    125          1           0       16.160819   -5.001287   -0.012968
    126          1           0       16.145407   -0.743128    4.602491
    127          1           0       14.121659    3.870540   -2.153872
    128          1           0       14.317427    1.920020   -4.177291
    129          1           0       12.298973    2.416555   -2.028003
    130          1           0       12.435218    0.722820   -2.544725
    131          1           0       12.027880    1.916546   -3.740016
    132          1           0       16.493773    2.763759   -3.675029
    133          1           0       16.802375    3.966440   -2.369838
    134          1           0       14.781480    5.017368   -4.078371
    135          1           0       15.815361    4.106976   -5.121038
    136          1           0       14.947002   -2.195521   -5.373412
    137          1           0       14.788810   -3.908177   -5.171011
    138          1           0       16.406155   -3.261252   -5.534936
    139          1           0       15.948495   -5.761495   -4.728550
    140          1           0       17.329398   -6.849840   -4.132475
    141          1           0       17.593116   -5.163082   -4.660415
    142          1           0       16.909063   -4.985129    2.424141
    143          1           0       15.398083   -3.319260    4.373153
    144          1           0       15.127303   -6.309183    2.872819
    145          1           0       14.111960   -5.108962    1.998404
    146          1           0       14.291643   -4.981395    3.673836
    147          1           0       17.547990   -4.528297    4.909736
    148          1           0       17.475427   -2.865441    5.461657
    149          1           0       18.927223   -4.162410    3.272525
    150          1           0       19.567956   -2.966765    4.457730
    151          1           0       18.573942   -2.449836    3.022801
    152          1           0       16.401112    2.839133    5.313986
    153          1           0       16.078707    1.105282    5.639561
    154          1           0       14.698132    2.188567    5.200531
    155          1           0       14.246303    4.475252    0.632000
    156          1           0       15.957712    8.209579   -0.675212
    157          1           0       16.224231    7.108100   -2.171757
    158          1           0       17.350753    7.272345   -0.802015
 ---------------------------------------------------------------------

 SCF Done:  E(RCAM-B3LYP) =  -4069.81176768     A.U. after   19 cycles

 Excitation energies and oscillator strengths:

 Excited State   1:      Singlet-A      1.6753 eV  740.07 nm  f=0.2106  <S**2>=0.000
     310 -> 316        0.16850
     311 -> 314       -0.16396
     312 -> 313        0.66617
     310 <- 316        0.10158
 This state for optimization and/or second-order correction.
 Total Energy, E(TD-HF/TD-DFT) =  -4069.75020140
 Copying the excited state density for this state as the 1-particle RhoCI density.

 Excited State   2:      Singlet-A      1.6801 eV  737.95 nm  f=0.5668  <S**2>=0.000
     309 -> 315        0.17052
     311 -> 314        0.66581
     312 -> 313        0.16391
     309 <- 315        0.10209

 Excited State   3:      Singlet-A      2.1861 eV  567.16 nm  f=0.0952  <S**2>=0.000
     310 -> 313        0.64210
     312 -> 316       -0.27294

 Excited State   4:      Singlet-A      2.1925 eV  565.49 nm  f=0.1049  <S**2>=0.000
     309 -> 314        0.64033
     311 -> 315       -0.27814

 Excited State   5:      Singlet-A      3.0663 eV  404.35 nm  f=0.0000  <S**2>=0.000
     311 -> 313        0.70711

 The electronic state is 1-A.
 Alpha  occ. eigenvalues --  -46.87798 -46.87660 -19.26347 -19.26285 -19.19159
 Alpha  occ. eigenvalues --  -19.19021 -19.18818 -19.18715 -19.18170 -19.18049
 Alpha  occ. eigenvalues --  -14.42497 -14.42452 -14.41451 -14.41359 -14.39405
 Alpha  occ. eigenvalues --  -14.39352 -14.38599 -14.38588 -10.39089 -10.39081
 Alpha  occ. eigenvalues --  -10.35452 -10.35393 -10.34390 -10.34227 -10.31753
 Alpha  occ. eigenvalues --  -10.31680 -10.31407 -10.31308 -10.31023 -10.30911
 Alpha  occ. eigenvalues --  -10.30571 -10.30509 -10.30397 -10.30360 -10.30209
 Alpha  occ. eigenvalues --  -10.30141 -10.29922 -10.29894 -10.29633 -10.29437
 Alpha  occ. eigenvalues --  -10.29401 -10.29256 -10.28751 -10.28718 -10.28654
 Alpha  occ. eigenvalues --  -10.28542 -10.28404 -10.28367 -10.28139 -10.28119
 Alpha  occ. eigenvalues --  -10.28000 -10.27795 -10.27729 -10.27669 -10.27587
 Alpha  occ. eigenvalues --  -10.27518 -10.27502 -10.27485 -10.27483 -10.27469
 Alpha  occ. eigenvalues --  -10.27465 -10.27451 -10.27405 -10.27376 -10.27159
 Alpha  occ. eigenvalues --  -10.27048 -10.26708 -10.26692 -10.26417 -10.26415
 Alpha  occ. eigenvalues --  -10.26236 -10.26184 -10.26138 -10.26022 -10.26021
 Alpha  occ. eigenvalues --  -10.25934 -10.25849 -10.25843 -10.25436 -10.25397
 Alpha  occ. eigenvalues --  -10.24872 -10.24834 -10.24789 -10.24732 -10.24690
 Alpha  occ. eigenvalues --  -10.24688  -3.16541  -3.16410  -1.91423  -1.91292
 Alpha  occ. eigenvalues --   -1.91009  -1.90881  -1.90852  -1.90718  -1.16641
 Alpha  occ. eigenvalues --   -1.16634  -1.08656  -1.08628  -1.07219  -1.06968
 Alpha  occ. eigenvalues --   -1.06943  -1.06643  -1.04583  -1.04495  -1.03762
 Alpha  occ. eigenvalues --   -1.03663  -1.03236  -1.03039  -1.02413  -1.02111
 Alpha  occ. eigenvalues --   -0.91986  -0.91974  -0.89521  -0.89494  -0.89190
 Alpha  occ. eigenvalues --   -0.89150  -0.88288  -0.88220  -0.87871  -0.87793
 Alpha  occ. eigenvalues --   -0.87684  -0.87675  -0.87277  -0.87121  -0.84999
 Alpha  occ. eigenvalues --   -0.84984  -0.83938  -0.83876  -0.82970  -0.82933
 Alpha  occ. eigenvalues --   -0.82652  -0.82651  -0.81595  -0.81587  -0.80598
 Alpha  occ. eigenvalues --   -0.80442  -0.78799  -0.78636  -0.77220  -0.77144
 Alpha  occ. eigenvalues --   -0.76936  -0.76898  -0.75925  -0.75838  -0.74899
 Alpha  occ. eigenvalues --   -0.74802  -0.72776  -0.72699  -0.71674  -0.71580
 Alpha  occ. eigenvalues --   -0.69908  -0.69758  -0.68875  -0.68827  -0.67643
 Alpha  occ. eigenvalues --   -0.67601  -0.67223  -0.67200  -0.65288  -0.65271
 Alpha  occ. eigenvalues --   -0.64855  -0.64770  -0.64653  -0.64622  -0.64271
 Alpha  occ. eigenvalues --   -0.64204  -0.62299  -0.62277  -0.60444  -0.60340
 Alpha  occ. eigenvalues --   -0.59806  -0.59796  -0.58992  -0.58989  -0.58505
 Alpha  occ. eigenvalues --   -0.58425  -0.57586  -0.57553  -0.57310  -0.57236
 Alpha  occ. eigenvalues --   -0.56312  -0.56204  -0.55980  -0.55885  -0.55523
 Alpha  occ. eigenvalues --   -0.55452  -0.55341  -0.55247  -0.54525  -0.54487
 Alpha  occ. eigenvalues --   -0.53912  -0.53897  -0.53301  -0.53227  -0.53224
 Alpha  occ. eigenvalues --   -0.53141  -0.52916  -0.52901  -0.52759  -0.52669
 Alpha  occ. eigenvalues --   -0.52439  -0.52401  -0.51915  -0.51883  -0.51658
 Alpha  occ. eigenvalues --   -0.51619  -0.51200  -0.51197  -0.50576  -0.50476
 Alpha  occ. eigenvalues --   -0.50033  -0.49980  -0.49921  -0.49867  -0.49517
 Alpha  occ. eigenvalues --   -0.49488  -0.49216  -0.49202  -0.49103  -0.49098
 Alpha  occ. eigenvalues --   -0.48594  -0.48557  -0.48463  -0.48447  -0.48376
 Alpha  occ. eigenvalues --   -0.48339  -0.47697  -0.47594  -0.47299  -0.47118
 Alpha  occ. eigenvalues --   -0.46799  -0.46709  -0.46558  -0.46553  -0.46361
 Alpha  occ. eigenvalues --   -0.46270  -0.46164  -0.46085  -0.45823  -0.45821
 Alpha  occ. eigenvalues --   -0.45209  -0.45203  -0.44579  -0.44513  -0.44509
 Alpha  occ. eigenvalues --   -0.44476  -0.44146  -0.44127  -0.44090  -0.44078
 Alpha  occ. eigenvalues --   -0.44021  -0.43939  -0.43552  -0.43496  -0.43388
 Alpha  occ. eigenvalues --   -0.43385  -0.43029  -0.42929  -0.42900  -0.42700
 Alpha  occ. eigenvalues --   -0.42656  -0.42554  -0.42011  -0.41964  -0.41706
 Alpha  occ. eigenvalues --   -0.41668  -0.41536  -0.41458  -0.41143  -0.40989
 Alpha  occ. eigenvalues --   -0.40871  -0.40826  -0.40723  -0.40698  -0.40573
 Alpha  occ. eigenvalues --   -0.40493  -0.40237  -0.40227  -0.39442  -0.39426
 Alpha  occ. eigenvalues --   -0.38470  -0.38350  -0.37751  -0.37653  -0.37322
 Alpha  occ. eigenvalues --   -0.37266  -0.37266  -0.37199  -0.36770  -0.36714
 Alpha  occ. eigenvalues --   -0.36217  -0.36194  -0.34288  -0.34253  -0.33860
 Alpha  occ. eigenvalues --   -0.33771  -0.33188  -0.33175  -0.31348  -0.31274
 Alpha  occ. eigenvalues --   -0.31037  -0.30973  -0.30030  -0.29954  -0.29451
 Alpha  occ. eigenvalues --   -0.29327  -0.29323  -0.29211  -0.24082  -0.24036
 Alpha  occ. eigenvalues --   -0.21129  -0.21117
 Alpha virt. eigenvalues --   -0.08792  -0.08776  -0.01752  -0.01684  -0.00060
 Alpha virt. eigenvalues --   -0.00029   0.02199   0.02208   0.03121   0.03226
 Alpha virt. eigenvalues --    0.04716   0.04730   0.05097   0.05167   0.06175

 Mulliken charges:
               1
     1  Mg   0.838763
     2  C   -0.002978
     3  C   -0.094130
     4  C   -0.045872
     5  C   -0.063960
     6  N   -0.256775
     7  C   -0.052457
     8  C   -0.014021
     9  C   -0.087001
    10  C    0.046321
    11  C    0.104812
    12  C    0.053474
    13  C   -0.071791
    14  H    0.036114
    15  N   -0.433141
    16  C    0.168421
    17  C   -0.177175
    18  C   -0.004011
    19  C    0.148706
    20  C    0.110183
    21  C    0.012270
    22  O   -0.249627
    23  C    0.062484
    24  N   -0.341176
    25  C    0.041258
    26  C   -0.028178
    27  C   -0.023989
    28  C    0.074874
    29  C    0.076163
    30  C    0.035117
    31  C   -0.004504
    32  N   -0.310471
    33  C    0.080416
    34  C   -0.169689
    35  C    0.008360
    36  C    0.082968
    37  C    0.127307
    38  C    0.046138
    39  O   -0.188404
    40  C   -0.005315
    41  C    0.212865
    42  O   -0.257104
    43  O   -0.304795
    44  C    0.157693
    45  H   -0.017615
    46  H   -0.016841
    47  H   -0.041469
    48  H    0.000949
    49  H   -0.004050
    50  H    0.025484
    51  H    0.016450
    52  H    0.016652
    53  H    0.011185
    54  H    0.044125
    55  H    0.017882
    56  H    0.017928
    57  H    0.005865
    58  H    0.026819
    59  H    0.039515
    60  H    0.037345
    61  H    0.035634
    62  H    0.031475
    63  H    0.016550
    64  H    0.009474
    65  H    0.023211
    66  H    0.012545
    67  H    0.004765
    68  H    0.006374
    69  H    0.004753
    70  H    0.008769
    71  H    0.018163
    72  H    0.028971
    73  H    0.047599
    74  H    0.009126
    75  H    0.046021
    76  H    0.035157
    77  H    0.042968
    78  H    0.046382
    79  H    0.053694
    80  Mg   0.837850
    81  C   -0.016834
    82  C   -0.087808
    83  C   -0.045506
    84  C   -0.064855
    85  N   -0.254557
    86  C   -0.049824
    87  C   -0.015122
    88  C   -0.090506
    89  C    0.045769
    90  C    0.114375
    91  C    0.062532
    92  C   -0.077886
    93  H    0.034895
    94  N   -0.423491
    95  C    0.162918
    96  C   -0.174621
    97  C   -0.007803
    98  C    0.152121
    99  C    0.099367
   100  C    0.015560
   101  O   -0.253185
   102  C    0.061200
   103  N   -0.350057
   104  C    0.037527
   105  C   -0.019845
   106  C   -0.034828
   107  C    0.088914
   108  C    0.073644
   109  C    0.034729
   110  C   -0.007674
   111  N   -0.324117
   112  C    0.078455
   113  C   -0.163122
   114  C    0.002269
   115  C    0.096186
   116  C    0.131490
   117  C    0.042409
   118  O   -0.187819
   119  C    0.000921
   120  C    0.211266
   121  O   -0.251033
   122  O   -0.305615
   123  C    0.152022
   124  H   -0.019659
   125  H   -0.015571
   126  H   -0.040429
   127  H   -0.000607
   128  H   -0.004340
   129  H    0.022512
   130  H    0.014436
   131  H    0.016292
   132  H    0.013903
   133  H    0.037674
   134  H    0.020812
   135  H    0.019572
   136  H    0.008757
   137  H    0.026138
   138  H    0.039779
   139  H    0.038247
   140  H    0.036388
   141  H    0.033889
   142  H    0.014396
   143  H    0.012459
   144  H    0.025138
   145  H    0.011656
   146  H    0.005710
   147  H    0.006269
   148  H    0.003668
   149  H    0.010927
   150  H    0.017933
   151  H    0.030099
   152  H    0.046019
   153  H    0.008515
   154  H    0.047012
   155  H    0.035087
   156  H    0.043949
   157  H    0.049485
   158  H    0.053572
 Sum of Mulliken charges =  -0.00000

 Dipole moment (field-independent basis, Debye):
    X=             -4.2047    Y=             -2.7045    Z=             -7.5623  Tot=              9.0654
 Quadrupole moment (field-independent basis, Debye-Ang):
   XX=           -521.1585   YY=           -553.0888   ZZ=           -446.8807
   XY=             -7.0181   XZ=              9.4751   YZ=            -47.3619

 Normal termination of Gaussian 16 at Sun Sep 12 19:48:58 2021.
