 Gaussian 16, Revision A.03,
 Gaussian 16:  ES64L-G16RevA.03 25-Dec-2016

 -----------------------------------
 #p cam-b3lyp/Def2SVP td=(nstates=5)
 -----------------------------------

 --------------------------------
 TDDFT excited states in gaussian
 --------------------------------
 Symbolic Z-matrix:
 Charge =  0 Multiplicity = 1

                         Standard orientation:
 ---------------------------------------------------------------------
 Center     Atomic      Atomic             Coordinates (Angstroms)
 Number     Number       Type             X           Y           Z
 ---------------------------------------------------------------------
      1         12           0      -15.785821    0.553102   -0.565914
      2          6           0      -16.041371   -2.396149    1.446255
      3          6           0      -16.757116    2.330695    2.179959
      4          6           0      -16.007471    3.107279   -2.432374
      5          6           0      -15.948656   -1.519545   -3.362926
      6          7           0      -16.303144   -0.067119    1.495238
      7          6           0      -16.303407   -1.221371    2.154688
      8          6           0      -16.534227   -1.057549    3.686765
      9          6           0      -17.292904    0.344713    3.678509
     10          6           0      -16.725049    0.920550    2.393255
     11          6           0      -18.805986    0.217958    3.533531
     12          6           0      -15.189763   -0.976818    4.485283
     13          6           0      -15.319561   -1.144393    6.001998
     14          1           0      -14.263754   -1.839594    6.722633
     15          7           0      -15.828185    2.474480   -0.108350
     16          6           0      -16.237641    3.019317    1.062455
     17          6           0      -16.078902    4.481499    0.909141
     18          6           0      -15.723631    4.754169   -0.511256
     19          6           0      -15.866401    3.441604   -1.087595
     20          6           0      -16.213958    5.447496    2.045962
     21          6           0      -15.329758    6.001948   -1.236545
     22          8           0      -15.289466    6.062784   -2.512965
     23          6           0      -15.074619    7.192262   -0.405221
     24          7           0      -16.174588    0.794086   -2.602681
     25          6           0      -16.155788    2.005088   -3.170224
     26          6           0      -16.178752    1.907115   -4.666825
     27          6           0      -15.971244    0.361927   -5.011916
     28          6           0      -15.945450   -0.200658   -3.569313
     29          6           0      -17.454890    2.415985   -5.351319
     30          6           0      -14.802178    0.004847   -5.963860
     31          6           0      -13.481669    0.295109   -5.286288
     32          7           0      -15.785259   -1.586207   -0.932520
     33          6           0      -15.883320   -2.228707   -2.175199
     34          6           0      -15.950312   -3.677302   -1.908453
     35          6           0      -15.902960   -3.776595   -0.519301
     36          6           0      -15.838608   -2.471393    0.046914
     37          6           0      -16.100064   -4.698892   -2.887413
     38          6           0      -15.916599   -4.680600    0.619314
     39          8           0      -15.866675   -5.903841    0.756002
     40          6           0      -16.129647   -3.818431    1.941094
     41          6           0      -15.112759   -4.275955    2.951004
     42          8           0      -13.894563   -4.076501    2.767743
     43          8           0      -15.741496   -4.658533    4.072995
     44          6           0      -14.787773   -5.096531    5.126904
     45          1           0      -17.277959    2.962092    2.902455
     46          1           0      -15.976704    3.956191   -3.118551
     47          1           0      -15.915418   -2.231564   -4.189593
     48          1           0      -17.169365   -1.821827    4.134986
     49          1           0      -17.010657    0.965125    4.528890
     50          1           0      -19.101871   -0.811046    3.329757
     51          1           0      -19.073326    0.863743    2.696880
     52          1           0      -19.314563    0.630798    4.405132
     53          1           0      -14.807511    0.043077    4.443350
     54          1           0      -14.469806   -1.701193    4.102833
     55          1           0      -16.296339   -1.543547    6.276752
     56          1           0      -15.293136   -0.154870    6.458448
     57          1           0      -16.641456    4.971346    2.927478
     58          1           0      -16.957608    6.186749    1.748980
     59          1           0      -15.271801    5.945499    2.275449
     60          1           0      -15.970930    7.429549    0.168253
     61          1           0      -14.718737    7.964242   -1.086575
     62          1           0      -14.298694    6.954581    0.323063
     63          1           0      -15.367456    2.483943   -5.108971
     64          1           0      -16.848230   -0.070892   -5.493827
     65          1           0      -17.273920    3.197787   -6.089384
     66          1           0      -18.138583    2.760747   -4.576081
     67          1           0      -18.050881    1.644731   -5.838536
     68          1           0      -14.843581    0.619556   -6.862395
     69          1           0      -14.805062   -1.039544   -6.276093
     70          1           0      -13.343174    1.360110   -5.469107
     71          1           0      -12.682256   -0.287099   -5.745837
     72          1           0      -13.548853    0.155774   -4.207141
     73          1           0      -15.407002   -5.492537   -2.608553
     74          1           0      -15.889213   -4.322365   -3.888098
     75          1           0      -17.150150   -4.956906   -2.751015
     76          1           0      -17.150142   -4.003484    2.274963
     77          1           0      -15.073419   -6.107339    5.418292
     78          1           0      -14.801247   -4.325072    5.897018
     79          1           0      -13.757468   -5.257747    4.807810
     80         12           0       15.955167    0.674377    0.460576
     81          6           0       15.836970   -1.991828   -1.938679
     82          6           0       15.010875   -1.604210    2.816627
     83          6           0       15.612381    3.077392    2.503970
     84          6           0       15.764912    2.902178   -2.212704
     85          7           0       15.511944   -1.488846    0.332973
     86          6           0       15.560229   -2.407810   -0.619662
     87          6           0       15.376282   -3.865060   -0.117514
     88          6           0       14.571254   -3.552999    1.236530
     89          6           0       15.084788   -2.140096    1.506106
     90          6           0       13.065979   -3.484621    1.039582
     91          6           0       16.745186   -4.572655    0.178192
     92          6           0       16.656775   -6.087732    0.374377
     93          1           0       17.757787   -6.917360   -0.107233
     94          7           0       15.875142    0.672484    2.443548
     95          6           0       15.490558   -0.345720    3.241431
     96          6           0       15.588883    0.162857    4.618328
     97          6           0       15.904853    1.615953    4.560206
     98          6           0       15.786607    1.854659    3.135733
     99          6           0       15.467830   -0.723531    5.823769
    100          6           0       16.243282    2.626585    5.613912
    101          8           0       16.247146    3.883825    5.364554
    102          6           0       16.478656    2.107136    6.968996
    103          7           0       15.509718    2.689092    0.205921
    104          6           0       15.472744    3.527132    1.256748
    105          6           0       15.407109    4.966434    0.804558
    106          6           0       15.652662    4.932022   -0.775350
    107          6           0       15.732520    3.404044   -0.985808
    108          6           0       14.097661    5.697498    1.100004
    109          6           0       16.804534    5.815468   -1.327965
    110          6           0       18.137138    5.282190   -0.853453
    111          7           0       16.009739    0.526506   -1.694229
    112          6           0       15.887735    1.581449   -2.624981
    113          6           0       15.869328    0.974083   -3.971528
    114          6           0       15.959445   -0.404666   -3.727790
    115          6           0       16.008744   -0.641222   -2.327387
    116          6           0       15.730845    1.679111   -5.200303
    117          6           0       16.013360   -1.714409   -4.336377
    118          8           0       16.094211   -2.133424   -5.490335
    119          6           0       15.808995   -2.807956   -3.201135
    120          6           0       16.866456   -3.863134   -3.376852
    121          8           0       18.067882   -3.587595   -3.211721
    122          8           0       16.273915   -5.065245   -3.495991
    123          6           0       17.282321   -6.145788   -3.661405
    124          1           0       14.499635   -2.183543    3.585968
    125          1           0       15.599676    3.950044    3.161069
    126          1           0       15.806567    3.535387   -3.101515
    127          1           0       14.781959   -4.497415   -0.766102
    128          1           0       14.868433   -4.225851    2.036727
    129          1           0       12.793234   -3.540342   -0.003802
    130          1           0       12.756850   -2.537211    1.461371
    131          1           0       12.572164   -4.256106    1.637323
    132          1           0       17.094568   -4.274196    1.174980
    133          1           0       17.462957   -4.348622   -0.586825
    134          1           0       15.694773   -6.491710    0.036296
    135          1           0       16.675078   -6.300522    1.446013
    136          1           0       15.072054   -1.711628    5.558371
    137          1           0       14.696450   -0.285642    6.466491
    138          1           0       16.399576   -0.795651    6.388844
    139          1           0       15.594479    1.573806    7.309937
    140          1           0       16.794090    2.968234    7.561351
    141          1           0       17.291604    1.373716    6.926213
    142          1           0       16.189603    5.553807    1.269091
    143          1           0       14.770527    5.280297   -1.332481
    144          1           0       14.236757    6.616978    1.699399
    145          1           0       13.430305    5.011761    1.604914
    146          1           0       13.518263    5.979858    0.222637
    147          1           0       16.721232    6.833262   -0.938960
    148          1           0       16.814763    5.884336   -2.410617
    149          1           0       18.234721    5.715981    0.146243
    150          1           0       18.938874    5.616572   -1.508782
    151          1           0       18.106553    4.192480   -0.738378
    152          1           0       16.446325    1.248911   -5.888426
    153          1           0       15.897734    2.746019   -5.067514
    154          1           0       14.687961    1.453255   -5.438284
    155          1           0       14.802958   -3.213707   -3.314422
    156          1           0       17.030237   -6.679725   -4.582837
    157          1           0       17.255853   -6.725815   -2.719802
    158          1           0       18.305539   -5.850077   -3.861499
 ---------------------------------------------------------------------

 SCF Done:  E(RCAM-B3LYP) =  -4069.81179203     A.U. after   19 cycles

 Excitation energies and oscillator strengths:

 Excited State   1:      Singlet-A      1.6756 eV  739.95 nm  f=0.3778  <S**2>=0.000
     310 -> 316        0.17324
     312 -> 313        0.68469
     310 <- 316        0.10441
 This state for optimization and/or second-order correction.
 Total Energy, E(TD-HF/TD-DFT) =  -4069.75021597
 Copying the excited state density for this state as the 1-particle RhoCI density.

 Excited State   2:      Singlet-A      1.6799 eV  738.06 nm  f=0.3985  <S**2>=0.000
     309 -> 315        0.17522
     311 -> 314        0.68435
     309 <- 315        0.10494

 Excited State   3:      Singlet-A      2.1861 eV  567.15 nm  f=0.1019  <S**2>=0.000
     310 -> 313        0.64244
     312 -> 316       -0.27307

 Excited State   4:      Singlet-A      2.1926 eV  565.48 nm  f=0.0991  <S**2>=0.000
     309 -> 314        0.64067
     311 -> 315       -0.27831

 Excited State   5:      Singlet-A      3.0661 eV  404.38 nm  f=0.0000  <S**2>=0.000
     311 -> 313        0.70711

 The electronic state is 1-A.
 Alpha  occ. eigenvalues --  -46.87796 -46.87660 -19.26344 -19.26290 -19.19157
 Alpha  occ. eigenvalues --  -19.19025 -19.18813 -19.18715 -19.18171 -19.18050
 Alpha  occ. eigenvalues --  -14.42496 -14.42450 -14.41449 -14.41359 -14.39403
 Alpha  occ. eigenvalues --  -14.39352 -14.38600 -14.38587 -10.39087 -10.39084
 Alpha  occ. eigenvalues --  -10.35447 -10.35393 -10.34392 -10.34227 -10.31750
 Alpha  occ. eigenvalues --  -10.31687 -10.31406 -10.31307 -10.31021 -10.30909
 Alpha  occ. eigenvalues --  -10.30570 -10.30507 -10.30398 -10.30360 -10.30206
 Alpha  occ. eigenvalues --  -10.30142 -10.29920 -10.29895 -10.29631 -10.29437
 Alpha  occ. eigenvalues --  -10.29400 -10.29254 -10.28751 -10.28714 -10.28647
 Alpha  occ. eigenvalues --  -10.28543 -10.28404 -10.28365 -10.28135 -10.28118
 Alpha  occ. eigenvalues --  -10.28001 -10.27793 -10.27727 -10.27668 -10.27584
 Alpha  occ. eigenvalues --  -10.27521 -10.27499 -10.27482 -10.27480 -10.27467
 Alpha  occ. eigenvalues --  -10.27464 -10.27447 -10.27404 -10.27379 -10.27161
 Alpha  occ. eigenvalues --  -10.27048 -10.26708 -10.26688 -10.26417 -10.26407
 Alpha  occ. eigenvalues --  -10.26235 -10.26181 -10.26142 -10.26019 -10.26017
 Alpha  occ. eigenvalues --  -10.25935 -10.25851 -10.25844 -10.25433 -10.25401
 Alpha  occ. eigenvalues --  -10.24872 -10.24833 -10.24787 -10.24735 -10.24690
 Alpha  occ. eigenvalues --  -10.24684  -3.16539  -3.16410  -1.91421  -1.91292
 Alpha  occ. eigenvalues --   -1.91007  -1.90881  -1.90850  -1.90718  -1.16639
 Alpha  occ. eigenvalues --   -1.16638  -1.08657  -1.08629  -1.07214  -1.06968
 Alpha  occ. eigenvalues --   -1.06941  -1.06647  -1.04581  -1.04494  -1.03760
 Alpha  occ. eigenvalues --   -1.03663  -1.03234  -1.03039  -1.02411  -1.02111
 Alpha  occ. eigenvalues --   -0.91986  -0.91973  -0.89519  -0.89495  -0.89189
 Alpha  occ. eigenvalues --   -0.89147  -0.88286  -0.88222  -0.87871  -0.87793
 Alpha  occ. eigenvalues --   -0.87683  -0.87673  -0.87273  -0.87120  -0.84997
 Alpha  occ. eigenvalues --   -0.84983  -0.83935  -0.83878  -0.82966  -0.82933
 Alpha  occ. eigenvalues --   -0.82650  -0.82649  -0.81594  -0.81588  -0.80597
 Alpha  occ. eigenvalues --   -0.80441  -0.78797  -0.78635  -0.77219  -0.77143
 Alpha  occ. eigenvalues --   -0.76936  -0.76896  -0.75925  -0.75835  -0.74897
 Alpha  occ. eigenvalues --   -0.74804  -0.72774  -0.72699  -0.71672  -0.71580
 Alpha  occ. eigenvalues --   -0.69905  -0.69760  -0.68874  -0.68825  -0.67641
 Alpha  occ. eigenvalues --   -0.67601  -0.67221  -0.67197  -0.65288  -0.65269
 Alpha  occ. eigenvalues --   -0.64855  -0.64769  -0.64652  -0.64622  -0.64269
 Alpha  occ. eigenvalues --   -0.64205  -0.62300  -0.62276  -0.60441  -0.60340
 Alpha  occ. eigenvalues --   -0.59805  -0.59793  -0.58992  -0.58988  -0.58504
 Alpha  occ. eigenvalues --   -0.58425  -0.57587  -0.57552  -0.57309  -0.57237
 Alpha  occ. eigenvalues --   -0.56310  -0.56203  -0.55982  -0.55883  -0.55520
 Alpha  occ. eigenvalues --   -0.55451  -0.55340  -0.55248  -0.54525  -0.54487
 Alpha  occ. eigenvalues --   -0.53908  -0.53896  -0.53299  -0.53227  -0.53223
 Alpha  occ. eigenvalues --   -0.53140  -0.52916  -0.52900  -0.52756  -0.52667
 Alpha  occ. eigenvalues --   -0.52436  -0.52404  -0.51915  -0.51885  -0.51656
 Alpha  occ. eigenvalues --   -0.51618  -0.51200  -0.51197  -0.50571  -0.50475
 Alpha  occ. eigenvalues --   -0.50030  -0.49978  -0.49918  -0.49869  -0.49515
 Alpha  occ. eigenvalues --   -0.49486  -0.49215  -0.49200  -0.49101  -0.49097
 Alpha  occ. eigenvalues --   -0.48594  -0.48556  -0.48460  -0.48446  -0.48377
 Alpha  occ. eigenvalues --   -0.48338  -0.47695  -0.47593  -0.47297  -0.47118
 Alpha  occ. eigenvalues --   -0.46797  -0.46708  -0.46557  -0.46551  -0.46359
 Alpha  occ. eigenvalues --   -0.46270  -0.46163  -0.46086  -0.45824  -0.45820
 Alpha  occ. eigenvalues --   -0.45210  -0.45200  -0.44579  -0.44512  -0.44507
 Alpha  occ. eigenvalues --   -0.44474  -0.44144  -0.44125  -0.44089  -0.44078
 Alpha  occ. eigenvalues --   -0.44020  -0.43938  -0.43551  -0.43497  -0.43386
 Alpha  occ. eigenvalues --   -0.43384  -0.43027  -0.42928  -0.42900  -0.42701
 Alpha  occ. eigenvalues --   -0.42655  -0.42555  -0.42009  -0.41964  -0.41705
 Alpha  occ. eigenvalues --   -0.41668  -0.41535  -0.41456  -0.41141  -0.40988
 Alpha  occ. eigenvalues --   -0.40870  -0.40822  -0.40721  -0.40697  -0.40571
 Alpha  occ. eigenvalues --   -0.40494  -0.40236  -0.40223  -0.39439  -0.39428
 Alpha  occ. eigenvalues --   -0.38468  -0.38351  -0.37750  -0.37650  -0.37320
 Alpha  occ. eigenvalues --   -0.37266  -0.37265  -0.37197  -0.36768  -0.36716
 Alpha  occ. eigenvalues --   -0.36216  -0.36194  -0.34286  -0.34253  -0.33859
 Alpha  occ. eigenvalues --   -0.33774  -0.33187  -0.33175  -0.31343  -0.31274
 Alpha  occ. eigenvalues --   -0.31036  -0.30972  -0.30031  -0.29954  -0.29449
 Alpha  occ. eigenvalues --   -0.29327  -0.29322  -0.29211  -0.24081  -0.24036
 Alpha  occ. eigenvalues --   -0.21128  -0.21116
 Alpha virt. eigenvalues --   -0.08791  -0.08774  -0.01749  -0.01684  -0.00058
 Alpha virt. eigenvalues --   -0.00028   0.02200   0.02208   0.03120   0.03227
 Alpha virt. eigenvalues --    0.04717   0.04732   0.05094   0.05169   0.06174

 Mulliken charges:
               1
     1  Mg   0.838678
     2  C   -0.002978
     3  C   -0.094118
     4  C   -0.045842
     5  C   -0.063952
     6  N   -0.256772
     7  C   -0.052473
     8  C   -0.014029
     9  C   -0.086995
    10  C    0.046313
    11  C    0.104812
    12  C    0.053473
    13  C   -0.071787
    14  H    0.036069
    15  N   -0.433124
    16  C    0.168424
    17  C   -0.177142
    18  C   -0.003989
    19  C    0.148717
    20  C    0.110174
    21  C    0.012299
    22  O   -0.249595
    23  C    0.062466
    24  N   -0.341115
    25  C    0.041239
    26  C   -0.028196
    27  C   -0.023955
    28  C    0.074829
    29  C    0.076167
    30  C    0.035115
    31  C   -0.004502
    32  N   -0.310468
    33  C    0.080411
    34  C   -0.169726
    35  C    0.008338
    36  C    0.082988
    37  C    0.127317
    38  C    0.046105
    39  O   -0.188487
    40  C   -0.005320
    41  C    0.212853
    42  O   -0.257121
    43  O   -0.304787
    44  C    0.157716
    45  H   -0.017598
    46  H   -0.016813
    47  H   -0.041483
    48  H    0.000924
    49  H   -0.004034
    50  H    0.025469
    51  H    0.016462
    52  H    0.016659
    53  H    0.011215
    54  H    0.044099
    55  H    0.017869
    56  H    0.017962
    57  H    0.005872
    58  H    0.026844
    59  H    0.039570
    60  H    0.037351
    61  H    0.035683
    62  H    0.031509
    63  H    0.016579
    64  H    0.009465
    65  H    0.023239
    66  H    0.012543
    67  H    0.004761
    68  H    0.006396
    69  H    0.004732
    70  H    0.008800
    71  H    0.018159
    72  H    0.028958
    73  H    0.047543
    74  H    0.009125
    75  H    0.046004
    76  H    0.035145
    77  H    0.042916
    78  H    0.046400
    79  H    0.053647
    80  Mg   0.837863
    81  C   -0.016810
    82  C   -0.087763
    83  C   -0.045500
    84  C   -0.064896
    85  N   -0.254559
    86  C   -0.049849
    87  C   -0.015095
    88  C   -0.090501
    89  C    0.045741
    90  C    0.114359
    91  C    0.062519
    92  C   -0.077920
    93  H    0.034914
    94  N   -0.423505
    95  C    0.162915
    96  C   -0.174600
    97  C   -0.007815
    98  C    0.152105
    99  C    0.099351
   100  C    0.015557
   101  O   -0.253213
   102  C    0.061202
   103  N   -0.350051
   104  C    0.037526
   105  C   -0.019834
   106  C   -0.034824
   107  C    0.088915
   108  C    0.073661
   109  C    0.034740
   110  C   -0.007674
   111  N   -0.324109
   112  C    0.078464
   113  C   -0.163140
   114  C    0.002256
   115  C    0.096191
   116  C    0.131492
   117  C    0.042389
   118  O   -0.187840
   119  C    0.000929
   120  C    0.211243
   121  O   -0.251032
   122  O   -0.305602
   123  C    0.152023
   124  H   -0.019602
   125  H   -0.015599
   126  H   -0.040469
   127  H   -0.000591
   128  H   -0.004296
   129  H    0.022501
   130  H    0.014428
   131  H    0.016376
   132  H    0.013907
   133  H    0.037664
   134  H    0.020847
   135  H    0.019610
   136  H    0.008808
   137  H    0.026161
   138  H    0.039797
   139  H    0.038266
   140  H    0.036372
   141  H    0.033906
   142  H    0.014381
   143  H    0.012425
   144  H    0.025107
   145  H    0.011659
   146  H    0.005676
   147  H    0.006241
   148  H    0.003647
   149  H    0.010921
   150  H    0.017922
   151  H    0.030119
   152  H    0.046005
   153  H    0.008493
   154  H    0.046975
   155  H    0.035091
   156  H    0.043944
   157  H    0.049520
   158  H    0.053566
 Sum of Mulliken charges =  -0.00000

 Dipole moment (field-independent basis, Debye):
    X=             -4.2017    Y=              1.9421    Z=              5.8912  Tot=              7.4922
 Quadrupole moment (field-independent basis, Debye-Ang):
   XX=           -517.0362   YY=           -511.8067   ZZ=           -487.1590
   XY=            -73.6671   XZ=             21.7255   YZ=            -11.7749

 Normal termination of Gaussian 16 at Sun Sep 12 21:51:04 2021.
