 Gaussian 16, Revision A.03,
 Gaussian 16:  ES64L-G16RevA.03 25-Dec-2016

 -----------------------------------
 #p cam-b3lyp/Def2SVP td=(nstates=5)
 -----------------------------------

 --------------------------------
 TDDFT excited states in gaussian
 --------------------------------
 Symbolic Z-matrix:
 Charge =  0 Multiplicity = 1

                         Standard orientation:
 ---------------------------------------------------------------------
 Center     Atomic      Atomic             Coordinates (Angstroms)
 Number     Number       Type             X           Y           Z
 ---------------------------------------------------------------------
      1         12           0        3.196213   -2.216144   -0.043422
      2          6           0        5.308650    0.563177   -0.834117
      3          6           0        4.504348   -2.123233    3.106692
      4          6           0        1.685430   -4.941125    0.547034
      5          6           0        2.920757   -2.792110   -3.469505
      6          7           0        4.706845   -0.898943    0.896589
      7          6           0        5.397172    0.166407    0.502066
      8          6           0        6.166073    0.868324    1.661149
      9          6           0        6.290176   -0.364911    2.664009
     10          6           0        5.075061   -1.160968    2.221613
     11          6           0        7.539738   -1.210085    2.438674
     12          6           0        5.344949    2.041456    2.294590
     13          6           0        6.142730    2.981392    3.203116
     14          1           0        5.810547    4.398064    3.209593
     15          7           0        2.727699   -3.075541    1.672616
     16          6           0        3.358483   -2.910018    2.860050
     17          6           0        2.634470   -3.761431    3.828338
     18          6           0        1.650342   -4.580275    3.067364
     19          6           0        2.004474   -4.246501    1.711428
     20          6           0        2.869911   -3.709399    5.306719
     21          6           0        0.570161   -5.523227    3.494193
     22          8           0       -0.014690   -6.305710    2.669424
     23          6           0        0.272019   -5.570825    4.937067
     24          7           0        2.589477   -3.796892   -1.264381
     25          6           0        1.901285   -4.829502   -0.765290
     26          6           0        1.335313   -5.687548   -1.857706
     27          6           0        1.576707   -4.887349   -3.218281
     28          6           0        2.356388   -3.678021   -2.645662
     29          6           0        1.933794   -7.095630   -1.980727
     30          6           0        0.334366   -4.612348   -4.102239
     31          6           0       -0.592537   -3.646539   -3.398561
     32          7           0        3.816031   -1.198762   -1.857754
     33          6           0        3.614645   -1.629870   -3.176944
     34          6           0        4.304147   -0.667548   -4.055917
     35          6           0        4.876410    0.253287   -3.180462
     36          6           0        4.586242   -0.125403   -1.838564
     37          6           0        4.392135   -0.748696   -5.473700
     38          6           0        5.686244    1.455302   -3.065630
     39          8           0        6.142805    2.273031   -3.865857
     40          6           0        6.101004    1.636070   -1.538828
     41          6           0        5.835468    3.068187   -1.162210
     42          8           0        4.669893    3.511450   -1.114067
     43          8           0        6.963981    3.620546   -0.691148
     44          6           0        6.762403    5.033188   -0.271667
     45          1           0        5.011049   -2.339224    4.049317
     46          1           0        1.068768   -5.829125    0.700731
     47          1           0        2.807277   -2.860096   -4.552996
     48          1           0        7.158367    1.231926    1.393621
     49          1           0        6.183026   -0.056319    3.703726
     50          1           0        8.073881   -0.899944    1.540662
     51          1           0        7.183032   -2.234986    2.334588
     52          1           0        8.176915   -1.202978    3.323395
     53          1           0        4.640075    1.635919    3.020368
     54          1           0        4.846478    2.625605    1.520237
     55          1           0        7.216671    2.841461    3.076704
     56          1           0        5.952693    2.698393    4.238489
     57          1           0        3.764397   -3.137301    5.549915
     58          1           0        3.101095   -4.724724    5.628243
     59          1           0        1.998275   -3.341742    5.848393
     60          1           0        1.172843   -5.854812    5.481509
     61          1           0       -0.586448   -6.232809    5.045058
     62          1           0        0.011633   -4.568058    5.277077
     63          1           0        0.266059   -5.842242   -1.719177
     64          1           0        2.265712   -5.409088   -3.882912
     65          1           0        1.194377   -7.893562   -1.908122
     66          1           0        2.701872   -7.203402   -1.215394
     67          1           0        2.508052   -7.270357   -2.890185
     68          1           0       -0.225511   -5.532459   -4.266189
     69          1           0        0.584342   -4.197733   -5.078895
     70          1           0       -1.168491   -4.297001   -2.741288
     71          1           0       -1.240668   -3.147494   -4.119735
     72          1           0       -0.038679   -2.952313   -2.766281
     73          1           0        4.215330    0.259394   -5.848483
     74          1           0        3.665173   -1.453978   -5.875827
     75          1           0        5.418994   -1.093975   -5.592857
     76          1           0        7.158682    1.383856   -1.469350
     77          1           0        7.486728    5.636901   -0.818584
     78          1           0        6.814467    5.043542    0.817180
     79          1           0        5.827660    5.500090   -0.584072
     80         12           0       -3.343458    2.280395    0.324243
     81          6           0       -5.205349   -0.751406   -0.145511
     82          6           0       -2.564647    2.140042   -2.993642
     83          6           0       -1.334151    4.690342    0.795658
     84          6           0       -3.312328    1.568885    3.735766
     85          7           0       -3.876398    0.832638   -1.260763
     86          6           0       -4.640140   -0.246950   -1.335261
     87          6           0       -4.873028   -0.771782   -2.777437
     88          6           0       -3.564281   -0.153197   -3.472717
     89          6           0       -3.333426    1.036984   -2.543819
     90          6           0       -2.351410   -1.065117   -3.391046
     91          6           0       -6.187324   -0.200536   -3.416436
     92          6           0       -6.638620   -0.905461   -4.697518
     93          1           0       -8.070462   -1.056101   -4.941639
     94          7           0       -2.528382    3.544848   -0.970116
     95          6           0       -2.307919    3.334154   -2.284760
     96          6           0       -1.669071    4.560385   -2.787149
     97          6           0       -1.380679    5.447849   -1.627866
     98          6           0       -1.725162    4.567285   -0.529680
     99          6           0       -1.463189    4.830228   -4.249414
    100          6           0       -0.866257    6.851723   -1.524366
    101          8           0       -0.466273    7.341817   -0.409618
    102          6           0       -0.757090    7.604370   -2.782578
    103          7           0       -2.269638    2.916165    1.987080
    104          6           0       -1.510316    4.024702    1.937240
    105          6           0       -1.056701    4.437667    3.317125
    106          6           0       -1.872508    3.510296    4.333011
    107          6           0       -2.623354    2.621631    3.317178
    108          6           0        0.440341    4.301079    3.593887
    109          6           0       -2.696018    4.229610    5.436235
    110          6           0       -3.843443    4.989656    4.810833
    111          7           0       -4.261368    0.810941    1.615053
    112          6           0       -4.093354    0.677916    3.010818
    113          6           0       -4.826737   -0.536159    3.423861
    114          6           0       -5.355596   -1.042001    2.226817
    115          6           0       -4.961616   -0.213646    1.141406
    116          6           0       -4.895899   -1.056484    4.746962
    117          6           0       -6.148721   -2.094263    1.633196
    118          8           0       -6.817949   -3.029549    2.070340
    119          6           0       -5.981543   -2.023517    0.054127
    120          6           0       -7.350653   -2.112977   -0.562371
    121          8           0       -8.185092   -1.208549   -0.382596
    122          8           0       -7.375154   -3.137346   -1.434398
    123          6           0       -8.709326   -3.259809   -2.079997
    124          1           0       -2.075313    2.069543   -3.965479
    125          1           0       -0.730121    5.570137    1.029301
    126          1           0       -3.432342    1.333506    4.795422
    127          1           0       -4.870566   -1.850876   -2.874076
    128          1           0       -3.777083    0.187114   -4.482798
    129          1           0       -2.539134   -1.930858   -2.773468
    130          1           0       -1.558522   -0.462811   -2.967259
    131          1           0       -2.017488   -1.339164   -4.395900
    132          1           0       -5.985320    0.802067   -3.814848
    133          1           0       -6.988496   -0.199440   -2.703165
    134          1           0       -6.120735   -1.860706   -4.846702
    135          1           0       -6.333435   -0.298613   -5.553459
    136          1           0       -1.622983    3.927252   -4.851494
    137          1           0       -0.401455    5.062895   -4.385249
    138          1           0       -2.058375    5.671762   -4.610330
    139          1           0       -0.099117    7.072449   -3.465647
    140          1           0       -0.456808    8.613616   -2.494275
    141          1           0       -1.743987    7.636888   -3.257545
    142          1           0       -1.303991    5.474101    3.511455
    143          1           0       -1.206614    2.844307    4.901223
    144          1           0        0.914015    5.249529    3.910376
    145          1           0        0.918420    3.916026    2.702991
    146          1           0        0.705787    3.553899    4.339842
    147          1           0       -2.076715    4.969428    5.949344
    148          1           0       -3.086186    3.556272    6.192133
    149          1           0       -3.375999    5.927678    4.496679
    150          1           0       -4.629825    5.166014    5.541954
    151          1           0       -4.205495    4.483366    3.908479
    152          1           0       -5.924947   -1.345469    4.914473
    153          1           0       -4.563377   -0.324426    5.479968
    154          1           0       -4.202035   -1.897119    4.662472
    155          1           0       -5.342628   -2.855218   -0.245245
    156          1           0       -9.057489   -4.282062   -1.902593
    157          1           0       -8.561059   -2.953730   -3.132650
    158          1           0       -9.524520   -2.682763   -1.659365
 ---------------------------------------------------------------------

 SCF Done:  E(RCAM-B3LYP) =  -4069.80711558     A.U. after   19 cycles

 Excitation energies and oscillator strengths:

 Excited State   1:      Singlet-A      1.6398 eV  756.11 nm  f=0.0237  <S**2>=0.000
     309 -> 315        0.11385
     310 -> 316        0.11934
     311 -> 313       -0.47346
     312 -> 314        0.49903
 This state for optimization and/or second-order correction.
 Total Energy, E(TD-HF/TD-DFT) =  -4069.74685510
 Copying the excited state density for this state as the 1-particle RhoCI density.

 Excited State   2:      Singlet-A      1.7105 eV  724.85 nm  f=0.6497  <S**2>=0.000
     309 -> 315       -0.13305
     310 -> 316        0.12610
     311 -> 313        0.49584
     312 -> 314        0.47069

 Excited State   3:      Singlet-A      2.1821 eV  568.19 nm  f=0.0105  <S**2>=0.000
     309 -> 313       -0.40229
     310 -> 314        0.50516
     311 -> 315       -0.16619
     312 -> 316       -0.20907

 Excited State   4:      Singlet-A      2.1986 eV  563.92 nm  f=0.1607  <S**2>=0.000
     309 -> 313        0.49920
     310 -> 314        0.39672
     311 -> 315        0.22181
     312 -> 316       -0.17689

 Excited State   5:      Singlet-A      2.2369 eV  554.28 nm  f=0.0001  <S**2>=0.000
     312 -> 313        0.70674

 The electronic state is 1-A.
 Alpha  occ. eigenvalues --  -46.87909 -46.87399 -19.26306 -19.26167 -19.19052
 Alpha  occ. eigenvalues --  -19.18962 -19.18840 -19.18364 -19.18292 -19.17775
 Alpha  occ. eigenvalues --  -14.42559 -14.42238 -14.41570 -14.41111 -14.39505
 Alpha  occ. eigenvalues --  -14.39067 -14.38710 -14.38339 -10.39117 -10.38887
 Alpha  occ. eigenvalues --  -10.35469 -10.35035 -10.34509 -10.33959 -10.31659
 Alpha  occ. eigenvalues --  -10.31607 -10.31528 -10.31077 -10.30993 -10.30737
 Alpha  occ. eigenvalues --  -10.30700 -10.30626 -10.30324 -10.30132 -10.30110
 Alpha  occ. eigenvalues --  -10.30053 -10.29876 -10.29747 -10.29667 -10.29365
 Alpha  occ. eigenvalues --  -10.29135 -10.29123 -10.28827 -10.28579 -10.28528
 Alpha  occ. eigenvalues --  -10.28507 -10.28467 -10.28208 -10.28111 -10.27914
 Alpha  occ. eigenvalues --  -10.27864 -10.27842 -10.27710 -10.27686 -10.27647
 Alpha  occ. eigenvalues --  -10.27582 -10.27568 -10.27507 -10.27394 -10.27365
 Alpha  occ. eigenvalues --  -10.27245 -10.27216 -10.27204 -10.27160 -10.27050
 Alpha  occ. eigenvalues --  -10.26794 -10.26769 -10.26511 -10.26391 -10.26371
 Alpha  occ. eigenvalues --  -10.26319 -10.26163 -10.26065 -10.26034 -10.26018
 Alpha  occ. eigenvalues --  -10.25746 -10.25703 -10.25693 -10.25536 -10.25235
 Alpha  occ. eigenvalues --  -10.24957 -10.24894 -10.24820 -10.24617 -10.24590
 Alpha  occ. eigenvalues --  -10.24414  -3.16651  -3.16150  -1.91532  -1.91119
 Alpha  occ. eigenvalues --   -1.91032  -1.90961  -1.90621  -1.90457  -1.16658
 Alpha  occ. eigenvalues --   -1.16457  -1.08749  -1.08392  -1.07233  -1.06746
 Alpha  occ. eigenvalues --   -1.06677  -1.06607  -1.04687  -1.04233  -1.03875
 Alpha  occ. eigenvalues --   -1.03399  -1.03350  -1.02778  -1.02528  -1.01846
 Alpha  occ. eigenvalues --   -0.92079  -0.91725  -0.89672  -0.89280  -0.89278
 Alpha  occ. eigenvalues --   -0.88945  -0.88426  -0.88024  -0.88021  -0.87783
 Alpha  occ. eigenvalues --   -0.87559  -0.87438  -0.87355  -0.86775  -0.85071
 Alpha  occ. eigenvalues --   -0.84794  -0.84097  -0.83692  -0.83044  -0.82728
 Alpha  occ. eigenvalues --   -0.82629  -0.82391  -0.81665  -0.81380  -0.80683
 Alpha  occ. eigenvalues --   -0.80195  -0.78904  -0.78338  -0.77390  -0.77069
 Alpha  occ. eigenvalues --   -0.76895  -0.76699  -0.76019  -0.75648  -0.75006
 Alpha  occ. eigenvalues --   -0.74596  -0.72909  -0.72455  -0.71778  -0.71399
 Alpha  occ. eigenvalues --   -0.70128  -0.69582  -0.68971  -0.68576  -0.67739
 Alpha  occ. eigenvalues --   -0.67348  -0.67288  -0.66951  -0.65389  -0.65081
 Alpha  occ. eigenvalues --   -0.64947  -0.64723  -0.64539  -0.64474  -0.64339
 Alpha  occ. eigenvalues --   -0.63995  -0.62368  -0.62067  -0.60538  -0.60044
 Alpha  occ. eigenvalues --   -0.59903  -0.59565  -0.59102  -0.58751  -0.58614
 Alpha  occ. eigenvalues --   -0.58180  -0.57677  -0.57417  -0.57318  -0.56990
 Alpha  occ. eigenvalues --   -0.56423  -0.56031  -0.55951  -0.55709  -0.55608
 Alpha  occ. eigenvalues --   -0.55497  -0.55178  -0.55055  -0.54710  -0.54302
 Alpha  occ. eigenvalues --   -0.53982  -0.53882  -0.53357  -0.53290  -0.53057
 Alpha  occ. eigenvalues --   -0.52955  -0.52886  -0.52823  -0.52739  -0.52503
 Alpha  occ. eigenvalues --   -0.52324  -0.52241  -0.52089  -0.51691  -0.51688
 Alpha  occ. eigenvalues --   -0.51410  -0.51321  -0.50977  -0.50651  -0.50311
 Alpha  occ. eigenvalues --   -0.50116  -0.49992  -0.49718  -0.49641  -0.49574
 Alpha  occ. eigenvalues --   -0.49318  -0.49221  -0.49188  -0.48932  -0.48909
 Alpha  occ. eigenvalues --   -0.48693  -0.48578  -0.48500  -0.48343  -0.48171
 Alpha  occ. eigenvalues --   -0.48026  -0.47785  -0.47398  -0.47355  -0.46937
 Alpha  occ. eigenvalues --   -0.46860  -0.46649  -0.46565  -0.46418  -0.46373
 Alpha  occ. eigenvalues --   -0.46279  -0.46016  -0.45935  -0.45876  -0.45636
 Alpha  occ. eigenvalues --   -0.45305  -0.44975  -0.44712  -0.44604  -0.44356
 Alpha  occ. eigenvalues --   -0.44318  -0.44211  -0.44174  -0.44097  -0.43890
 Alpha  occ. eigenvalues --   -0.43829  -0.43675  -0.43576  -0.43489  -0.43382
 Alpha  occ. eigenvalues --   -0.43276  -0.43100  -0.42800  -0.42728  -0.42714
 Alpha  occ. eigenvalues --   -0.42509  -0.42329  -0.42010  -0.41821  -0.41765
 Alpha  occ. eigenvalues --   -0.41614  -0.41428  -0.41259  -0.41234  -0.40985
 Alpha  occ. eigenvalues --   -0.40870  -0.40752  -0.40653  -0.40499  -0.40416
 Alpha  occ. eigenvalues --   -0.40298  -0.40270  -0.39997  -0.39522  -0.39264
 Alpha  occ. eigenvalues --   -0.38589  -0.38145  -0.37820  -0.37480  -0.37425
 Alpha  occ. eigenvalues --   -0.37351  -0.37046  -0.36952  -0.36743  -0.36579
 Alpha  occ. eigenvalues --   -0.36254  -0.36005  -0.34402  -0.33993  -0.33815
 Alpha  occ. eigenvalues --   -0.33648  -0.33295  -0.32912  -0.31373  -0.31135
 Alpha  occ. eigenvalues --   -0.30933  -0.30695  -0.30151  -0.29689  -0.29552
 Alpha  occ. eigenvalues --   -0.29443  -0.29018  -0.28925  -0.24195  -0.23773
 Alpha  occ. eigenvalues --   -0.21247  -0.20844
 Alpha virt. eigenvalues --   -0.08885  -0.08504  -0.01858  -0.01416  -0.00134
 Alpha virt. eigenvalues --    0.00293   0.02071   0.02372   0.02587   0.03594
 Alpha virt. eigenvalues --    0.04616   0.05001   0.05042   0.05380   0.06069

 Mulliken charges:
               1
     1  Mg   0.838623
     2  C   -0.002160
     3  C   -0.094309
     4  C   -0.045701
     5  C   -0.065699
     6  N   -0.256722
     7  C   -0.052564
     8  C   -0.014030
     9  C   -0.087000
    10  C    0.046599
    11  C    0.104758
    12  C    0.052923
    13  C   -0.072384
    14  H    0.037789
    15  N   -0.433419
    16  C    0.169062
    17  C   -0.176978
    18  C   -0.003200
    19  C    0.149465
    20  C    0.110220
    21  C    0.013310
    22  O   -0.247915
    23  C    0.062098
    24  N   -0.341121
    25  C    0.041110
    26  C   -0.029320
    27  C   -0.025029
    28  C    0.074666
    29  C    0.076365
    30  C    0.059906
    31  C   -0.036204
    32  N   -0.310199
    33  C    0.079557
    34  C   -0.171998
    35  C    0.008006
    36  C    0.082705
    37  C    0.127808
    38  C    0.045413
    39  O   -0.189234
    40  C   -0.005046
    41  C    0.212152
    42  O   -0.256123
    43  O   -0.305106
    44  C    0.157172
    45  H   -0.017243
    46  H   -0.015986
    47  H   -0.043054
    48  H    0.001177
    49  H   -0.004028
    50  H    0.025623
    51  H    0.016471
    52  H    0.016946
    53  H    0.010353
    54  H    0.045562
    55  H    0.017951
    56  H    0.017315
    57  H    0.005798
    58  H    0.027520
    59  H    0.039554
    60  H    0.037050
    61  H    0.038001
    62  H    0.030972
    63  H    0.017048
    64  H    0.009469
    65  H    0.023894
    66  H    0.012967
    67  H    0.004671
    68  H    0.004033
    69  H    0.000484
    70  H    0.011525
    71  H    0.017595
    72  H    0.034883
    73  H    0.045493
    74  H    0.007604
    75  H    0.046617
    76  H    0.035257
    77  H    0.042679
    78  H    0.046668
    79  H    0.055487
    80  Mg   0.836745
    81  C   -0.016653
    82  C   -0.087176
    83  C   -0.041511
    84  C   -0.065974
    85  N   -0.254538
    86  C   -0.051227
    87  C   -0.014543
    88  C   -0.079068
    89  C    0.044979
    90  C    0.082042
    91  C    0.063767
    92  C   -0.077428
    93  H    0.034390
    94  N   -0.424552
    95  C    0.163261
    96  C   -0.169877
    97  C   -0.004598
    98  C    0.152849
    99  C    0.097342
   100  C    0.018431
   101  O   -0.253484
   102  C    0.060352
   103  N   -0.350046
   104  C    0.037323
   105  C   -0.020042
   106  C   -0.034044
   107  C    0.088375
   108  C    0.072609
   109  C    0.035130
   110  C   -0.007490
   111  N   -0.323876
   112  C    0.077795
   113  C   -0.164271
   114  C    0.002554
   115  C    0.095328
   116  C    0.131376
   117  C    0.042707
   118  O   -0.188596
   119  C    0.000695
   120  C    0.211027
   121  O   -0.251421
   122  O   -0.305576
   123  C    0.152221
   124  H   -0.018359
   125  H   -0.014924
   126  H   -0.042662
   127  H   -0.001492
   128  H   -0.005421
   129  H    0.038201
   130  H    0.018004
   131  H    0.024906
   132  H    0.013914
   133  H    0.037334
   134  H    0.019499
   135  H    0.019272
   136  H    0.008220
   137  H    0.032477
   138  H    0.038706
   139  H    0.042024
   140  H    0.035267
   141  H    0.032428
   142  H    0.013877
   143  H    0.009840
   144  H    0.023581
   145  H    0.017561
   146  H    0.002034
   147  H    0.004985
   148  H    0.002454
   149  H    0.010817
   150  H    0.017204
   151  H    0.030922
   152  H    0.045497
   153  H    0.006905
   154  H    0.045361
   155  H    0.035800
   156  H    0.043599
   157  H    0.048970
   158  H    0.053301
 Sum of Mulliken charges =  -0.00000

 Dipole moment (field-independent basis, Debye):
    X=              4.3065    Y=             -1.0360    Z=              0.2761  Tot=              4.4380
 Quadrupole moment (field-independent basis, Debye-Ang):
   XX=           -536.3023   YY=           -531.8590   ZZ=           -452.7039
   XY=            -20.7948   XZ=             56.8563   YZ=             20.5704

 Normal termination of Gaussian 16 at Wed Sep  8 17:22:30 2021.
