 Gaussian 16, Revision A.03,
 Gaussian 16:  ES64L-G16RevA.03 25-Dec-2016

 -----------------------------------
 #p cam-b3lyp/Def2SVP td=(nstates=5)
 -----------------------------------

 --------------------------------
 TDDFT excited states in gaussian
 --------------------------------
 Symbolic Z-matrix:
 Charge =  0 Multiplicity = 1

                         Standard orientation:
 ---------------------------------------------------------------------
 Center     Atomic      Atomic             Coordinates (Angstroms)
 Number     Number       Type             X           Y           Z
 ---------------------------------------------------------------------
      1         12           0        6.455853   -1.026232    0.169596
      2          6           0        7.129403    2.173259   -1.287044
      3          6           0        7.590087    0.246573    3.125361
      4          6           0        6.298611   -3.958275    1.367520
      5          6           0        6.461461   -2.333678   -3.060917
      6          7           0        7.232764    0.971464    0.723009
      7          6           0        7.383717    2.128182    0.085522
      8          6           0        7.765415    3.308136    1.028595
      9          6           0        8.419757    2.475981    2.220799
     10          6           0        7.678925    1.163367    2.036036
     11          6           0        9.913727    2.226286    2.041333
     12          6           0        6.511888    4.112422    1.511840
     13          6           0        6.814726    5.464427    2.164317
     14          1           0        5.892964    6.569128    1.946747
     15          7           0        6.413640   -1.643063    2.045919
     16          6           0        6.907388   -0.989061    3.124706
     17          6           0        6.632120   -1.857860    4.289221
     18          6           0        6.108682   -3.154307    3.776061
     19          6           0        6.279570   -2.977692    2.356560
     20          6           0        6.820864   -1.416331    5.708086
     21          6           0        5.553798   -4.365018    4.457540
     22          8           0        5.372877   -5.469965    3.840342
     23          6           0        5.307254   -4.248349    5.906211
     24          7           0        6.606537   -2.921935   -0.691357
     25          6           0        6.443108   -4.028110    0.042571
     26          6           0        6.312353   -5.244673   -0.825080
     27          6           0        6.176733   -4.707149   -2.322554
     28          6           0        6.344706   -3.192731   -2.045799
     29          6           0        7.469440   -6.250161   -0.746616
     30          6           0        4.940010   -5.176844   -3.128979
     31          6           0        3.682754   -4.586644   -2.530589
     32          7           0        6.564384   -0.224680   -1.844549
     33          6           0        6.573077   -0.953430   -3.042681
     34          6           0        6.768558    0.015859   -4.136452
     35          6           0        6.877294    1.247214   -3.493190
     36          6           0        6.783609    1.055866   -2.085035
     37          6           0        6.883059   -0.299747   -5.519100
     38          6           0        7.075490    2.677099   -3.666404
     39          8           0        7.125450    3.434357   -4.636743
     40          6           0        7.368603    3.318888   -2.238812
     41          6           0        6.499947    4.539582   -2.102249
     42          8           0        5.258247    4.436554   -2.032006
     43          8           0        7.270271    5.606098   -1.838266
     44          6           0        6.467622    6.845767   -1.661829
     45          1           0        8.140282    0.462611    4.043268
     46          1           0        6.135715   -4.975079    1.730856
     47          1           0        6.389315   -2.658064   -4.100639
     48          1           0        8.496379    4.002816    0.614426
     49          1           0        8.187891    2.908238    3.193997
     50          1           0       10.256726    2.550865    1.059029
     51          1           0       10.044468    1.149822    2.153694
     52          1           0       10.482887    2.683399    2.851198
     53          1           0        6.057538    3.595988    2.357372
     54          1           0        5.807082    4.257399    0.692355
     55          1           0        7.840633    5.779292    1.971225
     56          1           0        6.768792    5.339471    3.246202
     57          1           0        7.372322   -0.478722    5.765764
     58          1           0        7.475352   -2.146131    6.184265
     59          1           0        5.876458   -1.360911    6.249711
     60          1           0        6.241214   -4.001412    6.411473
     61          1           0        4.827752   -5.179638    6.205592
     62          1           0        4.632174   -3.410547    6.083140
     63          1           0        5.420322   -5.814376   -0.567896
     64          1           0        7.024939   -5.001394   -2.941133
     65          1           0        7.156664   -7.256784   -0.468071
     66          1           0        8.206682   -5.861446   -0.044714
     67          1           0        8.061850   -6.337244   -1.657046
     68          1           0        4.842187   -6.260629   -3.076182
     69          1           0        4.981851   -4.898532   -4.182090
     70          1           0        3.451949   -5.276645   -1.719750
     71          1           0        2.881024   -4.570520   -3.269629
     72          1           0        3.874657   -3.611036   -2.083546
     73          1           0        6.280577    0.436540   -6.050951
     74          1           0        6.540620   -1.313939   -5.723435
     75          1           0        7.957065   -0.184449   -5.664272
     76          1           0        8.429353    3.566912   -2.218448
     77          1           0        6.852248    7.580578   -2.369183
     78          1           0        6.509985    7.094016   -0.601177
     79          1           0        5.422738    6.791344   -1.969393
     80         12           0       -6.623838    0.994024    0.391629
     81          6           0       -6.959574   -2.404968   -0.709823
     82          6           0       -5.671638    1.773721   -2.789562
     83          6           0       -5.886407    3.899890    1.430657
     84          6           0       -6.484054   -0.223137    3.654244
     85          7           0       -6.385505   -0.242645   -1.426648
     86          6           0       -6.601015   -1.511277   -1.740443
     87          6           0       -6.500426   -1.824646   -3.257428
     88          6           0       -5.550806   -0.604899   -3.692498
     89          6           0       -5.911683    0.390491   -2.591750
     90          6           0       -4.069643   -0.925487   -3.579710
     91          6           0       -7.893332   -1.752849   -3.976238
     92          6           0       -7.920546   -2.346171   -5.386554
     93          1           0       -9.129442   -3.036082   -5.828223
     94          7           0       -6.363426    2.687995   -0.608972
     95          6           0       -5.998298    2.821849   -1.901272
     96          6           0       -5.925424    4.269797   -2.150860
     97          6           0       -6.116770    4.979093   -0.856630
     98          6           0       -6.108707    3.858263    0.061936
     99          6           0       -5.772923    4.851786   -3.526160
    100          6           0       -6.267576    6.427622   -0.502795
    101          8           0       -6.183972    6.837022    0.708914
    102          6           0       -6.422787    7.364031   -1.625546
    103          7           0       -6.028599    1.719117    2.246959
    104          6           0       -5.822431    3.033440    2.441838
    105          6           0       -5.672450    3.350169    3.910709
    106          6           0       -6.063399    2.005065    4.682349
    107          6           0       -6.295819    1.076444    3.470310
    108          6           0       -4.282451    3.805527    4.354493
    109          6           0       -7.179037    2.109663    5.758027
    110          6           0       -8.504318    2.417139    5.098873
    111          7           0       -6.887824   -0.925068    1.348418
    112          6           0       -6.759356   -1.217231    2.724002
    113          6           0       -6.917385   -2.678243    2.875377
    114          6           0       -7.105387   -3.141146    1.564328
    115          6           0       -7.047073   -2.048432    0.657643
    116          6           0       -6.830485   -3.402125    4.097899
    117          6           0       -7.329322   -4.307035    0.740156
    118          8           0       -7.551698   -5.496891    0.960473
    119          6           0       -7.118741   -3.898348   -0.781359
    120          6           0       -8.276260   -4.442451   -1.572945
    121          8           0       -9.428757   -4.016097   -1.381731
    122          8           0       -7.804763   -5.213721   -2.569543
    123          6           0       -8.914915   -5.767577   -3.389689
    124          1           0       -5.145015    2.085039   -3.692131
    125          1           0       -5.737247    4.895873    1.854037
    126          1           0       -6.551076   -0.668210    4.649281
    127          1           0       -6.025592   -2.768855   -3.495723
    128          1           0       -5.831454   -0.213988   -4.667062
    129          1           0       -3.899308   -1.883660   -3.111701
    130          1           0       -3.641392   -0.131209   -2.982398
    131          1           0       -3.592825   -0.854821   -4.561541
    132          1           0       -8.122655   -0.704964   -4.208798
    133          1           0       -8.655588   -2.211170   -3.376629
    134          1           0       -7.032593   -2.955445   -5.594628
    135          1           0       -7.859435   -1.528127   -6.108422
    136          1           0       -5.491210    4.085084   -4.258422
    137          1           0       -4.910636    5.526545   -3.494014
    138          1           0       -6.651856    5.416446   -3.844431
    139          1           0       -5.561325    7.283971   -2.284289
    140          1           0       -6.606057    8.338978   -1.169740
    141          1           0       -7.297399    7.063647   -2.213288
    142          1           0       -6.354692    4.136984    4.208283
    143          1           0       -5.208745    1.590242    5.236723
    144          1           0       -4.285037    4.793783    4.851899
    145          1           0       -3.634449    3.817536    3.488188
    146          1           0       -3.763128    3.119964    5.021961
    147          1           0       -6.971627    2.938419    6.439422
    148          1           0       -7.282083    1.214292    6.361922
    149          1           0       -8.471732    3.503639    4.974212
    150          1           0       -9.330155    2.118148    5.741235
    151          1           0       -8.559000    1.972061    4.098584
    152          1           0       -7.640799   -4.118975    4.093543
    153          1           0       -6.890352   -2.738509    4.958018
    154          1           0       -5.837544   -3.846985    3.991001
    155          1           0       -6.166734   -4.320658   -1.105262
    156          1           0       -8.795859   -6.855460   -3.395532
    157          1           0       -8.853471   -5.248890   -4.364858
    158          1           0       -9.922243   -5.667130   -3.002856
 ---------------------------------------------------------------------

 SCF Done:  E(RCAM-B3LYP) =  -4069.81190450     A.U. after   19 cycles

 Excitation energies and oscillator strengths:

 Excited State   1:      Singlet-A      1.6684 eV  743.15 nm  f=0.1079  <S**2>=0.000
     309 -> 315        0.10727
     310 -> 316        0.13447
     311 -> 313        0.42613
     312 -> 314        0.53812
 This state for optimization and/or second-order correction.
 Total Energy, E(TD-HF/TD-DFT) =  -4069.75059348
 Copying the excited state density for this state as the 1-particle RhoCI density.

 Excited State   2:      Singlet-A      1.6866 eV  735.10 nm  f=0.6291  <S**2>=0.000
     309 -> 315        0.13897
     310 -> 316       -0.10955
     311 -> 313        0.53721
     312 -> 314       -0.42552

 Excited State   3:      Singlet-A      2.1860 eV  567.18 nm  f=0.0660  <S**2>=0.000
     309 -> 313        0.15630
     310 -> 314        0.62346
     312 -> 316       -0.26449

 Excited State   4:      Singlet-A      2.1932 eV  565.31 nm  f=0.1276  <S**2>=0.000
     309 -> 313        0.62152
     310 -> 314       -0.15504
     311 -> 315       -0.27020

 Excited State   5:      Singlet-A      2.6480 eV  468.22 nm  f=0.0000  <S**2>=0.000
     312 -> 313        0.70710

 The electronic state is 1-A.
 Alpha  occ. eigenvalues --  -46.87856 -46.87551 -19.26357 -19.26267 -19.19098
 Alpha  occ. eigenvalues --  -19.19075 -19.18852 -19.18604 -19.18243 -19.17950
 Alpha  occ. eigenvalues --  -14.42508 -14.42383 -14.41508 -14.41255 -14.39460
 Alpha  occ. eigenvalues --  -14.39239 -14.38650 -14.38492 -10.39156 -10.39003
 Alpha  occ. eigenvalues --  -10.35484 -10.35280 -10.34463 -10.34128 -10.31748
 Alpha  occ. eigenvalues --  -10.31684 -10.31467 -10.31193 -10.30962 -10.30904
 Alpha  occ. eigenvalues --  -10.30635 -10.30569 -10.30294 -10.30261 -10.30250
 Alpha  occ. eigenvalues --  -10.30037 -10.29982 -10.29801 -10.29692 -10.29322
 Alpha  occ. eigenvalues --  -10.29311 -10.29292 -10.28799 -10.28600 -10.28575
 Alpha  occ. eigenvalues --  -10.28557 -10.28424 -10.28291 -10.28167 -10.28006
 Alpha  occ. eigenvalues --  -10.27889 -10.27856 -10.27784 -10.27641 -10.27557
 Alpha  occ. eigenvalues --  -10.27545 -10.27527 -10.27499 -10.27463 -10.27451
 Alpha  occ. eigenvalues --  -10.27375 -10.27353 -10.27310 -10.27307 -10.27226
 Alpha  occ. eigenvalues --  -10.26951 -10.26751 -10.26587 -10.26435 -10.26294
 Alpha  occ. eigenvalues --  -10.26281 -10.26250 -10.26089 -10.26082 -10.25933
 Alpha  occ. eigenvalues --  -10.25858 -10.25835 -10.25766 -10.25474 -10.25341
 Alpha  occ. eigenvalues --  -10.24898 -10.24843 -10.24764 -10.24764 -10.24681
 Alpha  occ. eigenvalues --  -10.24586  -3.16599  -3.16300  -1.91481  -1.91183
 Alpha  occ. eigenvalues --   -1.91067  -1.90909  -1.90771  -1.90608  -1.16706
 Alpha  occ. eigenvalues --   -1.16560  -1.08703  -1.08559  -1.07252  -1.06860
 Alpha  occ. eigenvalues --   -1.06856  -1.06720  -1.04639  -1.04381  -1.03818
 Alpha  occ. eigenvalues --   -1.03554  -1.03294  -1.02934  -1.02471  -1.02004
 Alpha  occ. eigenvalues --   -0.92035  -0.91880  -0.89580  -0.89406  -0.89239
 Alpha  occ. eigenvalues --   -0.89028  -0.88344  -0.88139  -0.87941  -0.87729
 Alpha  occ. eigenvalues --   -0.87692  -0.87573  -0.87324  -0.86997  -0.85034
 Alpha  occ. eigenvalues --   -0.84885  -0.83996  -0.83802  -0.83011  -0.82822
 Alpha  occ. eigenvalues --   -0.82700  -0.82539  -0.81650  -0.81502  -0.80655
 Alpha  occ. eigenvalues --   -0.80340  -0.78854  -0.78519  -0.77276  -0.77036
 Alpha  occ. eigenvalues --   -0.76991  -0.76801  -0.75982  -0.75724  -0.74953
 Alpha  occ. eigenvalues --   -0.74718  -0.72836  -0.72593  -0.71728  -0.71475
 Alpha  occ. eigenvalues --   -0.69969  -0.69687  -0.68926  -0.68715  -0.67699
 Alpha  occ. eigenvalues --   -0.67498  -0.67267  -0.67090  -0.65342  -0.65161
 Alpha  occ. eigenvalues --   -0.64915  -0.64679  -0.64669  -0.64552  -0.64328
 Alpha  occ. eigenvalues --   -0.64118  -0.62364  -0.62188  -0.60494  -0.60230
 Alpha  occ. eigenvalues --   -0.59859  -0.59678  -0.59047  -0.58890  -0.58564
 Alpha  occ. eigenvalues --   -0.58324  -0.57654  -0.57457  -0.57367  -0.57140
 Alpha  occ. eigenvalues --   -0.56371  -0.56096  -0.56042  -0.55790  -0.55573
 Alpha  occ. eigenvalues --   -0.55402  -0.55344  -0.55166  -0.54588  -0.54408
 Alpha  occ. eigenvalues --   -0.53946  -0.53793  -0.53356  -0.53274  -0.53126
 Alpha  occ. eigenvalues --   -0.53033  -0.52977  -0.52802  -0.52800  -0.52542
 Alpha  occ. eigenvalues --   -0.52503  -0.52334  -0.51993  -0.51792  -0.51668
 Alpha  occ. eigenvalues --   -0.51543  -0.51260  -0.51104  -0.50614  -0.50352
 Alpha  occ. eigenvalues --   -0.50087  -0.49966  -0.49866  -0.49774  -0.49565
 Alpha  occ. eigenvalues --   -0.49373  -0.49275  -0.49151  -0.49088  -0.48992
 Alpha  occ. eigenvalues --   -0.48655  -0.48517  -0.48495  -0.48451  -0.48294
 Alpha  occ. eigenvalues --   -0.48226  -0.47749  -0.47485  -0.47350  -0.47008
 Alpha  occ. eigenvalues --   -0.46857  -0.46609  -0.46607  -0.46439  -0.46420
 Alpha  occ. eigenvalues --   -0.46226  -0.46167  -0.45995  -0.45892  -0.45729
 Alpha  occ. eigenvalues --   -0.45255  -0.45123  -0.44645  -0.44556  -0.44416
 Alpha  occ. eigenvalues --   -0.44363  -0.44204  -0.44141  -0.44076  -0.44018
 Alpha  occ. eigenvalues --   -0.43983  -0.43827  -0.43562  -0.43464  -0.43439
 Alpha  occ. eigenvalues --   -0.43280  -0.43087  -0.42839  -0.42804  -0.42765
 Alpha  occ. eigenvalues --   -0.42719  -0.42465  -0.42071  -0.41876  -0.41765
 Alpha  occ. eigenvalues --   -0.41585  -0.41567  -0.41354  -0.41195  -0.40922
 Alpha  occ. eigenvalues --   -0.40879  -0.40863  -0.40628  -0.40615  -0.40591
 Alpha  occ. eigenvalues --   -0.40406  -0.40279  -0.40118  -0.39503  -0.39357
 Alpha  occ. eigenvalues --   -0.38523  -0.38266  -0.37798  -0.37548  -0.37377
 Alpha  occ. eigenvalues --   -0.37318  -0.37174  -0.37086  -0.36782  -0.36688
 Alpha  occ. eigenvalues --   -0.36255  -0.36126  -0.34347  -0.34147  -0.33846
 Alpha  occ. eigenvalues --   -0.33772  -0.33248  -0.33068  -0.31382  -0.31164
 Alpha  occ. eigenvalues --   -0.31093  -0.30865  -0.30104  -0.29856  -0.29507
 Alpha  occ. eigenvalues --   -0.29387  -0.29212  -0.29103  -0.24140  -0.23927
 Alpha  occ. eigenvalues --   -0.21187  -0.21007
 Alpha virt. eigenvalues --   -0.08833  -0.08680  -0.01806  -0.01577  -0.00109
 Alpha virt. eigenvalues --    0.00088   0.02134   0.02308   0.03052   0.03323
 Alpha virt. eigenvalues --    0.04664   0.04843   0.05024   0.05255   0.06131

 Mulliken charges:
               1
     1  Mg   0.838536
     2  C   -0.003012
     3  C   -0.094049
     4  C   -0.045781
     5  C   -0.064090
     6  N   -0.256798
     7  C   -0.052485
     8  C   -0.013995
     9  C   -0.087041
    10  C    0.046388
    11  C    0.104782
    12  C    0.053443
    13  C   -0.071979
    14  H    0.036441
    15  N   -0.433191
    16  C    0.168534
    17  C   -0.177050
    18  C   -0.003825
    19  C    0.148806
    20  C    0.110152
    21  C    0.012465
    22  O   -0.249170
    23  C    0.062408
    24  N   -0.341110
    25  C    0.041280
    26  C   -0.028305
    27  C   -0.023921
    28  C    0.074744
    29  C    0.076081
    30  C    0.035150
    31  C   -0.004478
    32  N   -0.310342
    33  C    0.080168
    34  C   -0.170230
    35  C    0.008195
    36  C    0.082761
    37  C    0.127451
    38  C    0.045770
    39  O   -0.188892
    40  C   -0.005203
    41  C    0.212828
    42  O   -0.257476
    43  O   -0.304686
    44  C    0.157766
    45  H   -0.017413
    46  H   -0.016506
    47  H   -0.041765
    48  H    0.000948
    49  H   -0.003891
    50  H    0.025486
    51  H    0.016487
    52  H    0.016825
    53  H    0.011244
    54  H    0.043982
    55  H    0.017884
    56  H    0.018089
    57  H    0.005961
    58  H    0.027069
    59  H    0.039650
    60  H    0.037381
    61  H    0.036116
    62  H    0.031417
    63  H    0.016870
    64  H    0.009493
    65  H    0.023567
    66  H    0.012615
    67  H    0.004782
    68  H    0.006724
    69  H    0.004319
    70  H    0.009467
    71  H    0.017284
    72  H    0.028765
    73  H    0.046865
    74  H    0.008849
    75  H    0.046144
    76  H    0.035253
    77  H    0.042890
    78  H    0.046718
    79  H    0.053395
    80  Mg   0.837950
    81  C   -0.016783
    82  C   -0.087292
    83  C   -0.045294
    84  C   -0.065067
    85  N   -0.254549
    86  C   -0.049817
    87  C   -0.015093
    88  C   -0.090495
    89  C    0.045613
    90  C    0.114086
    91  C    0.062519
    92  C   -0.077772
    93  H    0.034485
    94  N   -0.423653
    95  C    0.162879
    96  C   -0.173681
    97  C   -0.007719
    98  C    0.152375
    99  C    0.098962
   100  C    0.015743
   101  O   -0.253514
   102  C    0.061140
   103  N   -0.349985
   104  C    0.037659
   105  C   -0.019835
   106  C   -0.034633
   107  C    0.088834
   108  C    0.073717
   109  C    0.034829
   110  C   -0.007588
   111  N   -0.324037
   112  C    0.078294
   113  C   -0.163374
   114  C    0.002233
   115  C    0.096067
   116  C    0.131494
   117  C    0.042266
   118  O   -0.188244
   119  C    0.000947
   120  C    0.211219
   121  O   -0.251133
   122  O   -0.305610
   123  C    0.152100
   124  H   -0.018465
   125  H   -0.015769
   126  H   -0.040988
   127  H   -0.000823
   128  H   -0.004238
   129  H    0.022135
   130  H    0.015644
   131  H    0.016847
   132  H    0.013914
   133  H    0.037467
   134  H    0.020731
   135  H    0.019736
   136  H    0.009331
   137  H    0.027458
   138  H    0.039545
   139  H    0.038977
   140  H    0.036063
   141  H    0.033725
   142  H    0.014158
   143  H    0.011879
   144  H    0.024626
   145  H    0.012427
   146  H    0.004941
   147  H    0.005761
   148  H    0.003355
   149  H    0.010827
   150  H    0.017656
   151  H    0.030391
   152  H    0.045734
   153  H    0.008075
   154  H    0.046931
   155  H    0.035064
   156  H    0.043688
   157  H    0.049512
   158  H    0.053449
 Sum of Mulliken charges =  -0.00000

 Dipole moment (field-independent basis, Debye):
    X=              4.4561    Y=              2.0217    Z=              0.9042  Tot=              4.9761
 Quadrupole moment (field-independent basis, Debye-Ang):
   XX=           -521.2717   YY=           -536.9995   ZZ=           -460.8302
   XY=            -18.6223   XZ=             54.4216   YZ=             32.8921

 Normal termination of Gaussian 16 at Sat Sep  4 07:29:57 2021.
