 Gaussian 16, Revision A.03,
 Gaussian 16:  ES64L-G16RevA.03 25-Dec-2016

 -----------------------------------
 #p cam-b3lyp/Def2SVP td=(nstates=5)
 -----------------------------------

 --------------------------------
 TDDFT excited states in gaussian
 --------------------------------
 Symbolic Z-matrix:
 Charge =  0 Multiplicity = 1

                         Standard orientation:
 ---------------------------------------------------------------------
 Center     Atomic      Atomic             Coordinates (Angstroms)
 Number     Number       Type             X           Y           Z
 ---------------------------------------------------------------------
      1         12           0       -7.906340    0.766679    0.448770
      2          6           0       -8.355991   -1.758082   -2.048351
      3          6           0       -9.007956   -1.511391    2.737854
      4          6           0       -7.951077    3.103836    2.591739
      5          6           0       -7.939839    3.112822   -2.128079
      6          7           0       -8.566818   -1.336679    0.248011
      7          6           0       -8.635189   -2.206086   -0.755298
      8          6           0       -8.958424   -3.658480   -0.293300
      9          6           0       -9.682689   -3.327920    1.088065
     10          6           0       -9.021783   -1.995934    1.396191
     11          6           0      -11.186113   -3.110189    0.950913
     12          6           0       -7.665542   -4.513597   -0.072028
     13          6           0       -7.894619   -6.021973    0.060931
     14          1           0       -6.902632   -6.932280   -0.491021
     15          7           0       -7.933397    0.694516    2.422829
     16          6           0       -8.403320   -0.318491    3.189820
     17          6           0       -8.201709    0.104778    4.592274
     18          6           0       -7.751336    1.524312    4.578877
     19          6           0       -7.887528    1.843160    3.180604
     20          6           0       -8.386042   -0.811450    5.762871
     21          6           0       -7.283941    2.450182    5.657041
     22          8           0       -7.161783    3.708599    5.467207
     23          6           0       -7.054532    1.850587    6.984030
     24          7           0       -8.160150    2.832718    0.291613
     25          6           0       -8.077782    3.621954    1.368323
     26          6           0       -8.008486    5.069251    0.980420
     27          6           0       -7.815124    5.093374   -0.604440
     28          6           0       -7.893348    3.570552   -0.874927
     29          6           0       -9.226864    5.922651    1.358937
     30          6           0       -6.596810    5.878188   -1.152341
     31          6           0       -5.315386    5.183699   -0.748936
     32          7           0       -7.931734    0.710301   -1.720844
     33          6           0       -7.965887    1.808388   -2.592458
     34          6           0       -8.082806    1.270646   -3.960387
     35          6           0       -8.125515   -0.111387   -3.787164
     36          6           0       -8.067093   -0.416549   -2.397289
     37          6           0       -8.193876    2.040485   -5.151792
     38          6           0       -8.231731   -1.400323   -4.451408
     39          8           0       -8.218618   -1.774800   -5.624901
     40          6           0       -8.507938   -2.512550   -3.345746
     41          6           0       -7.567584   -3.657275   -3.607755
     42          8           0       -6.335996   -3.520063   -3.460349
     43          8           0       -8.274496   -4.787924   -3.757587
     44          6           0       -7.399494   -5.967731   -3.991215
     45          1           0       -9.558734   -2.061428    3.503389
     46          1           0       -7.857590    3.938123    3.290067
     47          1           0       -7.870840    3.781535   -2.988030
     48          1           0       -9.637957   -4.203331   -0.948890
     49          1           0       -9.440513   -4.058561    1.859581
     50          1           0      -11.492083   -3.090796   -0.094997
     51          1           0      -11.385226   -2.148259    1.423711
     52          1           0      -11.739079   -3.849389    1.531077
     53          1           0       -7.258101   -4.300007    0.916118
     54          1           0       -6.939694   -4.327638   -0.864424
     55          1           0       -8.895693   -6.303511   -0.266936
     56          1           0       -7.874355   -6.278447    1.120181
     57          1           0       -8.879139   -1.738253    5.472290
     58          1           0       -9.092306   -0.327963    6.437513
     59          1           0       -7.449068   -1.001954    6.286436
     60          1           0       -7.979568    1.394847    7.337807
     61          1           0       -6.638733    2.643646    7.604530
     62          1           0       -6.331777    1.040159    6.885129
     63          1           0       -7.157878    5.560087    1.451560
     64          1           0       -8.669647    5.539259   -1.114001
     65          1           0       -8.981779    6.784730    1.979790
     66          1           0       -9.950030    5.276178    1.855318
     67          1           0       -9.808457    6.289400    0.513561
     68          1           0       -6.567303    6.879660   -0.724405
     69          1           0       -6.603948    5.981302   -2.237499
     70          1           0       -5.141226    5.560112    0.258443
     71          1           0       -4.502135    5.467433   -1.417762
     72          1           0       -5.453726    4.104913   -0.674309
     73          1           0       -7.538191    1.567536   -5.882796
     74          1           0       -7.911703    3.078971   -4.979955
     75          1           0       -9.256121    1.926617   -5.367491
     76          1           0       -9.551447   -2.807497   -3.451657
     77          1           0       -7.726082   -6.430121   -4.922756
     78          1           0       -7.443839   -6.570869   -3.084208
     79          1           0       -6.355075   -5.755093   -4.222114
     80         12           0        7.887658   -0.766721    0.452854
     81          6           0        8.424079    1.768558   -2.029826
     82          6           0        9.060455    1.455059    2.759989
     83          6           0        7.852649   -3.115277    2.586038
     84          6           0        7.854425   -3.099277   -2.136314
     85          7           0        8.616986    1.313111    0.266780
     86          6           0        8.717126    2.193923   -0.717344
     87          6           0        9.078698    3.632206   -0.258912
     88          6           0        9.797730    3.268250    1.130118
     89          6           0        9.094268    1.946268    1.430452
     90          6           0       11.285517    2.995225    0.984198
     91          6           0        7.808035    4.524242   -0.031497
     92          6           0        8.091018    6.020851    0.116289
     93          1           0        7.123329    6.969279   -0.428247
     94          7           0        7.912671   -0.700689    2.436182
     95          6           0        8.406724    0.287443    3.211285
     96          6           0        8.204050   -0.151584    4.600653
     97          6           0        7.700010   -1.551685    4.581374
     98          6           0        7.824703   -1.857336    3.170306
     99          6           0        8.408311    0.755960    5.778817
    100          6           0        7.201789   -2.468662    5.657081
    101          8           0        7.038202   -3.722966    5.450231
    102          6           0        7.000162   -1.872114    6.985601
    103          7           0        8.069017   -2.830652    0.280720
    104          6           0        7.965692   -3.626117    1.359837
    105          6           0        7.852413   -5.077556    0.958747
    106          6           0        7.657126   -5.070683   -0.628513
    107          6           0        7.786273   -3.554479   -0.892808
    108          6           0        9.044807   -5.962748    1.320710
    109          6           0        6.413964   -5.815221   -1.187875
    110          6           0        5.151243   -5.093908   -0.774795
    111          7           0        7.912438   -0.694206   -1.706350
    112          6           0        7.919097   -1.790335   -2.596609
    113          6           0        8.054852   -1.241797   -3.961565
    114          6           0        8.141582    0.145031   -3.767449
    115          6           0        8.085571    0.438575   -2.378143
    116          6           0        8.132409   -2.004672   -5.160778
    117          6           0        8.278461    1.426638   -4.421244
    118          8           0        8.285612    1.808893   -5.590678
    119          6           0        8.594663    2.525791   -3.317504
    120          6           0        7.691593    3.703454   -3.562670
    121          8           0        6.460168    3.594659   -3.427148
    122          8           0        8.441269    4.811895   -3.703078
    123          6           0        7.589885    6.008615   -3.937228
    124          1           0        9.622602    1.990710    3.525458
    125          1           0        7.731520   -3.956661    3.272251
    126          1           0        7.753679   -3.754526   -3.004158
    127          1           0        9.769193    4.156082   -0.908950
    128          1           0        9.570459    4.003979    1.897200
    129          1           0       11.591818    2.975278   -0.051142
    130          1           0       11.454645    2.031959    1.447409
    131          1           0       11.860586    3.717054    1.571208
    132          1           0        7.394910    4.312044    0.963013
    133          1           0        7.088216    4.367867   -0.811257
    134          1           0        9.107001    6.281842   -0.204050
    135          1           0        8.071612    6.274407    1.178992
    136          1           0        8.938690    1.672749    5.493165
    137          1           0        9.096887    0.244980    6.460455
    138          1           0        7.479153    0.971164    6.310817
    139          1           0        7.937508   -1.447182    7.336701
    140          1           0        6.557230   -2.661361    7.596161
    141          1           0        6.293066   -1.040330    6.891950
    142          1           0        6.986502   -5.539051    1.417356
    143          1           0        8.500302   -5.552618   -1.144865
    144          1           0        8.768655   -6.832740    1.945956
    145          1           0        9.783018   -5.352174    1.823473
    146          1           0        9.605575   -6.351666    0.472481
    147          1           0        6.350929   -6.819753   -0.762315
    148          1           0        6.424463   -5.922855   -2.267362
    149          1           0        4.969594   -5.473152    0.235287
    150          1           0        4.330595   -5.344438   -1.443984
    151          1           0        5.322798   -4.014112   -0.695579
    152          1           0        7.499444   -1.510379   -5.885707
    153          1           0        7.822023   -3.034618   -4.997563
    154          1           0        9.202173   -1.926991   -5.372502
    155          1           0        9.648318    2.791233   -3.411922
    156          1           0        7.935748    6.469703   -4.867535
    157          1           0        7.667092    6.615175   -3.015343
    158          1           0        6.542397    5.842655   -4.160123
 ---------------------------------------------------------------------

 SCF Done:  E(RCAM-B3LYP) =  -4069.81167749     A.U. after   19 cycles

 Excitation energies and oscillator strengths:

 Excited State   1:      Singlet-A      1.6699 eV  742.48 nm  f=0.0181  <S**2>=0.000
     309 -> 315       -0.10406
     310 -> 316        0.13743
     311 -> 313        0.54824
     312 -> 314       -0.41294
 This state for optimization and/or second-order correction.
 Total Energy, E(TD-HF/TD-DFT) =  -4069.75031132
 Copying the excited state density for this state as the 1-particle RhoCI density.

 Excited State   2:      Singlet-A      1.6850 eV  735.81 nm  f=0.7398  <S**2>=0.000
     309 -> 315        0.14121
     310 -> 316        0.10582
     311 -> 313        0.41243
     312 -> 314        0.54742

 Excited State   3:      Singlet-A      2.1854 eV  567.34 nm  f=0.0607  <S**2>=0.000
     309 -> 314        0.13213
     310 -> 313        0.62898
     311 -> 316       -0.26684

 Excited State   4:      Singlet-A      2.1924 eV  565.51 nm  f=0.1332  <S**2>=0.000
     309 -> 314        0.62709
     310 -> 313       -0.13122
     312 -> 315       -0.27234

 Excited State   5:      Singlet-A      2.8012 eV  442.62 nm  f=0.0000  <S**2>=0.000
     312 -> 313        0.70710

 The electronic state is 1-A.
 Alpha  occ. eigenvalues --  -46.87690 -46.87594 -19.26280 -19.26177 -19.19085
 Alpha  occ. eigenvalues --  -19.18906 -19.18729 -19.18669 -19.18060 -19.17981
 Alpha  occ. eigenvalues --  -14.42434 -14.42346 -14.41345 -14.41294 -14.39299
 Alpha  occ. eigenvalues --  -14.39289 -14.38532 -14.38478 -10.39017 -10.38967
 Alpha  occ. eigenvalues --  -10.35364 -10.35348 -10.34280 -10.34159 -10.31690
 Alpha  occ. eigenvalues --  -10.31576 -10.31299 -10.31243 -10.30964 -10.30809
 Alpha  occ. eigenvalues --  -10.30462 -10.30401 -10.30332 -10.30293 -10.30106
 Alpha  occ. eigenvalues --  -10.30080 -10.29828 -10.29814 -10.29526 -10.29375
 Alpha  occ. eigenvalues --  -10.29337 -10.29152 -10.28660 -10.28650 -10.28597
 Alpha  occ. eigenvalues --  -10.28442 -10.28341 -10.28261 -10.28083 -10.28019
 Alpha  occ. eigenvalues --  -10.27936 -10.27688 -10.27624 -10.27607 -10.27483
 Alpha  occ. eigenvalues --  -10.27452 -10.27420 -10.27418 -10.27405 -10.27396
 Alpha  occ. eigenvalues --  -10.27392 -10.27350 -10.27316 -10.27299 -10.27052
 Alpha  occ. eigenvalues --  -10.26983 -10.26630 -10.26602 -10.26386 -10.26339
 Alpha  occ. eigenvalues --  -10.26144 -10.26065 -10.26057 -10.25975 -10.25912
 Alpha  occ. eigenvalues --  -10.25867 -10.25769 -10.25723 -10.25351 -10.25349
 Alpha  occ. eigenvalues --  -10.24806 -10.24726 -10.24685 -10.24631 -10.24627
 Alpha  occ. eigenvalues --  -10.24551  -3.16433  -3.16344  -1.91314  -1.91226
 Alpha  occ. eigenvalues --   -1.90901  -1.90815  -1.90743  -1.90652  -1.16573
 Alpha  occ. eigenvalues --   -1.16524  -1.08587  -1.08517  -1.07132  -1.06923
 Alpha  occ. eigenvalues --   -1.06871  -1.06529  -1.04477  -1.04432  -1.03656
 Alpha  occ. eigenvalues --   -1.03599  -1.03128  -1.02974  -1.02306  -1.02046
 Alpha  occ. eigenvalues --   -0.91922  -0.91866  -0.89426  -0.89411  -0.89091
 Alpha  occ. eigenvalues --   -0.89088  -0.88182  -0.88154  -0.87760  -0.87723
 Alpha  occ. eigenvalues --   -0.87621  -0.87570  -0.87179  -0.87067  -0.84940
 Alpha  occ. eigenvalues --   -0.84882  -0.83829  -0.83807  -0.82882  -0.82877
 Alpha  occ. eigenvalues --   -0.82595  -0.82550  -0.81530  -0.81480  -0.80494
 Alpha  occ. eigenvalues --   -0.80380  -0.78697  -0.78575  -0.77114  -0.77082
 Alpha  occ. eigenvalues --   -0.76834  -0.76832  -0.75821  -0.75777  -0.74797
 Alpha  occ. eigenvalues --   -0.74741  -0.72668  -0.72633  -0.71571  -0.71520
 Alpha  occ. eigenvalues --   -0.69795  -0.69684  -0.68773  -0.68767  -0.67540
 Alpha  occ. eigenvalues --   -0.67539  -0.67143  -0.67122  -0.65209  -0.65184
 Alpha  occ. eigenvalues --   -0.64748  -0.64705  -0.64590  -0.64517  -0.64163
 Alpha  occ. eigenvalues --   -0.64136  -0.62211  -0.62191  -0.60345  -0.60282
 Alpha  occ. eigenvalues --   -0.59735  -0.59703  -0.58928  -0.58883  -0.58399
 Alpha  occ. eigenvalues --   -0.58361  -0.57485  -0.57476  -0.57206  -0.57174
 Alpha  occ. eigenvalues --   -0.56207  -0.56140  -0.55874  -0.55822  -0.55423
 Alpha  occ. eigenvalues --   -0.55395  -0.55233  -0.55180  -0.54419  -0.54416
 Alpha  occ. eigenvalues --   -0.53853  -0.53795  -0.53199  -0.53166  -0.53123
 Alpha  occ. eigenvalues --   -0.53082  -0.52837  -0.52809  -0.52664  -0.52620
 Alpha  occ. eigenvalues --   -0.52323  -0.52323  -0.51809  -0.51801  -0.51601
 Alpha  occ. eigenvalues --   -0.51518  -0.51133  -0.51089  -0.50485  -0.50427
 Alpha  occ. eigenvalues --   -0.49927  -0.49923  -0.49825  -0.49805  -0.49433
 Alpha  occ. eigenvalues --   -0.49418  -0.49141  -0.49112  -0.49042  -0.48996
 Alpha  occ. eigenvalues --   -0.48495  -0.48489  -0.48366  -0.48346  -0.48314
 Alpha  occ. eigenvalues --   -0.48287  -0.47595  -0.47535  -0.47199  -0.47061
 Alpha  occ. eigenvalues --   -0.46691  -0.46643  -0.46495  -0.46456  -0.46254
 Alpha  occ. eigenvalues --   -0.46206  -0.46056  -0.46019  -0.45753  -0.45713
 Alpha  occ. eigenvalues --   -0.45147  -0.45100  -0.44472  -0.44451  -0.44413
 Alpha  occ. eigenvalues --   -0.44409  -0.44067  -0.44040  -0.44011  -0.43990
 Alpha  occ. eigenvalues --   -0.43918  -0.43883  -0.43485  -0.43388  -0.43324
 Alpha  occ. eigenvalues --   -0.43284  -0.42923  -0.42864  -0.42834  -0.42593
 Alpha  occ. eigenvalues --   -0.42544  -0.42486  -0.41900  -0.41893  -0.41604
 Alpha  occ. eigenvalues --   -0.41600  -0.41433  -0.41396  -0.41041  -0.40929
 Alpha  occ. eigenvalues --   -0.40768  -0.40733  -0.40671  -0.40639  -0.40466
 Alpha  occ. eigenvalues --   -0.40427  -0.40170  -0.40135  -0.39349  -0.39326
 Alpha  occ. eigenvalues --   -0.38365  -0.38287  -0.37647  -0.37593  -0.37215
 Alpha  occ. eigenvalues --   -0.37200  -0.37161  -0.37137  -0.36701  -0.36604
 Alpha  occ. eigenvalues --   -0.36151  -0.36086  -0.34188  -0.34180  -0.33788
 Alpha  occ. eigenvalues --   -0.33658  -0.33110  -0.33080  -0.31259  -0.31228
 Alpha  occ. eigenvalues --   -0.30932  -0.30910  -0.29919  -0.29885  -0.29348
 Alpha  occ. eigenvalues --   -0.29267  -0.29214  -0.29144  -0.23975  -0.23971
 Alpha  occ. eigenvalues --   -0.21053  -0.21023
 Alpha virt. eigenvalues --   -0.08729  -0.08671  -0.01647  -0.01621   0.00027
 Alpha virt. eigenvalues --    0.00038   0.02274   0.02307   0.03247   0.03311
 Alpha virt. eigenvalues --    0.04791   0.04820   0.05209   0.05238   0.06242

 Mulliken charges:
               1
     1  Mg   0.839121
     2  C   -0.002916
     3  C   -0.094136
     4  C   -0.045906
     5  C   -0.063856
     6  N   -0.256762
     7  C   -0.052397
     8  C   -0.014053
     9  C   -0.086990
    10  C    0.046315
    11  C    0.104862
    12  C    0.053454
    13  C   -0.071736
    14  H    0.036098
    15  N   -0.433088
    16  C    0.168383
    17  C   -0.177259
    18  C   -0.004139
    19  C    0.148723
    20  C    0.110221
    21  C    0.012206
    22  O   -0.249904
    23  C    0.062513
    24  N   -0.341204
    25  C    0.041250
    26  C   -0.028087
    27  C   -0.024022
    28  C    0.074986
    29  C    0.076260
    30  C    0.035095
    31  C   -0.004525
    32  N   -0.310558
    33  C    0.080627
    34  C   -0.169359
    35  C    0.008417
    36  C    0.083230
    37  C    0.127219
    38  C    0.046342
    39  O   -0.188278
    40  C   -0.005426
    41  C    0.212855
    42  O   -0.256750
    43  O   -0.304900
    44  C    0.157695
    45  H   -0.017798
    46  H   -0.017069
    47  H   -0.041331
    48  H    0.000848
    49  H   -0.004101
    50  H    0.025407
    51  H    0.016371
    52  H    0.016486
    53  H    0.011316
    54  H    0.044311
    55  H    0.017727
    56  H    0.017902
    57  H    0.005819
    58  H    0.026561
    59  H    0.039456
    60  H    0.037262
    61  H    0.035238
    62  H    0.031533
    63  H    0.016456
    64  H    0.009328
    65  H    0.022946
    66  H    0.012419
    67  H    0.004643
    68  H    0.006071
    69  H    0.004933
    70  H    0.008444
    71  H    0.018900
    72  H    0.029214
    73  H    0.048022
    74  H    0.009313
    75  H    0.045818
    76  H    0.035000
    77  H    0.042833
    78  H    0.046272
    79  H    0.053830
    80  Mg   0.838195
    81  C   -0.016767
    82  C   -0.087817
    83  C   -0.045543
    84  C   -0.064777
    85  N   -0.254541
    86  C   -0.049780
    87  C   -0.015114
    88  C   -0.090493
    89  C    0.045737
    90  C    0.114425
    91  C    0.062510
    92  C   -0.077841
    93  H    0.034894
    94  N   -0.423437
    95  C    0.162874
    96  C   -0.174747
    97  C   -0.007947
    98  C    0.152126
    99  C    0.099419
   100  C    0.015480
   101  O   -0.253456
   102  C    0.061239
   103  N   -0.350130
   104  C    0.037533
   105  C   -0.019761
   106  C   -0.034880
   107  C    0.089085
   108  C    0.073755
   109  C    0.034720
   110  C   -0.007723
   111  N   -0.324209
   112  C    0.078676
   113  C   -0.162741
   114  C    0.002301
   115  C    0.096448
   116  C    0.131406
   117  C    0.042627
   118  O   -0.187673
   119  C    0.000830
   120  C    0.211248
   121  O   -0.250654
   122  O   -0.305738
   123  C    0.152021
   124  H   -0.019844
   125  H   -0.015796
   126  H   -0.040257
   127  H   -0.000721
   128  H   -0.004388
   129  H    0.022400
   130  H    0.014352
   131  H    0.016128
   132  H    0.014007
   133  H    0.037869
   134  H    0.020662
   135  H    0.019533
   136  H    0.008710
   137  H    0.025896
   138  H    0.039675
   139  H    0.038188
   140  H    0.035983
   141  H    0.033899
   142  H    0.014312
   143  H    0.012294
   144  H    0.024878
   145  H    0.011507
   146  H    0.005579
   147  H    0.005974
   148  H    0.003883
   149  H    0.010568
   150  H    0.018787
   151  H    0.030329
   152  H    0.046501
   153  H    0.008748
   154  H    0.046753
   155  H    0.034881
   156  H    0.043830
   157  H    0.049357
   158  H    0.053745
 Sum of Mulliken charges =  -0.00000

 Dipole moment (field-independent basis, Debye):
    X=             -0.0181    Y=             -0.0434    Z=              7.3106  Tot=              7.3108
 Quadrupole moment (field-independent basis, Debye-Ang):
   XX=           -447.6973   YY=           -462.0436   ZZ=           -539.8699
   XY=             32.2679   XZ=             -0.2445   YZ=              0.4830

 Normal termination of Gaussian 16 at Sat Sep 11 22:07:29 2021.
