 Gaussian 16, Revision A.03,
 Gaussian 16:  ES64L-G16RevA.03 25-Dec-2016

 -----------------------------------
 #p cam-b3lyp/Def2SVP td=(nstates=5)
 -----------------------------------

 --------------------------------
 TDDFT excited states in gaussian
 --------------------------------
 Symbolic Z-matrix:
 Charge =  0 Multiplicity = 1

                         Standard orientation:
 ---------------------------------------------------------------------
 Center     Atomic      Atomic             Coordinates (Angstroms)
 Number     Number       Type             X           Y           Z
 ---------------------------------------------------------------------
      1         12           0        4.284129    1.065828    0.503797
      2          6           0        5.223412   -1.726553   -1.529075
      3          6           0        4.690761    3.024792   -2.260289
      4          6           0        3.902452    3.597247    2.375391
      5          6           0        5.050365   -0.889610    3.284949
      6          7           0        4.882183    0.592244   -1.574350
      7          6           0        5.157088   -0.525666   -2.239087
      8          6           0        5.293997   -0.312567   -3.776363
      9          6           0        5.670655    1.236652   -3.783184
     10          6           0        5.012513    1.652380   -2.479366
     11          6           0        7.169713    1.499654   -3.682413
     12          6           0        3.950658   -0.578895   -4.535470
     13          6           0        4.074718   -0.711950   -6.056081
     14          1           0        3.210174   -1.654949   -6.749381
     15          7           0        3.822711    2.933458    0.054466
     16          6           0        4.045803    3.561457   -1.124997
     17          6           0        3.524625    4.935457   -0.960138
     18          6           0        3.153069    5.112488    0.471190
     19          6           0        3.641922    3.881055    1.036853
     20          6           0        3.376259    5.900973   -2.095706
     21          6           0        2.475796    6.220815    1.213514
     22          8           0        2.458443    6.272793    2.490844
     23          6           0        1.902034    7.304737    0.395619
     24          7           0        4.657749    1.403274    2.529673
     25          6           0        4.347810    2.571100    3.103350
     26          6           0        4.438423    2.486193    4.598180
     27          6           0        4.641185    0.940014    4.941651
     28          6           0        4.717546    0.385552    3.497695
     29          6           0        5.562324    3.304996    5.248118
     30          6           0        3.629683    0.299623    5.925106
     31          6           0        2.259679    0.242343    5.287215
     32          7           0        4.838785   -1.002155    0.859958
     33          6           0        5.133219   -1.595205    2.096192
     34          6           0        5.558958   -2.979724    1.820654
     35          6           0        5.498105   -3.091506    0.432977
     36          6           0        5.087220   -1.847204   -0.124858
     37          6           0        5.992191   -3.926918    2.789966
     38          6           0        5.708321   -3.965288   -0.709901
     39          8           0        5.967462   -5.161295   -0.850988
     40          6           0        5.656401   -3.080816   -2.033095
     41          6           0        4.760573   -3.784833   -3.015521
     42          8           0        3.537589   -3.901586   -2.796328
     43          8           0        5.433115   -3.997736   -4.156968
     44          6           0        4.592096   -4.666908   -5.185098
     45          1           0        5.012514    3.766051   -2.994422
     46          1           0        3.676559    4.412184    3.066251
     47          1           0        5.223492   -1.584424    4.108790
     48          1           0        6.089459   -0.891166   -4.246350
     49          1           0        5.215201    1.762499   -4.622094
     50          1           0        7.723571    0.580426   -3.492197
     51          1           0        7.288055    2.194450   -2.850700
     52          1           0        7.530910    2.026038   -4.566287
     53          1           0        3.322773    0.310193   -4.477643
     54          1           0        3.450226   -1.461665   -4.135958
     55          1           0        5.112517   -0.850020   -6.360745
     56          1           0        3.784037    0.237022   -6.506809
     57          1           0        3.885083    5.546993   -2.991442
     58          1           0        3.915545    6.805975   -1.816687
     59          1           0        2.332116    6.142104   -2.295589
     60          1           0        2.691370    7.760855   -0.202256
     61          1           0        1.381319    7.962497    1.090642
     62          1           0        1.191348    6.875413   -0.311174
     63          1           0        3.520220    2.838657    5.066260
     64          1           0        5.613072    0.746002    5.396039
     65          1           0        5.209831    4.016935    5.994842
     66          1           0        6.112920    3.810381    4.455199
     67          1           0        6.348896    2.712180    5.714264
     68          1           0        3.539337    0.907013    6.825029
     69          1           0        3.907386   -0.708787    6.232092
     70          1           0        1.860027    1.237482    5.479071
     71          1           0        1.648495   -0.522966    5.766764
     72          1           0        2.328737    0.121825    4.205924
     73          1           0        5.516177   -4.871592    2.527343
     74          1           0        5.721605   -3.613806    3.798106
     75          1           0        7.068944   -3.909467    2.622170
     76          1           0        6.680241   -3.000868   -2.397076
     77          1           0        5.117039   -5.572467   -5.489450
     78          1           0        4.386377   -3.919493   -5.951555
     79          1           0        3.646485   -5.084252   -4.837272
     80         12           0       -4.433423   -1.184073    0.476752
     81          6           0       -4.877360    1.386746   -1.987573
     82          6           0       -4.178063    1.297542    2.802894
     83          6           0       -3.593333   -3.392003    2.594943
     84          6           0       -3.589682   -3.341253   -2.127165
     85          7           0       -4.532342    1.019023    0.306938
     86          6           0       -4.766376    1.880920   -0.671175
     87          6           0       -4.968262    3.346802   -0.202126
     88          6           0       -4.167704    3.266988    1.187690
     89          6           0       -4.327693    1.775825    1.476637
     90          6           0       -2.685229    3.569780    1.046529
     91          6           0       -6.480352    3.698706    0.025369
     92          6           0       -6.776387    5.191702    0.183791
     93          1           0       -8.027129    5.714698   -0.358967
     94          7           0       -4.438186   -1.128274    2.460545
     95          6           0       -4.349753   -0.032981    3.243992
     96          6           0       -4.376354   -0.526288    4.629667
     97          6           0       -4.321641   -2.013158    4.599390
     98          6           0       -4.089544   -2.239692    3.186976
     99          6           0       -4.527401    0.383132    5.814394
    100          6           0       -4.443610   -3.057795    5.667123
    101          8           0       -4.127098   -4.280999    5.451679
    102          6           0       -4.855467   -2.589464    6.998488
    103          7           0       -3.494880   -3.030012    0.292420
    104          6           0       -3.295801   -3.814622    1.366044
    105          6           0       -2.858740   -5.200520    0.955342
    106          6           0       -3.039813   -5.255141   -0.632678
    107          6           0       -3.485190   -3.798293   -0.886856
    108          6           0       -1.422811   -5.579672    1.316905
    109          6           0       -3.914513   -6.405502   -1.202114
    110          6           0       -5.355866   -6.210411   -0.790002
    111          7           0       -4.433836   -1.091437   -1.681836
    112          6           0       -4.017231   -2.099278   -2.578933
    113          6           0       -4.093614   -1.529526   -3.939802
    114          6           0       -4.530854   -0.211948   -3.736597
    115          6           0       -4.694663    0.029139   -2.345714
    116          6           0       -3.735026   -2.199437   -5.143444
    117          6           0       -4.880871    1.033045   -4.381706
    118          8           0       -5.014874    1.399092   -5.548672
    119          6           0       -4.999424    2.162548   -3.269700
    120          6           0       -6.276220    2.920106   -3.511383
    121          8           0       -7.378381    2.358772   -3.381907
    122          8           0       -5.993960    4.229211   -3.641551
    123          6           0       -7.229936    5.023649   -3.871859
    124          1           0       -3.857620    1.998514    3.574163
    125          1           0       -3.392972   -4.222921    3.275302
    126          1           0       -3.437241   -3.980298   -2.999559
    127          1           0       -4.521957    4.095276   -0.845854
    128          1           0       -4.654330    3.859079    1.958393
    129          1           0       -2.391852    3.673275    0.012431
    130          1           0       -2.169735    2.735727    1.504402
    131          1           0       -2.421956    4.449638    1.640566
    132          1           0       -6.786179    3.340297    1.016704
    133          1           0       -7.088557    3.290911   -0.758491
    134          1           0       -5.930588    5.815240   -0.130469
    135          1           0       -6.890780    5.411774    1.247983
    136          1           0       -4.376858    1.433706    5.536841
    137          1           0       -3.699063    0.160834    6.495799
    138          1           0       -5.470655    0.232203    6.343699
    139          1           0       -4.144920   -1.848167    7.356331
    140          1           0       -4.973018   -3.491495    7.602137
    141          1           0       -5.821663   -2.080823    6.907000
    142          1           0       -3.490734   -5.955135    1.407264
    143          1           0       -2.076851   -5.383887   -1.148387
    144          1           0       -1.355508   -6.494516    1.935468
    145          1           0       -0.966530   -4.741546    1.826703
    146          1           0       -0.756007   -5.724977    0.468702
    147          1           0       -3.598969   -7.364184   -0.783168
    148          1           0       -3.862798   -6.493388   -2.282200
    149          1           0       -5.384628   -6.637569    0.216871
    150          1           0       -6.022675   -6.743987   -1.464319
    151          1           0       -5.599670   -5.145193   -0.703254
    152          1           0       -4.505469   -1.971553   -5.868004
    153          1           0       -3.639040   -3.272008   -4.988075
    154          1           0       -2.771120   -1.726715   -5.350027
    155          1           0       -4.120699    2.802581   -3.357869
    156          1           0       -7.079489    5.587397   -4.797734
    157          1           0       -7.386156    5.608324   -2.945849
    158          1           0       -8.139504    4.480567   -4.100341
 ---------------------------------------------------------------------

 SCF Done:  E(RCAM-B3LYP) =  -4069.81236585     A.U. after   19 cycles

 Excitation energies and oscillator strengths:

 Excited State   1:      Singlet-A      1.6674 eV  743.57 nm  f=0.2650  <S**2>=0.000
     310 -> 316       -0.14569
     311 -> 313        0.36535
     312 -> 314        0.58098
 This state for optimization and/or second-order correction.
 Total Energy, E(TD-HF/TD-DFT) =  -4069.75108972
 Copying the excited state density for this state as the 1-particle RhoCI density.

 Excited State   2:      Singlet-A      1.6786 eV  738.63 nm  f=0.4079  <S**2>=0.000
     309 -> 315       -0.14777
     311 -> 313        0.58011
     312 -> 314       -0.36481

 Excited State   3:      Singlet-A      2.1830 eV  567.96 nm  f=0.0896  <S**2>=0.000
     309 -> 313        0.18910
     310 -> 314        0.61491
     312 -> 316        0.25865

 Excited State   4:      Singlet-A      2.1918 eV  565.68 nm  f=0.1064  <S**2>=0.000
     309 -> 313        0.61231
     310 -> 314       -0.18780
     311 -> 315        0.26514

 Excited State   5:      Singlet-A      2.3460 eV  528.49 nm  f=0.0000  <S**2>=0.000
     312 -> 313        0.70707

 The electronic state is 1-A.
 Alpha  occ. eigenvalues --  -46.87914 -46.87447 -19.26405 -19.26312 -19.19159
 Alpha  occ. eigenvalues --  -19.19095 -19.19011 -19.18550 -19.18294 -19.17932
 Alpha  occ. eigenvalues --  -14.42557 -14.42293 -14.41572 -14.41115 -14.39528
 Alpha  occ. eigenvalues --  -14.39148 -14.38703 -14.38397 -10.39214 -10.39021
 Alpha  occ. eigenvalues --  -10.35645 -10.35230 -10.34512 -10.34112 -10.31793
 Alpha  occ. eigenvalues --  -10.31747 -10.31500 -10.31118 -10.31018 -10.30843
 Alpha  occ. eigenvalues --  -10.30679 -10.30638 -10.30337 -10.30191 -10.30167
 Alpha  occ. eigenvalues --  -10.30050 -10.29869 -10.29758 -10.29636 -10.29379
 Alpha  occ. eigenvalues --  -10.29221 -10.29213 -10.28815 -10.28586 -10.28578
 Alpha  occ. eigenvalues --  -10.28541 -10.28486 -10.28222 -10.28180 -10.27970
 Alpha  occ. eigenvalues --  -10.27914 -10.27830 -10.27818 -10.27717 -10.27641
 Alpha  occ. eigenvalues --  -10.27603 -10.27583 -10.27520 -10.27459 -10.27307
 Alpha  occ. eigenvalues --  -10.27294 -10.27282 -10.27276 -10.27123 -10.26990
 Alpha  occ. eigenvalues --  -10.26948 -10.26743 -10.26631 -10.26582 -10.26332
 Alpha  occ. eigenvalues --  -10.26293 -10.26289 -10.26136 -10.25938 -10.25836
 Alpha  occ. eigenvalues --  -10.25805 -10.25686 -10.25678 -10.25581 -10.24954
 Alpha  occ. eigenvalues --  -10.24921 -10.24854 -10.24849 -10.24697 -10.24461
 Alpha  occ. eigenvalues --  -10.24456  -3.16656  -3.16197  -1.91538  -1.91125
 Alpha  occ. eigenvalues --   -1.91080  -1.90967  -1.90668  -1.90505  -1.16757
 Alpha  occ. eigenvalues --   -1.16599  -1.08752  -1.08550  -1.07418  -1.06881
 Alpha  occ. eigenvalues --   -1.06804  -1.06778  -1.04689  -1.04300  -1.03882
 Alpha  occ. eigenvalues --   -1.03450  -1.03357  -1.02808  -1.02532  -1.01893
 Alpha  occ. eigenvalues --   -0.92089  -0.91814  -0.89653  -0.89258  -0.89235
 Alpha  occ. eigenvalues --   -0.88983  -0.88423  -0.87980  -0.87914  -0.87775
 Alpha  occ. eigenvalues --   -0.87611  -0.87470  -0.87414  -0.86948  -0.85069
 Alpha  occ. eigenvalues --   -0.84828  -0.84077  -0.83580  -0.83135  -0.82758
 Alpha  occ. eigenvalues --   -0.82736  -0.82480  -0.81699  -0.81465  -0.80717
 Alpha  occ. eigenvalues --   -0.80282  -0.78922  -0.78453  -0.77330  -0.77027
 Alpha  occ. eigenvalues --   -0.76959  -0.76702  -0.76020  -0.75680  -0.75027
 Alpha  occ. eigenvalues --   -0.74491  -0.72889  -0.72492  -0.71785  -0.71344
 Alpha  occ. eigenvalues --   -0.70048  -0.69445  -0.68972  -0.68658  -0.67769
 Alpha  occ. eigenvalues --   -0.67409  -0.67308  -0.67057  -0.65375  -0.65116
 Alpha  occ. eigenvalues --   -0.64971  -0.64734  -0.64579  -0.64474  -0.64400
 Alpha  occ. eigenvalues --   -0.63927  -0.62419  -0.62137  -0.60582  -0.60131
 Alpha  occ. eigenvalues --   -0.59892  -0.59628  -0.59106  -0.58780  -0.58625
 Alpha  occ. eigenvalues --   -0.58231  -0.57705  -0.57444  -0.57435  -0.57012
 Alpha  occ. eigenvalues --   -0.56428  -0.56090  -0.56033  -0.55767  -0.55655
 Alpha  occ. eigenvalues --   -0.55473  -0.55311  -0.55014  -0.54655  -0.54256
 Alpha  occ. eigenvalues --   -0.53971  -0.53751  -0.53435  -0.53335  -0.53041
 Alpha  occ. eigenvalues --   -0.53037  -0.52977  -0.52884  -0.52745  -0.52585
 Alpha  occ. eigenvalues --   -0.52516  -0.52116  -0.52024  -0.51713  -0.51712
 Alpha  occ. eigenvalues --   -0.51516  -0.51311  -0.51024  -0.50723  -0.50302
 Alpha  occ. eigenvalues --   -0.50164  -0.50057  -0.49804  -0.49630  -0.49563
 Alpha  occ. eigenvalues --   -0.49336  -0.49324  -0.49183  -0.49050  -0.48945
 Alpha  occ. eigenvalues --   -0.48703  -0.48614  -0.48583  -0.48408  -0.48188
 Alpha  occ. eigenvalues --   -0.48072  -0.47812  -0.47420  -0.47404  -0.46910
 Alpha  occ. eigenvalues --   -0.46898  -0.46639  -0.46497  -0.46481  -0.46367
 Alpha  occ. eigenvalues --   -0.46284  -0.46063  -0.45928  -0.45844  -0.45662
 Alpha  occ. eigenvalues --   -0.45335  -0.44893  -0.44696  -0.44634  -0.44355
 Alpha  occ. eigenvalues --   -0.44292  -0.44277  -0.44177  -0.44143  -0.43965
 Alpha  occ. eigenvalues --   -0.43856  -0.43793  -0.43612  -0.43490  -0.43415
 Alpha  occ. eigenvalues --   -0.43184  -0.43143  -0.42832  -0.42827  -0.42789
 Alpha  occ. eigenvalues --   -0.42693  -0.42287  -0.42130  -0.41825  -0.41743
 Alpha  occ. eigenvalues --   -0.41617  -0.41483  -0.41269  -0.41251  -0.41001
 Alpha  occ. eigenvalues --   -0.40955  -0.40774  -0.40694  -0.40566  -0.40514
 Alpha  occ. eigenvalues --   -0.40292  -0.40200  -0.40102  -0.39588  -0.39116
 Alpha  occ. eigenvalues --   -0.38593  -0.38055  -0.37820  -0.37504  -0.37445
 Alpha  occ. eigenvalues --   -0.37350  -0.37045  -0.36986  -0.36842  -0.36659
 Alpha  occ. eigenvalues --   -0.36315  -0.35972  -0.34402  -0.34048  -0.33908
 Alpha  occ. eigenvalues --   -0.33767  -0.33308  -0.32963  -0.31539  -0.31158
 Alpha  occ. eigenvalues --   -0.31104  -0.30767  -0.30152  -0.29841  -0.29584
 Alpha  occ. eigenvalues --   -0.29443  -0.29146  -0.29032  -0.24198  -0.23823
 Alpha  occ. eigenvalues --   -0.21245  -0.20904
 Alpha virt. eigenvalues --   -0.08899  -0.08595  -0.01877  -0.01459  -0.00202
 Alpha virt. eigenvalues --    0.00140   0.02071   0.02373   0.02837   0.03490
 Alpha virt. eigenvalues --    0.04626   0.04934   0.04969   0.05244   0.06120

 Mulliken charges:
               1
     1  Mg   0.838931
     2  C   -0.002963
     3  C   -0.093267
     4  C   -0.046678
     5  C   -0.063755
     6  N   -0.256849
     7  C   -0.052013
     8  C   -0.014203
     9  C   -0.087134
    10  C    0.046343
    11  C    0.104714
    12  C    0.053215
    13  C   -0.072235
    14  H    0.036486
    15  N   -0.433077
    16  C    0.168237
    17  C   -0.176993
    18  C   -0.004632
    19  C    0.148576
    20  C    0.109997
    21  C    0.010935
    22  O   -0.250917
    23  C    0.062746
    24  N   -0.341159
    25  C    0.041434
    26  C   -0.027987
    27  C   -0.023951
    28  C    0.074836
    29  C    0.076192
    30  C    0.035160
    31  C   -0.004459
    32  N   -0.310536
    33  C    0.080614
    34  C   -0.169528
    35  C    0.008214
    36  C    0.083026
    37  C    0.127361
    38  C    0.045772
    39  O   -0.188413
    40  C   -0.005224
    41  C    0.213068
    42  O   -0.258176
    43  O   -0.304415
    44  C    0.157937
    45  H   -0.017070
    46  H   -0.017634
    47  H   -0.041146
    48  H    0.001055
    49  H   -0.003159
    50  H    0.025454
    51  H    0.016303
    52  H    0.017161
    53  H    0.012193
    54  H    0.043495
    55  H    0.017797
    56  H    0.019240
    57  H    0.006839
    58  H    0.026878
    59  H    0.039658
    60  H    0.038446
    61  H    0.034403
    62  H    0.030764
    63  H    0.015183
    64  H    0.009782
    65  H    0.022710
    66  H    0.012849
    67  H    0.005091
    68  H    0.005696
    69  H    0.005708
    70  H    0.006036
    71  H    0.019457
    72  H    0.029750
    73  H    0.047603
    74  H    0.009596
    75  H    0.046218
    76  H    0.035554
    77  H    0.043181
    78  H    0.047134
    79  H    0.052485
    80  Mg   0.837798
    81  C   -0.017442
    82  C   -0.088380
    83  C   -0.045524
    84  C   -0.061715
    85  N   -0.254686
    86  C   -0.050115
    87  C   -0.014984
    88  C   -0.090329
    89  C    0.045506
    90  C    0.113942
    91  C    0.062628
    92  C   -0.077470
    93  H    0.034144
    94  N   -0.423504
    95  C    0.163029
    96  C   -0.174847
    97  C   -0.008071
    98  C    0.152330
    99  C    0.099538
   100  C    0.015034
   101  O   -0.253033
   102  C    0.061391
   103  N   -0.350081
   104  C    0.038689
   105  C   -0.020811
   106  C   -0.035406
   107  C    0.089198
   108  C    0.071610
   109  C    0.034498
   110  C   -0.007476
   111  N   -0.324034
   112  C    0.078094
   113  C   -0.162856
   114  C    0.001425
   115  C    0.096479
   116  C    0.131895
   117  C    0.041636
   118  O   -0.189670
   119  C    0.001215
   120  C    0.211188
   121  O   -0.250861
   122  O   -0.306203
   123  C    0.152122
   124  H   -0.019025
   125  H   -0.015295
   126  H   -0.039556
   127  H   -0.002430
   128  H   -0.004316
   129  H    0.019715
   130  H    0.015725
   131  H    0.018824
   132  H    0.014122
   133  H    0.037421
   134  H    0.019908
   135  H    0.019893
   136  H    0.009083
   137  H    0.025372
   138  H    0.039312
   139  H    0.037564
   140  H    0.035986
   141  H    0.033816
   142  H    0.013388
   143  H    0.018075
   144  H    0.023866
   145  H    0.011952
   146  H    0.014001
   147  H    0.006837
   148  H    0.003387
   149  H    0.010624
   150  H    0.016983
   151  H    0.029305
   152  H    0.044912
   153  H    0.009027
   154  H    0.046548
   155  H    0.033035
   156  H    0.042991
   157  H    0.049477
   158  H    0.053646
 Sum of Mulliken charges =  -0.00000

 Dipole moment (field-independent basis, Debye):
    X=              2.9282    Y=              5.4439    Z=              1.3098  Tot=              6.3187
 Quadrupole moment (field-independent basis, Debye-Ang):
   XX=           -521.6389   YY=           -508.6477   ZZ=           -489.4528
   XY=              6.1030   XZ=            -34.1892   YZ=              5.9597

 Normal termination of Gaussian 16 at Fri Sep  3 21:41:47 2021.
