 Gaussian 16, Revision A.03,
 Gaussian 16:  ES64L-G16RevA.03 25-Dec-2016

 -----------------------------------
 #p cam-b3lyp/Def2SVP td=(nstates=5)
 -----------------------------------

 --------------------------------
 TDDFT excited states in gaussian
 --------------------------------
 Symbolic Z-matrix:
 Charge =  0 Multiplicity = 1

                         Standard orientation:
 ---------------------------------------------------------------------
 Center     Atomic      Atomic             Coordinates (Angstroms)
 Number     Number       Type             X           Y           Z
 ---------------------------------------------------------------------
      1         12           0       -5.190419    0.557092   -0.618019
      2          6           0       -5.453994   -2.734674    0.762931
      3          6           0       -6.420334    1.734797    2.338903
      4          6           0       -5.395345    3.419213   -1.968162
      5          6           0       -5.074852   -0.932852   -3.766411
      6          7           0       -5.818448   -0.468740    1.240447
      7          6           0       -5.813533   -1.729115    1.663059
      8          6           0       -6.154020   -1.874632    3.176421
      9          6           0       -6.970046   -0.520468    3.382187
     10          6           0       -6.342082    0.311699    2.278066
     11          6           0       -8.463041   -0.660410    3.103110
     12          6           0       -4.871212   -1.912425    4.073476
     13          6           0       -5.095706   -2.376867    5.515437
     14          1           0       -4.061987   -3.168475    6.165151
     15          7           0       -5.346192    2.349947    0.196999
     16          6           0       -5.856765    2.643337    1.417049
     17          6           0       -5.751108    4.111276    1.560831
     18          6           0       -5.312885    4.666477    0.250180
     19          6           0       -5.359836    3.488258   -0.577451
     20          6           0       -6.003991    4.832148    2.849297
     21          6           0       -4.925035    6.042853   -0.189473
     22          8           0       -4.801378    6.353098   -1.423584
     23          6           0       -4.778016    7.054670    0.872438
     24          7           0       -5.450902    1.180036   -2.593297
     25          6           0       -5.445982    2.478622   -2.913662
     26          6           0       -5.363691    2.674374   -4.398535
     27          6           0       -5.067079    1.233118   -5.018659
     28          6           0       -5.114483    0.400462   -3.713781
     29          6           0       -6.611455    3.269853   -5.065244
     30          6           0       -3.822175    1.103113   -5.931749
     31          6           0       -2.564102    1.293658   -5.114411
     32          7           0       -5.073073   -1.468391   -1.389183
     33          6           0       -5.059339   -1.858237   -2.736219
     34          6           0       -5.081780   -3.332354   -2.759560
     35          6           0       -5.124024   -3.699778   -1.416035
     36          6           0       -5.154239   -2.529080   -0.605574
     37          6           0       -5.121049   -4.146858   -3.925525
     38          6           0       -5.175535   -4.808866   -0.477351
     39          8           0       -5.082358   -6.033254   -0.575771
     40          6           0       -5.514171   -4.228189    0.966244
     41          6           0       -4.548988   -4.844466    1.941914
     42          8           0       -3.330918   -4.577693    1.891880
     43          8           0       -5.234941   -5.457051    2.919028
     44          6           0       -4.336529   -6.064623    3.936803
     45          1           0       -7.015418    2.197409    3.128717
     46          1           0       -5.354913    4.386378   -2.473528
     47          1           0       -4.955313   -1.468324   -4.710039
     48          1           0       -6.784474   -2.729912    3.420240
     49          1           0       -6.772769   -0.070254    4.354869
     50          1           0       -8.699954   -1.637917    2.683261
     51          1           0       -8.700868    0.128365    2.389131
     52          1           0       -9.046553   -0.440828    3.997579
     53          1           0       -4.531242   -0.893319    4.257607
     54          1           0       -4.096593   -2.526841    3.613275
     55          1           0       -6.070713   -2.850260    5.634475
     56          1           0       -5.142738   -1.495278    6.154803
     57          1           0       -6.469100    4.180683    3.588088
     58          1           0       -6.757031    5.593231    2.645847
     59          1           0       -5.101765    5.302897    3.240087
     60          1           0       -5.720351    7.149139    1.412465
     61          1           0       -4.410526    7.954935    0.381190
     62          1           0       -4.043484    6.701928    1.596995
     63          1           0       -4.549988    3.349837   -4.659425
     64          1           0       -5.890118    0.877493   -5.638992
     65          1           0       -6.414913    4.185741   -5.623121
     66          1           0       -7.360091    3.436434   -4.291237
     67          1           0       -7.139479    2.591675   -5.735081
     68          1           0       -3.829278    1.880090   -6.695426
     69          1           0       -3.759047    0.140240   -6.438840
     70          1           0       -2.459544    2.377422   -5.077593
     71          1           0       -1.711198    0.835986   -5.616708
     72          1           0       -2.697878    0.944231   -4.090452
     73          1           0       -4.414873   -4.959191   -3.754065
     74          1           0       -4.859567   -3.576067   -4.816270
     75          1           0       -6.165868   -4.456988   -3.920102
     76          1           0       -6.545954   -4.504525    1.181147
     77          1           0       -4.597423   -7.120758    4.005691
     78          1           0       -4.435110   -5.459256    4.838035
     79          1           0       -3.281064   -6.130333    3.670316
     80         12           0        5.335610    0.834320    0.517917
     81          6           0        5.411578   -2.227045   -1.353266
     82          6           0        4.216926   -0.990966    3.173378
     83          6           0        4.828442    3.564149    2.053584
     84          6           0        5.348000    2.532556   -2.525366
     85          7           0        4.909439   -1.322963    0.756132
     86          6           0        5.034155   -2.399597   -0.005223
     87          6           0        4.815580   -3.743432    0.740349
     88          6           0        3.906804   -3.202836    1.948965
     89          6           0        4.394028   -1.755988    1.992926
     90          6           0        2.421231   -3.197046    1.628984
     91          6           0        6.159211   -4.361848    1.264041
     92          6           0        6.059842   -5.816828    1.727630
     93          1           0        7.197214   -6.701772    1.491532
     94          7           0        5.101521    1.193479    2.455647
     95          6           0        4.658733    0.331883    3.395248
     96          6           0        4.648259    1.085108    4.658852
     97          6           0        4.963918    2.508235    4.359257
     98          6           0        4.956236    2.480575    2.910375
     99          6           0        4.436136    0.432010    5.993732
    100          6           0        5.216622    3.699986    5.232235
    101          8           0        5.236526    4.890356    4.757436
    102          6           0        5.347227    3.440958    6.673535
    103          7           0        4.905943    2.760757   -0.135229
    104          6           0        4.785083    3.775972    0.738076
    105          6           0        4.750988    5.107085    0.025776
    106          6           0        5.118820    4.788691   -1.497672
    107          6           0        5.218904    3.249553   -1.417478
    108          6           0        3.420574    5.857595    0.081668
    109          6           0        6.307847    5.575607   -2.113835
    110          6           0        7.600900    5.160612   -1.449643
    111          7           0        5.558083    0.296100   -1.562677
    112          6           0        5.506056    1.160987   -2.677739
    113          6           0        5.594114    0.317552   -3.887409
    114          6           0        5.668665   -0.991717   -3.388665
    115          6           0        5.609484   -0.967511   -1.969017
    116          6           0        5.549785    0.783714   -5.231591
    117          6           0        5.773280   -2.389520   -3.740691
    118          8           0        5.944801   -3.010931   -4.788626
    119          6           0        5.484108   -3.260479   -2.442924
    120          6           0        6.554854   -4.311988   -2.341154
    121          8           0        7.739046   -3.990657   -2.138553
    122          8           0        5.976588   -5.525470   -2.282353
    123          6           0        6.997692   -6.600846   -2.169548
    124          1           0        3.648928   -1.428500    3.994847
    125          1           0        4.762308    4.541849    2.536494
    126          1           0        5.457011    2.993280   -3.509503
    127          1           0        4.275222   -4.493616    0.175553
    128          1           0        4.142609   -3.713009    2.879275
    129          1           0        2.230654   -3.447104    0.595881
    130          1           0        2.077698   -2.193873    1.845010
    131          1           0        1.884470   -3.854532    2.318854
    132          1           0        6.429171   -3.880394    2.212761
    133          1           0        6.933728   -4.269298    0.527717
    134          1           0        5.128147   -6.291984    1.397297
    135          1           0        5.995278   -5.829869    2.818357
    136          1           0        4.064857   -0.594495    5.884865
    137          1           0        3.615930    0.966890    6.484671
    138          1           0        5.321277    0.480124    6.631604
    139          1           0        4.440626    2.964055    7.038355
    140          1           0        5.613304    4.401010    7.120051
    141          1           0        6.162991    2.725917    6.827975
    142          1           0        5.493393    5.782590    0.432747
    143          1           0        4.281794    5.014328   -2.174654
    144          1           0        3.510143    6.873349    0.510964
    145          1           0        2.717773    5.264497    0.651624
    146          1           0        2.910459    5.965038   -0.874069
    147          1           0        6.191809    6.645786   -1.925688
    148          1           0        6.402107    5.445618   -3.186779
    149          1           0        7.619241    5.771372   -0.542050
    150          1           0        8.450301    5.383103   -2.092332
    151          1           0        7.564366    4.109924   -1.139220
    152          1           0        6.317785    0.247159   -5.772685
    153          1           0        5.702986    1.859585   -5.284556
    154          1           0        4.529182    0.500582   -5.502665
    155          1           0        4.491032   -3.697047   -2.555973
    156          1           0        6.819492   -7.298360   -2.993811
    157          1           0        6.899583   -6.999392   -1.142278
    158          1           0        8.032577   -6.329427   -2.342154
 ---------------------------------------------------------------------

 SCF Done:  E(RCAM-B3LYP) =  -4069.81218380     A.U. after   19 cycles

 Excitation energies and oscillator strengths:

 Excited State   1:      Singlet-A      1.6642 eV  744.99 nm  f=0.1429  <S**2>=0.000
     309 -> 315       -0.10624
     310 -> 316        0.13351
     311 -> 313       -0.42514
     312 -> 314        0.53924
 This state for optimization and/or second-order correction.
 Total Energy, E(TD-HF/TD-DFT) =  -4069.75102434
 Copying the excited state density for this state as the 1-particle RhoCI density.

 Excited State   2:      Singlet-A      1.6871 eV  734.88 nm  f=0.5673  <S**2>=0.000
     309 -> 315        0.13961
     310 -> 316        0.10841
     311 -> 313        0.53796
     312 -> 314        0.42417

 Excited State   3:      Singlet-A      2.1829 eV  567.99 nm  f=0.0679  <S**2>=0.000
     309 -> 313       -0.18890
     310 -> 314        0.61531
     312 -> 316       -0.25760

 Excited State   4:      Singlet-A      2.1943 eV  565.02 nm  f=0.1235  <S**2>=0.000
     309 -> 313        0.61205
     310 -> 314        0.18681
     311 -> 315       -0.26751

 Excited State   5:      Singlet-A      2.4759 eV  500.76 nm  f=0.0000  <S**2>=0.000
     312 -> 313        0.70709

 The electronic state is 1-A.
 Alpha  occ. eigenvalues --  -46.87894 -46.87472 -19.26517 -19.26119 -19.19256
 Alpha  occ. eigenvalues --  -19.18948 -19.18889 -19.18607 -19.18291 -19.17869
 Alpha  occ. eigenvalues --  -14.42555 -14.42281 -14.41541 -14.41176 -14.39497
 Alpha  occ. eigenvalues --  -14.39173 -14.38686 -14.38415 -10.39304 -10.38874
 Alpha  occ. eigenvalues --  -10.35520 -10.35288 -10.34516 -10.34040 -10.31945
 Alpha  occ. eigenvalues --  -10.31530 -10.31516 -10.31072 -10.31024 -10.30804
 Alpha  occ. eigenvalues --  -10.30670 -10.30600 -10.30284 -10.30229 -10.30173
 Alpha  occ. eigenvalues --  -10.30009 -10.29974 -10.29724 -10.29722 -10.29340
 Alpha  occ. eigenvalues --  -10.29266 -10.29239 -10.28903 -10.28774 -10.28469
 Alpha  occ. eigenvalues --  -10.28405 -10.28387 -10.28249 -10.28216 -10.27885
 Alpha  occ. eigenvalues --  -10.27828 -10.27826 -10.27771 -10.27673 -10.27556
 Alpha  occ. eigenvalues --  -10.27552 -10.27515 -10.27514 -10.27453 -10.27372
 Alpha  occ. eigenvalues --  -10.27348 -10.27311 -10.27307 -10.27283 -10.27234
 Alpha  occ. eigenvalues --  -10.26914 -10.26829 -10.26459 -10.26429 -10.26351
 Alpha  occ. eigenvalues --  -10.26350 -10.26216 -10.26101 -10.26013 -10.25902
 Alpha  occ. eigenvalues --  -10.25760 -10.25718 -10.25491 -10.25442 -10.25266
 Alpha  occ. eigenvalues --  -10.24931 -10.24880 -10.24720 -10.24697 -10.24615
 Alpha  occ. eigenvalues --  -10.24518  -3.16637  -3.16222  -1.91519  -1.91105
 Alpha  occ. eigenvalues --   -1.91104  -1.90947  -1.90692  -1.90530  -1.16864
 Alpha  occ. eigenvalues --   -1.16417  -1.08757  -1.08473  -1.07289  -1.06873
 Alpha  occ. eigenvalues --   -1.06864  -1.06731  -1.04689  -1.04280  -1.03855
 Alpha  occ. eigenvalues --   -1.03473  -1.03328  -1.02862  -1.02506  -1.01928
 Alpha  occ. eigenvalues --   -0.92088  -0.91785  -0.89597  -0.89330  -0.89328
 Alpha  occ. eigenvalues --   -0.88832  -0.88362  -0.88062  -0.87957  -0.87781
 Alpha  occ. eigenvalues --   -0.87627  -0.87475  -0.87354  -0.86985  -0.85117
 Alpha  occ. eigenvalues --   -0.84741  -0.84013  -0.83725  -0.83037  -0.82815
 Alpha  occ. eigenvalues --   -0.82774  -0.82419  -0.81742  -0.81391  -0.80719
 Alpha  occ. eigenvalues --   -0.80249  -0.78882  -0.78479  -0.77321  -0.77073
 Alpha  occ. eigenvalues --   -0.76941  -0.76658  -0.76056  -0.75567  -0.74985
 Alpha  occ. eigenvalues --   -0.74628  -0.72866  -0.72514  -0.71777  -0.71353
 Alpha  occ. eigenvalues --   -0.69968  -0.69606  -0.68998  -0.68585  -0.67747
 Alpha  occ. eigenvalues --   -0.67425  -0.67360  -0.66988  -0.65424  -0.65021
 Alpha  occ. eigenvalues --   -0.64974  -0.64741  -0.64574  -0.64436  -0.64352
 Alpha  occ. eigenvalues --   -0.64035  -0.62462  -0.62076  -0.60522  -0.60193
 Alpha  occ. eigenvalues --   -0.59928  -0.59530  -0.59091  -0.58801  -0.58612
 Alpha  occ. eigenvalues --   -0.58237  -0.57736  -0.57405  -0.57350  -0.57073
 Alpha  occ. eigenvalues --   -0.56414  -0.56159  -0.56025  -0.55674  -0.55619
 Alpha  occ. eigenvalues --   -0.55448  -0.55276  -0.55075  -0.54654  -0.54307
 Alpha  occ. eigenvalues --   -0.54039  -0.53613  -0.53392  -0.53343  -0.53061
 Alpha  occ. eigenvalues --   -0.53055  -0.52940  -0.52852  -0.52700  -0.52498
 Alpha  occ. eigenvalues --   -0.52476  -0.52260  -0.51998  -0.51750  -0.51732
 Alpha  occ. eigenvalues --   -0.51427  -0.51309  -0.51008  -0.50639  -0.50351
 Alpha  occ. eigenvalues --   -0.50106  -0.50008  -0.49784  -0.49697  -0.49630
 Alpha  occ. eigenvalues --   -0.49328  -0.49277  -0.49224  -0.49000  -0.48814
 Alpha  occ. eigenvalues --   -0.48726  -0.48560  -0.48534  -0.48327  -0.48224
 Alpha  occ. eigenvalues --   -0.48180  -0.47803  -0.47394  -0.47390  -0.46951
 Alpha  occ. eigenvalues --   -0.46896  -0.46696  -0.46512  -0.46459  -0.46284
 Alpha  occ. eigenvalues --   -0.46266  -0.46100  -0.45952  -0.45911  -0.45615
 Alpha  occ. eigenvalues --   -0.45281  -0.45043  -0.44701  -0.44607  -0.44328
 Alpha  occ. eigenvalues --   -0.44248  -0.44244  -0.44205  -0.44130  -0.43924
 Alpha  occ. eigenvalues --   -0.43856  -0.43760  -0.43639  -0.43498  -0.43346
 Alpha  occ. eigenvalues --   -0.43160  -0.43134  -0.42888  -0.42735  -0.42725
 Alpha  occ. eigenvalues --   -0.42697  -0.42400  -0.42109  -0.41815  -0.41778
 Alpha  occ. eigenvalues --   -0.41667  -0.41467  -0.41249  -0.41224  -0.40990
 Alpha  occ. eigenvalues --   -0.40918  -0.40748  -0.40654  -0.40570  -0.40469
 Alpha  occ. eigenvalues --   -0.40402  -0.40284  -0.39974  -0.39499  -0.39281
 Alpha  occ. eigenvalues --   -0.38556  -0.38171  -0.37915  -0.37418  -0.37406
 Alpha  occ. eigenvalues --   -0.37397  -0.37081  -0.36962  -0.36898  -0.36566
 Alpha  occ. eigenvalues --   -0.36322  -0.36021  -0.34387  -0.34060  -0.33984
 Alpha  occ. eigenvalues --   -0.33655  -0.33291  -0.32990  -0.31421  -0.31163
 Alpha  occ. eigenvalues --   -0.31139  -0.30778  -0.30154  -0.29769  -0.29539
 Alpha  occ. eigenvalues --   -0.29418  -0.29171  -0.29039  -0.24181  -0.23844
 Alpha  occ. eigenvalues --   -0.21222  -0.20929
 Alpha virt. eigenvalues --   -0.08868  -0.08616  -0.01843  -0.01504  -0.00152
 Alpha virt. eigenvalues --    0.00139   0.02097   0.02381   0.03008   0.03400
 Alpha virt. eigenvalues --    0.04589   0.04889   0.04963   0.05380   0.05986

 Mulliken charges:
               1
     1  Mg   0.838622
     2  C   -0.003627
     3  C   -0.094306
     4  C   -0.045700
     5  C   -0.063489
     6  N   -0.256764
     7  C   -0.052736
     8  C   -0.014013
     9  C   -0.086974
    10  C    0.046151
    11  C    0.104748
    12  C    0.053624
    13  C   -0.071231
    14  H    0.033884
    15  N   -0.433197
    16  C    0.168509
    17  C   -0.176942
    18  C   -0.003723
    19  C    0.148709
    20  C    0.110063
    21  C    0.012378
    22  O   -0.249610
    23  C    0.062336
    24  N   -0.341082
    25  C    0.041331
    26  C   -0.028235
    27  C   -0.024028
    28  C    0.074699
    29  C    0.076116
    30  C    0.035032
    31  C   -0.004599
    32  N   -0.310399
    33  C    0.080207
    34  C   -0.169423
    35  C    0.008173
    36  C    0.082752
    37  C    0.127310
    38  C    0.045757
    39  O   -0.188722
    40  C   -0.005292
    41  C    0.213148
    42  O   -0.258898
    43  O   -0.304220
    44  C    0.158176
    45  H   -0.017496
    46  H   -0.016644
    47  H   -0.040865
    48  H    0.000934
    49  H   -0.004207
    50  H    0.025549
    51  H    0.016800
    52  H    0.016780
    53  H    0.011128
    54  H    0.042769
    55  H    0.018535
    56  H    0.018203
    57  H    0.005738
    58  H    0.027066
    59  H    0.040105
    60  H    0.037436
    61  H    0.035845
    62  H    0.032077
    63  H    0.016544
    64  H    0.009731
    65  H    0.023351
    66  H    0.012533
    67  H    0.005026
    68  H    0.006523
    69  H    0.005429
    70  H    0.008233
    71  H    0.019066
    72  H    0.028764
    73  H    0.047686
    74  H    0.009835
    75  H    0.046109
    76  H    0.035408
    77  H    0.043382
    78  H    0.046329
    79  H    0.051789
    80  Mg   0.837831
    81  C   -0.016802
    82  C   -0.087524
    83  C   -0.046217
    84  C   -0.065195
    85  N   -0.254889
    86  C   -0.048729
    87  C   -0.015315
    88  C   -0.090730
    89  C    0.046201
    90  C    0.114825
    91  C    0.062436
    92  C   -0.077711
    93  H    0.033679
    94  N   -0.423454
    95  C    0.162896
    96  C   -0.174914
    97  C   -0.008539
    98  C    0.152301
    99  C    0.099638
   100  C    0.014998
   101  O   -0.253920
   102  C    0.061405
   103  N   -0.350120
   104  C    0.037662
   105  C   -0.019804
   106  C   -0.034787
   107  C    0.089032
   108  C    0.073659
   109  C    0.034838
   110  C   -0.007567
   111  N   -0.324121
   112  C    0.078661
   113  C   -0.163501
   114  C    0.002354
   115  C    0.096197
   116  C    0.131525
   117  C    0.042171
   118  O   -0.188169
   119  C    0.001065
   120  C    0.211111
   121  O   -0.251574
   122  O   -0.304924
   123  C    0.152273
   124  H   -0.019086
   125  H   -0.016445
   126  H   -0.040962
   127  H    0.001183
   128  H   -0.005262
   129  H    0.025265
   130  H    0.014054
   131  H    0.020750
   132  H    0.013169
   133  H    0.036995
   134  H    0.022415
   135  H    0.019144
   136  H    0.009023
   137  H    0.024932
   138  H    0.039238
   139  H    0.037542
   140  H    0.035656
   141  H    0.033974
   142  H    0.013892
   143  H    0.012596
   144  H    0.024320
   145  H    0.011150
   146  H    0.006621
   147  H    0.005952
   148  H    0.003448
   149  H    0.010649
   150  H    0.017560
   151  H    0.030306
   152  H    0.045706
   153  H    0.008181
   154  H    0.046427
   155  H    0.036738
   156  H    0.043842
   157  H    0.049832
   158  H    0.052942
 Sum of Mulliken charges =  -0.00000

 Dipole moment (field-independent basis, Debye):
    X=             -4.9754    Y=              1.8773    Z=              6.2014  Tot=              8.1692
 Quadrupole moment (field-independent basis, Debye-Ang):
   XX=           -518.3281   YY=           -529.6550   ZZ=           -470.4709
   XY=            -12.3587   XZ=              1.2711   YZ=            -29.1478

 Normal termination of Gaussian 16 at Sat Sep 11 00:37:51 2021.
