 Gaussian 16, Revision A.03,
 Gaussian 16:  ES64L-G16RevA.03 25-Dec-2016

 -----------------------------------
 #p cam-b3lyp/Def2SVP td=(nstates=5)
 -----------------------------------

 --------------------------------
 TDDFT excited states in gaussian
 --------------------------------
 Symbolic Z-matrix:
 Charge =  0 Multiplicity = 1

                         Standard orientation:
 ---------------------------------------------------------------------
 Center     Atomic      Atomic             Coordinates (Angstroms)
 Number     Number       Type             X           Y           Z
 ---------------------------------------------------------------------
      1         12           0       -3.976883    0.156285    0.327241
      2          6           0       -3.316166    3.661218    0.629087
      3          6           0       -4.957576    0.769071   -2.883024
      4          6           0       -4.993238   -2.844047    0.180107
      5          6           0       -4.034260    0.017409    3.809062
      6          7           0       -4.076962    2.020513   -0.862416
      7          6           0       -3.738279    3.288141   -0.648911
      8          6           0       -3.801916    4.169201   -1.932288
      9          6           0       -4.846001    3.309352   -2.776410
     10          6           0       -4.588155    1.944155   -2.163485
     11          6           0       -6.299623    3.695240   -2.522292
     12          6           0       -2.417702    4.263239   -2.658125
     13          6           0       -2.312492    5.356529   -3.725365
     14          1           0       -1.046122    6.053796   -3.891125
     15          7           0       -4.383377   -0.983592   -1.234262
     16          6           0       -4.749971   -0.564571   -2.469300
     17          6           0       -4.938713   -1.789479   -3.275934
     18          6           0       -4.836790   -2.958466   -2.358779
     19          6           0       -4.758825   -2.299272   -1.080201
     20          6           0       -5.137251   -1.774549   -4.760559
     21          6           0       -4.823920   -4.435516   -2.596037
     22          8           0       -4.961430   -5.278445   -1.644650
     23          6           0       -4.733682   -4.874525   -4.000376
     24          7           0       -4.666148   -1.182057    1.773404
     25          6           0       -4.987690   -2.439973    1.452089
     26          6           0       -5.179447   -3.284383    2.676891
     27          6           0       -4.681911   -2.397216    3.907804
     28          6           0       -4.348554   -1.094238    3.140086
     29          6           0       -6.613133   -3.764953    2.940727
     30          6           0       -3.594288   -3.012409    4.823791
     31          6           0       -2.294922   -3.143205    4.061138
     32          7           0       -3.551100    1.525310    1.956819
     33          6           0       -3.662881    1.262508    3.329814
     34          6           0       -3.373933    2.524168    4.036064
     35          6           0       -3.128789    3.443261    3.017724
     36          6           0       -3.282248    2.803048    1.754842
     37          6           0       -3.418357    2.719759    5.444682
     38          6           0       -2.797053    4.823238    2.702333
     39          8           0       -2.461394    5.807191    3.363138
     40          6           0       -3.024469    5.049324    1.142527
     41          6           0       -1.811228    5.757597    0.604287
     42          8           0       -0.700716    5.189222    0.571432
     43          8           0       -2.191444    6.893284   -0.000853
     44          6           0       -1.037968    7.630036   -0.582956
     45          1           0       -5.508242    0.875013   -3.819765
     46          1           0       -5.238462   -3.908143    0.178065
     47          1           0       -3.950600    0.030041    4.897315
     48          1           0       -4.190160    5.175492   -1.773952
     49          1           0       -4.601360    3.300264   -3.838385
     50          1           0       -6.384696    4.411347   -1.705056
     51          1           0       -6.807501    2.764819   -2.267594
     52          1           0       -6.771155    4.053060   -3.437934
     53          1           0       -2.278494    3.380613   -3.282346
     54          1           0       -1.610550    4.386295   -1.935153
     55          1           0       -3.133812    6.069509   -3.647889
     56          1           0       -2.446986    4.893555   -4.702998
     57          1           0       -5.332949   -0.768080   -5.128344
     58          1           0       -6.057385   -2.321876   -4.964264
     59          1           0       -4.306810   -2.241465   -5.290361
     60          1           0       -5.579475   -4.472124   -4.558280
     61          1           0       -4.646943   -5.960098   -3.971087
     62          1           0       -3.837925   -4.443284   -4.448260
     63          1           0       -4.578729   -4.191475    2.624480
     64          1           0       -5.495963   -2.151032    4.589997
     65          1           0       -6.704938   -4.848815    3.015032
     66          1           0       -7.251279   -3.371739    2.149877
     67          1           0       -7.081473   -3.340383    3.828316
     68          1           0       -3.884743   -4.014693    5.136852
     69          1           0       -3.406502   -2.425476    5.722955
     70          1           0       -2.419365   -4.085033    3.527935
     71          1           0       -1.452160   -3.193725    4.751363
     72          1           0       -2.191292   -2.356668    3.313403
     73          1           0       -2.537452    3.309199    5.698722
     74          1           0       -3.425385    1.768588    5.976498
     75          1           0       -4.359379    3.260585    5.543875
     76          1           0       -3.927753    5.650114    1.041284
     77          1           0       -1.053904    8.635461   -0.162125
     78          1           0       -1.122858    7.533216   -1.665465
     79          1           0       -0.046902    7.294111   -0.275905
     80         12           0        3.726543   -1.705595   -0.223873
     81          6           0        4.692573    1.738950    0.060630
     82          6           0        2.492402   -0.949327   -3.312492
     83          6           0        2.464494   -4.615046   -0.322729
     84          6           0        3.984674   -1.920343    3.244981
     85          7           0        3.660812    0.185885   -1.368533
     86          6           0        4.114038    1.416801   -1.184742
     87          6           0        4.009959    2.333600   -2.433022
     88          6           0        2.814359    1.574370   -3.189982
     89          6           0        3.016118    0.171704   -2.620325
     90          6           0        1.435413    2.063054   -2.778863
     91          6           0        5.325311    2.330141   -3.288513
     92          6           0        5.407746    3.433440   -4.345721
     93          1           0        6.709839    4.031396   -4.627637
     94          7           0        3.083465   -2.774762   -1.767218
     95          6           0        2.640343   -2.306979   -2.953005
     96          6           0        2.264711   -3.492869   -3.738333
     97          6           0        2.367317   -4.689352   -2.859353
     98          6           0        2.628047   -4.056487   -1.582016
     99          6           0        1.935115   -3.428960   -5.201450
    100          6           0        2.237866   -6.159157   -3.122262
    101          8           0        2.128427   -7.006943   -2.167213
    102          6           0        2.149093   -6.567711   -4.531756
    103          7           0        3.082030   -3.014013    1.257676
    104          6           0        2.623284   -4.238996    0.946395
    105          6           0        2.479372   -5.097411    2.180416
    106          6           0        3.169138   -4.269802    3.362312
    107          6           0        3.529189   -2.980580    2.591823
    108          6           0        1.047673   -5.455494    2.578427
    109          6           0        4.288336   -4.988393    4.164604
    110          6           0        5.492565   -5.216480    3.279611
    111          7           0        4.416677   -0.417065    1.367182
    112          6           0        4.412765   -0.694417    2.751790
    113          6           0        4.869872    0.529032    3.442173
    114          6           0        5.087744    1.447974    2.404598
    115          6           0        4.768306    0.846560    1.157294
    116          6           0        4.987017    0.694733    4.851056
    117          6           0        5.505178    2.793416    2.081719
    118          8           0        5.973510    3.734612    2.720893
    119          6           0        5.147179    3.082199    0.560262
    120          6           0        6.353576    3.700560   -0.091473
    121          8           0        7.403460    3.047723   -0.226209
    122          8           0        6.003011    4.877994   -0.640222
    123          6           0        7.163724    5.524640   -1.308343
    124          1           0        1.873130   -0.772891   -4.192413
    125          1           0        2.136341   -5.656960   -0.308065
    126          1           0        4.185608   -1.937816    4.318284
    127          1           0        3.725644    3.357549   -2.222163
    128          1           0        2.965428    1.574146   -4.266333
    129          1           0        1.483978    2.760715   -1.956031
    130          1           0        0.882962    1.177799   -2.492196
    131          1           0        0.909951    2.479544   -3.643010
    132          1           0        5.327020    1.446079   -3.939025
    133          1           0        6.191028    2.369953   -2.656400
    134          1           0        4.652915    4.213253   -4.187411
    135          1           0        5.149578    3.003685   -5.316641
    136          1           0        1.781318   -2.395074   -5.534355
    137          1           0        0.956517   -3.904066   -5.329831
    138          1           0        2.666196   -3.952553   -5.821171
    139          1           0        1.292568   -6.083567   -4.994822
    140          1           0        2.151862   -7.659377   -4.520326
    141          1           0        3.038697   -6.204123   -5.058093
    142          1           0        3.001134   -6.038830    2.059620
    143          1           0        2.442240   -3.981063    4.135678
    144          1           0        0.872897   -6.545951    2.644886
    145          1           0        0.371878   -5.004931    1.863704
    146          1           0        0.708758   -5.025729    3.519516
    147          1           0        3.948776   -5.975704    4.487189
    148          1           0        4.597809   -4.448104    5.053038
    149          1           0        5.235162   -6.135553    2.744702
    150          1           0        6.390203   -5.347732    3.880498
    151          1           0        5.590565   -4.418075    2.534900
    152          1           0        5.924553    1.204964    5.027650
    153          1           0        4.950473   -0.261776    5.368270
    154          1           0        4.100805    1.303196    5.050221
    155          1           0        4.286570    3.752103    0.547674
    156          1           0        7.267123    6.523462   -0.873181
    157          1           0        6.954256    5.466992   -2.393033
    158          1           0        8.146451    5.108793   -1.119213
 ---------------------------------------------------------------------

 SCF Done:  E(RCAM-B3LYP) =  -4069.81159368     A.U. after   19 cycles

 Excitation energies and oscillator strengths:

 Excited State   1:      Singlet-A      1.6374 eV  757.20 nm  f=0.0045  <S**2>=0.000
     309 -> 315       -0.11330
     310 -> 316        0.11878
     311 -> 313       -0.47233
     312 -> 314        0.50067
 This state for optimization and/or second-order correction.
 Total Energy, E(TD-HF/TD-DFT) =  -4069.75141994
 Copying the excited state density for this state as the 1-particle RhoCI density.

 Excited State   2:      Singlet-A      1.7113 eV  724.51 nm  f=0.6761  <S**2>=0.000
     309 -> 315        0.13404
     310 -> 316        0.12502
     311 -> 313        0.49726
     312 -> 314        0.46913

 Excited State   3:      Singlet-A      2.1771 eV  569.49 nm  f=0.0102  <S**2>=0.000
     309 -> 313       -0.33773
     310 -> 314        0.55137
     311 -> 315        0.13764
     312 -> 316       -0.22626

 Excited State   4:      Singlet-A      2.1978 eV  564.13 nm  f=0.1574  <S**2>=0.000
     309 -> 313        0.54481
     310 -> 314        0.33145
     311 -> 315       -0.24202
     312 -> 316       -0.14885

 Excited State   5:      Singlet-A      2.2290 eV  556.23 nm  f=0.0000  <S**2>=0.000
     312 -> 313        0.70705

 The electronic state is 1-A.
 Alpha  occ. eigenvalues --  -46.87940 -46.87395 -19.26462 -19.26059 -19.19220
 Alpha  occ. eigenvalues --  -19.18906 -19.18868 -19.18496 -19.18279 -19.17710
 Alpha  occ. eigenvalues --  -14.42610 -14.42225 -14.41593 -14.41099 -14.39542
 Alpha  occ. eigenvalues --  -14.39093 -14.38724 -14.38318 -10.39271 -10.38784
 Alpha  occ. eigenvalues --  -10.35542 -10.35180 -10.34505 -10.33877 -10.31845
 Alpha  occ. eigenvalues --  -10.31572 -10.31526 -10.31084 -10.31018 -10.30753
 Alpha  occ. eigenvalues --  -10.30720 -10.30633 -10.30349 -10.30120 -10.30081
 Alpha  occ. eigenvalues --  -10.30047 -10.29921 -10.29765 -10.29620 -10.29393
 Alpha  occ. eigenvalues --  -10.29197 -10.29138 -10.28989 -10.28906 -10.28509
 Alpha  occ. eigenvalues --  -10.28500 -10.28416 -10.28331 -10.28121 -10.27924
 Alpha  occ. eigenvalues --  -10.27889 -10.27838 -10.27729 -10.27722 -10.27686
 Alpha  occ. eigenvalues --  -10.27641 -10.27565 -10.27556 -10.27421 -10.27376
 Alpha  occ. eigenvalues --  -10.27330 -10.27306 -10.27217 -10.27194 -10.27158
 Alpha  occ. eigenvalues --  -10.27055 -10.26646 -10.26535 -10.26473 -10.26414
 Alpha  occ. eigenvalues --  -10.26355 -10.26284 -10.26164 -10.25983 -10.25937
 Alpha  occ. eigenvalues --  -10.25689 -10.25596 -10.25556 -10.25531 -10.25170
 Alpha  occ. eigenvalues --  -10.24961 -10.24917 -10.24903 -10.24582 -10.24575
 Alpha  occ. eigenvalues --  -10.24416  -3.16682  -3.16145  -1.91563  -1.91151
 Alpha  occ. eigenvalues --   -1.91028  -1.90992  -1.90616  -1.90453  -1.16812
 Alpha  occ. eigenvalues --   -1.16352  -1.08738  -1.08307  -1.07300  -1.06831
 Alpha  occ. eigenvalues --   -1.06749  -1.06651  -1.04743  -1.04217  -1.03905
 Alpha  occ. eigenvalues --   -1.03396  -1.03371  -1.02776  -1.02551  -1.01840
 Alpha  occ. eigenvalues --   -0.92120  -0.91677  -0.89668  -0.89412  -0.89258
 Alpha  occ. eigenvalues --   -0.88860  -0.88429  -0.87997  -0.87992  -0.87847
 Alpha  occ. eigenvalues --   -0.87511  -0.87430  -0.87420  -0.86921  -0.85192
 Alpha  occ. eigenvalues --   -0.84736  -0.84084  -0.83652  -0.83106  -0.82834
 Alpha  occ. eigenvalues --   -0.82750  -0.82398  -0.81746  -0.81325  -0.80753
 Alpha  occ. eigenvalues --   -0.80182  -0.78944  -0.78407  -0.77396  -0.77124
 Alpha  occ. eigenvalues --   -0.76902  -0.76638  -0.76096  -0.75551  -0.75039
 Alpha  occ. eigenvalues --   -0.74559  -0.72918  -0.72435  -0.71823  -0.71301
 Alpha  occ. eigenvalues --   -0.70067  -0.69554  -0.69067  -0.68570  -0.67789
 Alpha  occ. eigenvalues --   -0.67442  -0.67345  -0.66980  -0.65490  -0.65008
 Alpha  occ. eigenvalues --   -0.64995  -0.64790  -0.64509  -0.64417  -0.64390
 Alpha  occ. eigenvalues --   -0.63969  -0.62456  -0.62009  -0.60582  -0.60119
 Alpha  occ. eigenvalues --   -0.59996  -0.59512  -0.59136  -0.58727  -0.58652
 Alpha  occ. eigenvalues --   -0.58155  -0.57736  -0.57452  -0.57227  -0.56981
 Alpha  occ. eigenvalues --   -0.56456  -0.56159  -0.55954  -0.55665  -0.55625
 Alpha  occ. eigenvalues --   -0.55488  -0.55212  -0.55001  -0.54685  -0.54242
 Alpha  occ. eigenvalues --   -0.54118  -0.53642  -0.53444  -0.53402  -0.53089
 Alpha  occ. eigenvalues --   -0.52992  -0.52930  -0.52889  -0.52652  -0.52603
 Alpha  occ. eigenvalues --   -0.52463  -0.52206  -0.52031  -0.51822  -0.51590
 Alpha  occ. eigenvalues --   -0.51413  -0.51348  -0.50931  -0.50735  -0.50316
 Alpha  occ. eigenvalues --   -0.50196  -0.50077  -0.49741  -0.49689  -0.49643
 Alpha  occ. eigenvalues --   -0.49372  -0.49277  -0.49242  -0.48926  -0.48790
 Alpha  occ. eigenvalues --   -0.48751  -0.48591  -0.48571  -0.48281  -0.48147
 Alpha  occ. eigenvalues --   -0.48098  -0.47863  -0.47447  -0.47357  -0.46965
 Alpha  occ. eigenvalues --   -0.46905  -0.46766  -0.46508  -0.46464  -0.46303
 Alpha  occ. eigenvalues --   -0.46301  -0.46039  -0.45969  -0.45822  -0.45538
 Alpha  occ. eigenvalues --   -0.45335  -0.44965  -0.44725  -0.44684  -0.44301
 Alpha  occ. eigenvalues --   -0.44277  -0.44243  -0.44227  -0.44164  -0.43858
 Alpha  occ. eigenvalues --   -0.43848  -0.43685  -0.43649  -0.43561  -0.43289
 Alpha  occ. eigenvalues --   -0.43179  -0.43118  -0.42857  -0.42819  -0.42663
 Alpha  occ. eigenvalues --   -0.42617  -0.42336  -0.42185  -0.41856  -0.41739
 Alpha  occ. eigenvalues --   -0.41733  -0.41372  -0.41297  -0.41212  -0.41073
 Alpha  occ. eigenvalues --   -0.40974  -0.40733  -0.40706  -0.40512  -0.40501
 Alpha  occ. eigenvalues --   -0.40452  -0.40246  -0.39998  -0.39598  -0.39232
 Alpha  occ. eigenvalues --   -0.38629  -0.38122  -0.38005  -0.37471  -0.37458
 Alpha  occ. eigenvalues --   -0.37425  -0.37026  -0.36937  -0.36884  -0.36502
 Alpha  occ. eigenvalues --   -0.36359  -0.35965  -0.34432  -0.33982  -0.33956
 Alpha  occ. eigenvalues --   -0.33570  -0.33333  -0.32909  -0.31438  -0.31181
 Alpha  occ. eigenvalues --   -0.31053  -0.30696  -0.30141  -0.29607  -0.29580
 Alpha  occ. eigenvalues --   -0.29448  -0.29081  -0.28916  -0.24227  -0.23756
 Alpha  occ. eigenvalues --   -0.21274  -0.20852
 Alpha virt. eigenvalues --   -0.08913  -0.08524  -0.01890  -0.01426  -0.00192
 Alpha virt. eigenvalues --    0.00219   0.02070   0.02369   0.02601   0.03591
 Alpha virt. eigenvalues --    0.04510   0.04847   0.05023   0.05473   0.05844

 Mulliken charges:
               1
     1  Mg   0.838486
     2  C   -0.003485
     3  C   -0.095737
     4  C   -0.044782
     5  C   -0.063655
     6  N   -0.256697
     7  C   -0.053222
     8  C   -0.013443
     9  C   -0.086900
    10  C    0.046016
    11  C    0.104801
    12  C    0.050346
    13  C   -0.071747
    14  H    0.034390
    15  N   -0.433331
    16  C    0.168404
    17  C   -0.178279
    18  C   -0.003524
    19  C    0.149441
    20  C    0.110466
    21  C    0.013824
    22  O   -0.247808
    23  C    0.062623
    24  N   -0.340900
    25  C    0.040964
    26  C   -0.028712
    27  C   -0.024174
    28  C    0.074644
    29  C    0.075981
    30  C    0.036732
    31  C   -0.012111
    32  N   -0.310750
    33  C    0.080793
    34  C   -0.169264
    35  C    0.008836
    36  C    0.083340
    37  C    0.127149
    38  C    0.046717
    39  O   -0.187029
    40  C   -0.005949
    41  C    0.213644
    42  O   -0.258539
    43  O   -0.304587
    44  C    0.157004
    45  H   -0.017926
    46  H   -0.015997
    47  H   -0.041315
    48  H    0.001524
    49  H   -0.005106
    50  H    0.025879
    51  H    0.016968
    52  H    0.016690
    53  H    0.010406
    54  H    0.045096
    55  H    0.019550
    56  H    0.016916
    57  H    0.005264
    58  H    0.027456
    59  H    0.037184
    60  H    0.037022
    61  H    0.037189
    62  H    0.029064
    63  H    0.017506
    64  H    0.009876
    65  H    0.023790
    66  H    0.012659
    67  H    0.004895
    68  H    0.006528
    69  H    0.004275
    70  H    0.012710
    71  H    0.019125
    72  H    0.030881
    73  H    0.048505
    74  H    0.009016
    75  H    0.046333
    76  H    0.035468
    77  H    0.044391
    78  H    0.045326
    79  H    0.054277
    80  Mg   0.837291
    81  C   -0.015141
    82  C   -0.088367
    83  C   -0.045130
    84  C   -0.065286
    85  N   -0.254774
    86  C   -0.046967
    87  C   -0.015166
    88  C   -0.092178
    89  C    0.046180
    90  C    0.109460
    91  C    0.062764
    92  C   -0.076948
    93  H    0.033823
    94  N   -0.423436
    95  C    0.162846
    96  C   -0.176063
    97  C   -0.007782
    98  C    0.151456
    99  C    0.100561
   100  C    0.015397
   101  O   -0.252799
   102  C    0.061694
   103  N   -0.350124
   104  C    0.036726
   105  C   -0.019757
   106  C   -0.034765
   107  C    0.089459
   108  C    0.072748
   109  C    0.034785
   110  C   -0.007397
   111  N   -0.324757
   112  C    0.079605
   113  C   -0.162429
   114  C    0.004374
   115  C    0.096110
   116  C    0.130783
   117  C    0.044625
   118  O   -0.186920
   119  C   -0.000687
   120  C    0.210403
   121  O   -0.252121
   122  O   -0.304626
   123  C    0.152377
   124  H   -0.022004
   125  H   -0.015402
   126  H   -0.041194
   127  H    0.001660
   128  H   -0.006901
   129  H    0.037387
   130  H    0.013632
   131  H    0.011876
   132  H    0.013149
   133  H    0.037529
   134  H    0.020178
   135  H    0.018401
   136  H    0.007177
   137  H    0.022368
   138  H    0.039070
   139  H    0.036336
   140  H    0.036107
   141  H    0.033393
   142  H    0.013822
   143  H    0.010963
   144  H    0.024235
   145  H    0.014597
   146  H    0.004049
   147  H    0.005531
   148  H    0.003172
   149  H    0.010807
   150  H    0.017454
   151  H    0.030503
   152  H    0.045619
   153  H    0.007243
   154  H    0.049684
   155  H    0.043327
   156  H    0.043512
   157  H    0.048481
   158  H    0.052987
 Sum of Mulliken charges =  -0.00000

 Dipole moment (field-independent basis, Debye):
    X=             -5.3907    Y=             -0.4895    Z=             -6.6621  Tot=              8.5839
 Quadrupole moment (field-independent basis, Debye-Ang):
   XX=           -527.6998   YY=           -541.8448   ZZ=           -452.0928
   XY=            -15.3718   XZ=             -4.4682   YZ=            -49.3041

 Normal termination of Gaussian 16 at Thu Sep  9 10:50:08 2021.
