 Gaussian 16, Revision A.03,
 Gaussian 16:  ES64L-G16RevA.03 25-Dec-2016

 -----------------------------------
 #p cam-b3lyp/Def2SVP td=(nstates=5)
 -----------------------------------

 --------------------------------
 TDDFT excited states in gaussian
 --------------------------------
 Symbolic Z-matrix:
 Charge =  0 Multiplicity = 1

                         Standard orientation:
 ---------------------------------------------------------------------
 Center     Atomic      Atomic             Coordinates (Angstroms)
 Number     Number       Type             X           Y           Z
 ---------------------------------------------------------------------
      1         12           0        8.097726    0.482037    0.931689
      2          6           0        8.534649   -2.415484   -1.123958
      3          6           0        9.262399    2.332804   -1.687713
      4          6           0        8.151380    2.991563    2.869735
      5          6           0        8.062444   -1.656835    3.682987
      6          7           0        8.778446   -0.084141   -1.097279
      7          6           0        8.840093   -1.221975   -1.781899
      8          6           0        9.187208   -1.019280   -3.287157
      9          6           0        9.930319    0.387748   -3.186874
     10          6           0        9.259618    0.928073   -1.936221
     11          6           0       11.428740    0.268310   -2.928082
     12          6           0        7.907845   -0.928747   -4.185357
     13          6           0        8.156040   -1.058439   -5.690991
     14          1           0        7.165421   -1.743422   -6.507582
     15          7           0        8.158044    2.414232    0.524461
     16          6           0        8.651887    2.990304   -0.597834
     17          6           0        8.468610    4.447153   -0.422670
     18          6           0        8.002128    4.682639    0.971975
     19          6           0        8.111715    3.357492    1.526371
     20          6           0        8.682465    5.441463   -1.522380
     21          6           0        7.542131    5.909557    1.693922
     22          8           0        7.402712    5.939030    2.964460
     23          6           0        7.341333    7.117893    0.873771
     24          7           0        8.325647    0.676163    2.997603
     25          6           0        8.252114    1.872832    3.590527
     26          6           0        8.160164    1.738641    5.081660
     27          6           0        7.940512    0.184072    5.372901
     28          6           0        8.031414   -0.343417    3.919710
     29          6           0        9.374917    2.239806    5.874892
     30          6           0        6.704598   -0.204403    6.222620
     31          6           0        5.437878    0.092822    5.451792
     32          7           0        8.088078   -1.665508    1.246333
     33          6           0        8.095534   -2.337337    2.477294
     34          6           0        8.195992   -3.778497    2.182280
     35          6           0        8.257096   -3.844297    0.791675
     36          6           0        8.224972   -2.526198    0.253275
     37          6           0        8.278787   -4.822509    3.145410
     38          6           0        8.366879   -4.720211   -0.363565
     39          8           0        8.338690   -5.940089   -0.532670
     40          6           0        8.673727   -3.824638   -1.644041
     41          6           0        7.742137   -4.264704   -2.740303
     42          8           0        6.511672   -4.078472   -2.647353
     43          8           0        8.459171   -4.615370   -3.818930
     44          6           0        7.593781   -5.034395   -4.953687
     45          1           0        9.831845    2.985296   -2.352488
     46          1           0        8.060003    3.823287    3.571392
     47          1           0        7.971794   -2.388975    4.487478
     48          1           0        9.861960   -1.767872   -3.702783
     49          1           0        9.709100    1.026635   -4.041630
     50          1           0       11.717235   -0.763208   -2.726434
     51          1           0       11.624759    0.895440   -2.058153
     52          1           0       11.999455    0.705856   -3.747603
     53          1           0        7.514328    0.087070   -4.149018
     54          1           0        7.167021   -1.667336   -3.877150
     55          1           0        9.154694   -1.443804   -5.898582
     56          1           0        8.156082   -0.058317   -6.124530
     57          1           0        9.181118    4.989967   -2.379143
     58          1           0        9.394238    6.178563   -1.151204
     59          1           0        7.756429    5.938163   -1.812344
     60          1           0        8.277132    7.375458    0.377293
     61          1           0        6.926893    7.870505    1.543595
     62          1           0        6.626218    6.892468    0.082101
     63          1           0        7.311946    2.298733    5.473133
     64          1           0        8.781469   -0.254070    5.910951
     65          1           0        9.130385    3.002107    6.615032
     66          1           0       10.113378    2.608202    5.163378
     67          1           0        9.938368    1.461202    6.388425
     68          1           0        6.670860    0.388542    7.135979
     69          1           0        6.692733   -1.256034    6.509292
     70          1           0        5.276078    1.152044    5.648518
     71          1           0        4.610598   -0.506088    5.834055
     72          1           0        5.589559   -0.019731    4.378102
     73          1           0        7.616538   -5.614062    2.794928
     74          1           0        7.987806   -4.471956    4.135382
     75          1           0        9.338557   -5.069622    3.084748
     76          1           0        9.718608   -3.994221   -1.902088
     77          1           0        7.910194   -6.035748   -5.245934
     78          1           0        7.659819   -4.244350   -5.701934
     79          1           0        6.543380   -5.210681   -4.719335
     80         12           0       -7.682905    0.450407   -0.797182
     81          6           0       -9.871384   -1.718003    1.043354
     82          6           0      -10.041326    2.888459   -0.438923
     83          6           0       -5.988592    2.244102   -2.792030
     84          6           0       -6.066859   -2.405647   -1.970671
     85          7           0       -9.659528    0.462591    0.195320
     86          6           0      -10.359824   -0.401038    0.915108
     87          6           0      -11.616325    0.201437    1.599051
     88          6           0      -11.857618    1.442222    0.608545
     89          6           0      -10.426979    1.640240    0.111810
     90          6           0      -12.734112    1.098437   -0.584308
     91          6           0      -11.326259    0.683663    3.063742
     92          6           0      -12.571556    0.996520    3.896282
     93          1           0      -12.548502    0.692481    5.324388
     94          7           0       -7.719271    2.410049   -1.108729
     95          6           0       -8.751947    3.250173   -0.887276
     96          6           0       -8.281003    4.582843   -1.295144
     97          6           0       -6.943036    4.433707   -1.929427
     98          6           0       -6.838607    2.989500   -1.988031
     99          6           0       -9.044369    5.841215   -0.999825
    100          6           0       -5.931256    5.426597   -2.415924
    101          8           0       -4.941402    5.074534   -3.150141
    102          6           0       -6.184848    6.836537   -2.085414
    103          7           0       -6.374311   -0.012808   -2.344881
    104          6           0       -5.729994    0.956060   -3.018737
    105          6           0       -4.641248    0.380985   -3.892988
    106          6           0       -4.528370   -1.160096   -3.480795
    107          6           0       -5.682956   -1.233608   -2.457610
    108          6           0       -4.871839    0.488840   -5.400160
    109          6           0       -3.126466   -1.672904   -3.051417
    110          6           0       -2.720312   -1.031304   -1.744215
    111          7           0       -7.781361   -1.669594   -0.392288
    112          6           0       -7.033338   -2.692598   -1.015182
    113          6           0       -7.532476   -3.979338   -0.488314
    114          6           0       -8.559999   -3.613791    0.394333
    115          6           0       -8.705460   -2.200179    0.400803
    116          6           0       -7.072149   -5.270313   -0.872530
    117          6           0       -9.561776   -4.102939    1.314050
    118          8           0       -9.850053   -5.204960    1.778996
    119          6           0      -10.540069   -2.904785    1.679779
    120          6           0      -10.719131   -2.890671    3.173185
    121          8           0       -9.759757   -2.635989    3.922406
    122          8           0      -12.031561   -2.964557    3.460329
    123          6           0      -12.260770   -2.942751    4.929615
    124          1           0      -10.807027    3.651588   -0.581141
    125          1           0       -5.304948    2.821803   -3.418420
    126          1           0       -5.549396   -3.336295   -2.213149
    127          1           0      -12.485404   -0.445451    1.603234
    128          1           0      -12.197839    2.320410    1.151129
    129          1           0      -12.953898    0.042214   -0.631662
    130          1           0      -12.176284    1.408352   -1.458274
    131          1           0      -13.641514    1.709040   -0.573779
    132          1           0      -10.868521    1.680648    3.028428
    133          1           0      -10.712667   -0.025879    3.583996
    134          1           0      -13.485525    0.603700    3.434438
    135          1           0      -12.719860    2.079084    3.905485
    136          1           0      -10.068034    5.623006   -0.671371
    137          1           0       -9.171077    6.369074   -1.951239
    138          1           0       -8.522031    6.496120   -0.299162
    139          1           0       -7.147609    7.135497   -2.493047
    140          1           0       -5.308289    7.382087   -2.440231
    141          1           0       -6.260627    6.932460   -0.996529
    142          1           0       -3.692805    0.866904   -3.699454
    143          1           0       -4.802728   -1.825487   -4.312551
    144          1           0       -4.058111    1.019779   -5.929326
    145          1           0       -5.819542    0.983734   -5.565923
    146          1           0       -5.013600   -0.460017   -5.914722
    147          1           0       -2.374141   -1.379978   -3.787869
    148          1           0       -3.073889   -2.751661   -2.948923
    149          1           0       -2.311440   -0.066615   -2.059344
    150          1           0       -1.967274   -1.633312   -1.239684
    151          1           0       -3.595816   -0.828981   -1.116346
    152          1           0       -6.974200   -5.849133    0.036241
    153          1           0       -6.128673   -5.211926   -1.411251
    154          1           0       -7.895138   -5.586381   -1.519094
    155          1           0      -11.480971   -3.078633    1.156268
    156          1           0      -12.843209   -3.836079    5.175413
    157          1           0      -12.726621   -1.962729    5.144791
    158          1           0      -11.398155   -3.068955    5.573372
 ---------------------------------------------------------------------

 SCF Done:  E(RCAM-B3LYP) =  -4069.81185703     A.U. after   19 cycles

 Excitation energies and oscillator strengths:

 Excited State   1:      Singlet-A      1.6695 eV  742.63 nm  f=0.0197  <S**2>=0.000
     309 -> 315       -0.10265
     310 -> 316        0.13849
     311 -> 314       -0.40722
     312 -> 313        0.55252
 This state for optimization and/or second-order correction.
 Total Energy, E(TD-HF/TD-DFT) =  -4069.75050317
 Copying the excited state density for this state as the 1-particle RhoCI density.

 Excited State   2:      Singlet-A      1.6852 eV  735.73 nm  f=0.7371  <S**2>=0.000
     309 -> 315        0.14248
     310 -> 316        0.10443
     311 -> 314        0.55170
     312 -> 313        0.40670

 Excited State   3:      Singlet-A      2.1855 eV  567.31 nm  f=0.0855  <S**2>=0.000
     310 -> 313        0.63719
     312 -> 316       -0.27042

 Excited State   4:      Singlet-A      2.1929 eV  565.38 nm  f=0.1129  <S**2>=0.000
     309 -> 314        0.63531
     311 -> 315       -0.27609

 Excited State   5:      Singlet-A      2.8037 eV  442.21 nm  f=0.0000  <S**2>=0.000
     312 -> 314        0.70703

 The electronic state is 1-A.
 Alpha  occ. eigenvalues --  -46.87732 -46.87584 -19.26290 -19.26258 -19.19097
 Alpha  occ. eigenvalues --  -19.18992 -19.18743 -19.18661 -19.18115 -19.17981
 Alpha  occ. eigenvalues --  -14.42425 -14.42388 -14.41384 -14.41278 -14.39338
 Alpha  occ. eigenvalues --  -14.39279 -14.38524 -14.38523 -10.39049 -10.39027
 Alpha  occ. eigenvalues --  -10.35376 -10.35340 -10.34336 -10.34158 -10.31702
 Alpha  occ. eigenvalues --  -10.31663 -10.31346 -10.31235 -10.30958 -10.30850
 Alpha  occ. eigenvalues --  -10.30507 -10.30442 -10.30320 -10.30283 -10.30137
 Alpha  occ. eigenvalues --  -10.30058 -10.29855 -10.29810 -10.29565 -10.29364
 Alpha  occ. eigenvalues --  -10.29326 -10.29187 -10.28701 -10.28660 -10.28605
 Alpha  occ. eigenvalues --  -10.28508 -10.28335 -10.28303 -10.28081 -10.28065
 Alpha  occ. eigenvalues --  -10.27927 -10.27729 -10.27665 -10.27598 -10.27518
 Alpha  occ. eigenvalues --  -10.27425 -10.27412 -10.27412 -10.27411 -10.27403
 Alpha  occ. eigenvalues --  -10.27395 -10.27377 -10.27344 -10.27280 -10.27110
 Alpha  occ. eigenvalues --  -10.26984 -10.26667 -10.26637 -10.26378 -10.26332
 Alpha  occ. eigenvalues --  -10.26184 -10.26095 -10.25972 -10.25969 -10.25951
 Alpha  occ. eigenvalues --  -10.25846 -10.25775 -10.25751 -10.25367 -10.25324
 Alpha  occ. eigenvalues --  -10.24799 -10.24770 -10.24723 -10.24614 -10.24588
 Alpha  occ. eigenvalues --  -10.24543  -3.16475  -3.16334  -1.91357  -1.91216
 Alpha  occ. eigenvalues --   -1.90943  -1.90805  -1.90785  -1.90642  -1.16606
 Alpha  occ. eigenvalues --   -1.16583  -1.08588  -1.08575  -1.07144  -1.06915
 Alpha  occ. eigenvalues --   -1.06882  -1.06613  -1.04520  -1.04424  -1.03696
 Alpha  occ. eigenvalues --   -1.03588  -1.03169  -1.02960  -1.02347  -1.02035
 Alpha  occ. eigenvalues --   -0.91915  -0.91914  -0.89448  -0.89395  -0.89137
 Alpha  occ. eigenvalues --   -0.89088  -0.88216  -0.88119  -0.87806  -0.87712
 Alpha  occ. eigenvalues --   -0.87612  -0.87610  -0.87205  -0.87058  -0.84935
 Alpha  occ. eigenvalues --   -0.84928  -0.83864  -0.83768  -0.82894  -0.82865
 Alpha  occ. eigenvalues --   -0.82592  -0.82586  -0.81538  -0.81525  -0.80540
 Alpha  occ. eigenvalues --   -0.80373  -0.78730  -0.78565  -0.77155  -0.77069
 Alpha  occ. eigenvalues --   -0.76882  -0.76820  -0.75871  -0.75771  -0.74833
 Alpha  occ. eigenvalues --   -0.74717  -0.72710  -0.72619  -0.71612  -0.71509
 Alpha  occ. eigenvalues --   -0.69829  -0.69633  -0.68817  -0.68760  -0.67580
 Alpha  occ. eigenvalues --   -0.67530  -0.67166  -0.67141  -0.65233  -0.65205
 Alpha  occ. eigenvalues --   -0.64796  -0.64691  -0.64580  -0.64563  -0.64200
 Alpha  occ. eigenvalues --   -0.64104  -0.62252  -0.62205  -0.60373  -0.60269
 Alpha  occ. eigenvalues --   -0.59749  -0.59730  -0.58926  -0.58915  -0.58443
 Alpha  occ. eigenvalues --   -0.58349  -0.57536  -0.57484  -0.57245  -0.57155
 Alpha  occ. eigenvalues --   -0.56248  -0.56130  -0.55938  -0.55821  -0.55457
 Alpha  occ. eigenvalues --   -0.55390  -0.55278  -0.55157  -0.54468  -0.54396
 Alpha  occ. eigenvalues --   -0.53851  -0.53844  -0.53234  -0.53165  -0.53152
 Alpha  occ. eigenvalues --   -0.53075  -0.52861  -0.52831  -0.52692  -0.52613
 Alpha  occ. eigenvalues --   -0.52358  -0.52262  -0.51850  -0.51796  -0.51599
 Alpha  occ. eigenvalues --   -0.51562  -0.51136  -0.51119  -0.50499  -0.50416
 Alpha  occ. eigenvalues --   -0.49959  -0.49913  -0.49853  -0.49772  -0.49456
 Alpha  occ. eigenvalues --   -0.49427  -0.49156  -0.49137  -0.49043  -0.49036
 Alpha  occ. eigenvalues --   -0.48540  -0.48491  -0.48395  -0.48383  -0.48291
 Alpha  occ. eigenvalues --   -0.48281  -0.47634  -0.47523  -0.47235  -0.47050
 Alpha  occ. eigenvalues --   -0.46733  -0.46626  -0.46504  -0.46489  -0.46295
 Alpha  occ. eigenvalues --   -0.46190  -0.46102  -0.46005  -0.45769  -0.45746
 Alpha  occ. eigenvalues --   -0.45133  -0.45122  -0.44522  -0.44447  -0.44442
 Alpha  occ. eigenvalues --   -0.44400  -0.44078  -0.44059  -0.44032  -0.43983
 Alpha  occ. eigenvalues --   -0.43961  -0.43878  -0.43475  -0.43444  -0.43326
 Alpha  occ. eigenvalues --   -0.43315  -0.42967  -0.42861  -0.42826  -0.42657
 Alpha  occ. eigenvalues --   -0.42587  -0.42453  -0.41943  -0.41862  -0.41644
 Alpha  occ. eigenvalues --   -0.41594  -0.41480  -0.41382  -0.41082  -0.40919
 Alpha  occ. eigenvalues --   -0.40810  -0.40756  -0.40664  -0.40623  -0.40503
 Alpha  occ. eigenvalues --   -0.40391  -0.40188  -0.40171  -0.39359  -0.39294
 Alpha  occ. eigenvalues --   -0.38401  -0.38258  -0.37701  -0.37591  -0.37252
 Alpha  occ. eigenvalues --   -0.37210  -0.37175  -0.37131  -0.36701  -0.36671
 Alpha  occ. eigenvalues --   -0.36138  -0.36134  -0.34223  -0.34177  -0.33796
 Alpha  occ. eigenvalues --   -0.33736  -0.33125  -0.33099  -0.31274  -0.31219
 Alpha  occ. eigenvalues --   -0.30973  -0.30900  -0.29975  -0.29885  -0.29383
 Alpha  occ. eigenvalues --   -0.29258  -0.29258  -0.29137  -0.24018  -0.23960
 Alpha  occ. eigenvalues --   -0.21063  -0.21041
 Alpha virt. eigenvalues --   -0.08719  -0.08710  -0.01684  -0.01608   0.00007
 Alpha virt. eigenvalues --    0.00034   0.02261   0.02283   0.03192   0.03313
 Alpha virt. eigenvalues --    0.04774   0.04798   0.05132   0.05229   0.06218

 Mulliken charges:
               1
     1  Mg   0.838783
     2  C   -0.003134
     3  C   -0.094113
     4  C   -0.045757
     5  C   -0.063875
     6  N   -0.256787
     7  C   -0.052559
     8  C   -0.013991
     9  C   -0.087022
    10  C    0.046317
    11  C    0.104820
    12  C    0.053475
    13  C   -0.071673
    14  H    0.035644
    15  N   -0.433138
    16  C    0.168481
    17  C   -0.177085
    18  C   -0.003903
    19  C    0.148748
    20  C    0.110167
    21  C    0.012442
    22  O   -0.249608
    23  C    0.062387
    24  N   -0.341154
    25  C    0.041263
    26  C   -0.028171
    27  C   -0.024010
    28  C    0.074876
    29  C    0.076195
    30  C    0.035105
    31  C   -0.004561
    32  N   -0.310436
    33  C    0.080368
    34  C   -0.169664
    35  C    0.008291
    36  C    0.082941
    37  C    0.127305
    38  C    0.046016
    39  O   -0.188585
    40  C   -0.005313
    41  C    0.212920
    42  O   -0.257433
    43  O   -0.304705
    44  C    0.157807
    45  H   -0.017656
    46  H   -0.016796
    47  H   -0.041368
    48  H    0.000845
    49  H   -0.004044
    50  H    0.025428
    51  H    0.016484
    52  H    0.016594
    53  H    0.011329
    54  H    0.043839
    55  H    0.017894
    56  H    0.018072
    57  H    0.005809
    58  H    0.026737
    59  H    0.039873
    60  H    0.037209
    61  H    0.035648
    62  H    0.031892
    63  H    0.016689
    64  H    0.009408
    65  H    0.023201
    66  H    0.012440
    67  H    0.004720
    68  H    0.006389
    69  H    0.004828
    70  H    0.008842
    71  H    0.018598
    72  H    0.028877
    73  H    0.047594
    74  H    0.009289
    75  H    0.045929
    76  H    0.035110
    77  H    0.042941
    78  H    0.046374
    79  H    0.053305
    80  Mg   0.837933
    81  C   -0.016942
    82  C   -0.087934
    83  C   -0.045537
    84  C   -0.064738
    85  N   -0.254552
    86  C   -0.049842
    87  C   -0.015067
    88  C   -0.090502
    89  C    0.045716
    90  C    0.114439
    91  C    0.062554
    92  C   -0.077828
    93  H    0.034806
    94  N   -0.423427
    95  C    0.162857
    96  C   -0.174799
    97  C   -0.007961
    98  C    0.152137
    99  C    0.099429
   100  C    0.015492
   101  O   -0.253509
   102  C    0.061267
   103  N   -0.350161
   104  C    0.037577
   105  C   -0.019728
   106  C   -0.035049
   107  C    0.089110
   108  C    0.073833
   109  C    0.034670
   110  C   -0.007928
   111  N   -0.324170
   112  C    0.078628
   113  C   -0.162803
   114  C    0.002197
   115  C    0.096356
   116  C    0.131373
   117  C    0.042487
   118  O   -0.187816
   119  C    0.000879
   120  C    0.211248
   121  O   -0.250921
   122  O   -0.305681
   123  C    0.152048
   124  H   -0.019914
   125  H   -0.015811
   126  H   -0.039816
   127  H   -0.000745
   128  H   -0.004459
   129  H    0.022394
   130  H    0.014375
   131  H    0.016085
   132  H    0.013933
   133  H    0.037730
   134  H    0.020704
   135  H    0.019506
   136  H    0.008646
   137  H    0.025846
   138  H    0.039631
   139  H    0.038112
   140  H    0.035936
   141  H    0.033978
   142  H    0.014450
   143  H    0.012381
   144  H    0.024738
   145  H    0.011287
   146  H    0.005644
   147  H    0.006686
   148  H    0.004579
   149  H    0.010542
   150  H    0.019974
   151  H    0.029416
   152  H    0.046288
   153  H    0.009230
   154  H    0.046781
   155  H    0.034886
   156  H    0.043838
   157  H    0.049398
   158  H    0.053605
 Sum of Mulliken charges =  -0.00000

 Dipole moment (field-independent basis, Debye):
    X=             -0.1117    Y=              6.9826    Z=             -3.1154  Tot=              7.6469
 Quadrupole moment (field-independent basis, Debye-Ang):
   XX=           -421.9716   YY=           -540.3906   ZZ=           -479.5419
   XY=            -24.3898   XZ=            -19.9554   YZ=              1.6187

 Normal termination of Gaussian 16 at Sat Sep 11 20:19:47 2021.
