 Gaussian 16, Revision A.03,
 Gaussian 16:  ES64L-G16RevA.03 25-Dec-2016

 -----------------------------------
 #p cam-b3lyp/Def2SVP td=(nstates=5)
 -----------------------------------

 --------------------------------
 TDDFT excited states in gaussian
 --------------------------------
 Symbolic Z-matrix:
 Charge =  0 Multiplicity = 1

                         Standard orientation:
 ---------------------------------------------------------------------
 Center     Atomic      Atomic             Coordinates (Angstroms)
 Number     Number       Type             X           Y           Z
 ---------------------------------------------------------------------
      1         12           0        4.180714   -0.258495    0.370081
      2          6           0        4.178174    2.857832   -1.390804
      3          6           0        4.686486    1.529393    3.232024
      4          6           0        4.639567   -3.009880    1.878708
      5          6           0        4.808677   -1.814937   -2.684229
      6          7           0        4.386798    1.913573    0.744648
      7          6           0        4.306903    3.006382   -0.008051
      8          6           0        4.296823    4.326771    0.818898
      9          6           0        5.022072    3.802841    2.138561
     10          6           0        4.647792    2.333572    2.054386
     11          6           0        6.541535    3.926282    2.088608
     12          6           0        2.844489    4.826546    1.123332
     13          6           0        2.743004    6.265541    1.637481
     14          1           0        1.601965    7.074034    1.235340
     15          7           0        4.117296   -0.689136    2.297093
     16          6           0        4.332202    0.166086    3.325537
     17          6           0        4.172227   -0.632398    4.559844
     18          6           0        4.034249   -2.061178    4.162798
     19          6           0        4.287701   -1.979188    2.747023
     20          6           0        4.113564   -0.027854    5.929090
     21          6           0        3.733662   -3.304741    4.938252
     22          8           0        3.888644   -4.471608    4.439276
     23          6           0        3.332287   -3.120983    6.344727
     24          7           0        4.873010   -2.124678   -0.258981
     25          6           0        4.919449   -3.163078    0.582775
     26          6           0        5.173618   -4.447816   -0.148514
     27          6           0        5.049753   -4.103694   -1.702859
     28          6           0        4.813126   -2.577518   -1.588548
     29          6           0        6.530193   -5.113775    0.120213
     30          6           0        4.047349   -4.945458   -2.531736
     31          6           0        2.633421   -4.642040   -2.089193
     32          7           0        4.275449    0.354074   -1.710022
     33          6           0        4.574774   -0.456217   -2.814788
     34          6           0        4.626448    0.425235   -3.995652
     35          6           0        4.368273    1.697814   -3.489951
     36          6           0        4.193985    1.620250   -2.078605
     37          6           0        4.943282    0.022477   -5.322994
     38          6           0        4.223489    3.108621   -3.810136
     39          8           0        4.175500    3.760357   -4.854373
     40          6           0        4.215388    3.933318   -2.447918
     41          6           0        3.064067    4.899802   -2.508564
     42          8           0        1.884997    4.490951   -2.510161
     43          8           0        3.520029    6.147031   -2.316056
     44          6           0        2.424006    7.152282   -2.334913
     45          1           0        5.078667    1.962504    4.154277
     46          1           0        4.698996   -3.996454    2.343011
     47          1           0        4.915700   -2.241899   -3.683080
     48          1           0        4.869480    5.143216    0.378549
     49          1           0        4.601386    4.250061    3.038972
     50          1           0        6.883911    4.235038    1.101000
     51          1           0        6.922289    2.933796    2.330455
     52          1           0        6.902700    4.586266    2.877758
     53          1           0        2.454661    4.292086    1.989615
     54          1           0        2.205093    4.710694    0.247502
     55          1           0        3.673158    6.811970    1.478933
     56          1           0        2.628792    6.233812    2.721062
     57          1           0        4.409320    1.020444    5.917047
     58          1           0        4.880373   -0.519569    6.527362
     59          1           0        3.138423   -0.164803    6.396718
     60          1           0        4.125484   -2.598644    6.880030
     61          1           0        3.071170   -4.111788    6.714825
     62          1           0        2.458246   -2.470034    6.380319
     63          1           0        4.429407   -5.199521    0.111325
     64          1           0        5.998058   -4.228262   -2.226189
     65          1           0        6.450411   -6.136572    0.489303
     66          1           0        7.080401   -4.486835    0.821289
     67          1           0        7.207867   -5.131110   -0.732942
     68          1           0        4.214945   -6.008712   -2.363366
     69          1           0        4.117171   -4.764486   -3.604408
     70          1           0        2.505222   -5.289865   -1.222752
     71          1           0        1.924765   -4.899151   -2.877172
     72          1           0        2.536716   -3.612643   -1.743540
     73          1           0        4.230227    0.528520   -5.973718
     74          1           0        4.881678   -1.059902   -5.433726
     75          1           0        5.964523    0.393494   -5.408257
     76          1           0        5.175755    4.444058   -2.384974
     77          1           0        2.679937    7.891999   -3.093564
     78          1           0        2.305051    7.500311   -1.308691
     79          1           0        1.457996    6.805327   -2.703404
     80         12           0       -3.694583   -1.071597   -0.145037
     81          6           0       -6.448544    1.210416    0.150220
     82          6           0       -1.649317    1.652799   -0.315849
     83          6           0       -1.305037   -3.033975   -0.856778
     84          6           0       -5.997513   -3.511062   -1.089056
     85          7           0       -4.113175    1.099291   -0.079395
     86          6           0       -5.191462    1.847886    0.097351
     87          6           0       -4.898982    3.358154    0.305035
     88          6           0       -3.471172    3.429392   -0.426512
     89          6           0       -3.026311    1.980802   -0.235874
     90          6           0       -3.571965    3.705815   -1.917411
     91          6           0       -4.786828    3.742136    1.822263
     92          6           0       -4.810313    5.245191    2.108665
     93          1           0       -5.468842    5.711630    3.325735
     94          7           0       -1.731978   -0.794512   -0.045096
     95          6           0       -1.071886    0.380909   -0.107995
     96          6           0        0.357081    0.045642   -0.008918
     97          6           0        0.495194   -1.435604   -0.048182
     98          6           0       -0.870083   -1.819848   -0.345637
     99          6           0        1.424358    1.082585    0.188858
    100          6           0        1.665239   -2.353683    0.137044
    101          8           0        1.603108   -3.595144   -0.175623
    102          6           0        2.914297   -1.737153    0.607396
    103          7           0       -3.625877   -2.932047   -1.070416
    104          6           0       -2.463114   -3.592973   -1.208499
    105          6           0       -2.694998   -5.018609   -1.649166
    106          6           0       -4.274056   -5.249223   -1.544380
    107          6           0       -4.710418   -3.827296   -1.128338
    108          6           0       -2.223193   -5.363421   -3.061566
    109          6           0       -4.754325   -6.450837   -0.685233
    110          6           0       -4.437982   -6.202470    0.772037
    111          7           0       -5.847448   -1.220664   -0.249919
    112          6           0       -6.605192   -2.324840   -0.697925
    113          6           0       -8.023118   -1.910243   -0.693816
    114          6           0       -7.989588   -0.575665   -0.262229
    115          6           0       -6.643945   -0.179753   -0.034169
    116          6           0       -9.125602   -2.712500   -1.102495
    117          6           0       -8.785701    0.591510    0.042111
    118          8           0       -9.991318    0.825683    0.115435
    119          6           0       -7.813492    1.838832    0.201427
    120          6           0       -8.200573    2.572137    1.456394
    121          8           0       -8.063886    2.035260    2.569805
    122          8           0       -8.461560    3.856829    1.153358
    123          6           0       -8.839450    4.627805    2.367691
    124          1           0       -0.946008    2.433645   -0.606592
    125          1           0       -0.527390   -3.784863   -1.014618
    126          1           0       -6.784788   -4.244444   -1.276201
    127          1           0       -5.599226    4.027395   -0.180292
    128          1           0       -2.796064    4.106723    0.090039
    129          1           0       -4.595437    3.691413   -2.261542
    130          1           0       -2.999283    2.925111   -2.400719
    131          1           0       -3.067290    4.644959   -2.161632
    132          1           0       -3.778026    3.498514    2.179642
    133          1           0       -5.549432    3.252899    2.396480
    134          1           0       -5.149967    5.824746    1.241661
    135          1           0       -3.784155    5.583432    2.271822
    136          1           0        1.039356    2.094675    0.013194
    137          1           0        2.166231    0.932940   -0.603032
    138          1           0        1.920057    0.997268    1.158227
    139          1           0        3.221974   -0.964707   -0.093410
    140          1           0        3.608055   -2.565404    0.764165
    141          1           0        2.719288   -1.236252    1.562221
    142          1           0       -2.193584   -5.714290   -0.987571
    143          1           0       -4.724172   -5.440415   -2.529611
    144          1           0       -1.504117   -6.203825   -3.088547
    145          1           0       -1.787983   -4.476285   -3.502161
    146          1           0       -3.016084   -5.606486   -3.766865
    147          1           0       -4.216257   -7.358549   -0.969292
    148          1           0       -5.814056   -6.659135   -0.788056
    149          1           0       -3.392477   -6.514308    0.854234
    150          1           0       -5.080758   -6.804114    1.411501
    151          1           0       -4.482439   -5.132817    1.007667
    152          1           0       -9.908080   -2.562456   -0.370570
    153          1           0       -8.847285   -3.761554   -1.178714
    154          1           0       -9.335777   -2.271486   -2.080556
    155          1           0       -7.928945    2.459841   -0.687727
    156          1           0       -9.813770    5.083716    2.166333
    157          1           0       -7.993087    5.313170    2.561818
    158          1           0       -9.050604    4.067957    3.271256
 ---------------------------------------------------------------------

 SCF Done:  E(RCAM-B3LYP) =  -4069.51327438     A.U. after   20 cycles

 Excitation energies and oscillator strengths:

 Excited State   1:      Singlet-A      1.5562 eV  796.72 nm  f=0.2848  <S**2>=0.000
     309 -> 315        0.16038
     311 -> 313        0.67985
     309 <- 315        0.10271
 This state for optimization and/or second-order correction.
 Total Energy, E(TD-HF/TD-DFT) =  -4069.45608538
 Copying the excited state density for this state as the 1-particle RhoCI density.

 Excited State   2:      Singlet-A      1.6526 eV  750.22 nm  f=0.4781  <S**2>=0.000
     310 -> 316       -0.16047
     312 -> 314        0.68245

 Excited State   3:      Singlet-A      1.9446 eV  637.57 nm  f=0.0014  <S**2>=0.000
     312 -> 313        0.69420

 Excited State   4:      Singlet-A      2.1298 eV  582.14 nm  f=0.0295  <S**2>=0.000
     309 -> 313        0.61230
     310 -> 314       -0.16032
     311 -> 315       -0.27905

 Excited State   5:      Singlet-A      2.1849 eV  567.46 nm  f=0.1169  <S**2>=0.000
     309 -> 313        0.15115
     310 -> 314        0.61570
     312 -> 316        0.25556

 The electronic state is 1-A.
 Alpha  occ. eigenvalues --  -46.87286 -46.87122 -19.27208 -19.26141 -19.20083
 Alpha  occ. eigenvalues --  -19.19189 -19.19025 -19.18933 -19.18708 -19.17723
 Alpha  occ. eigenvalues --  -14.43045 -14.42111 -14.41003 -14.40903 -14.39295
 Alpha  occ. eigenvalues --  -14.39172 -14.38958 -14.38238 -10.40086 -10.38855
 Alpha  occ. eigenvalues --  -10.35634 -10.35371 -10.34823 -10.33907 -10.32511
 Alpha  occ. eigenvalues --  -10.32020 -10.31865 -10.31597 -10.30930 -10.30898
 Alpha  occ. eigenvalues --  -10.30863 -10.30621 -10.30428 -10.30359 -10.30020
 Alpha  occ. eigenvalues --  -10.29962 -10.29771 -10.29749 -10.29604 -10.29553
 Alpha  occ. eigenvalues --  -10.29436 -10.29336 -10.29032 -10.28985 -10.28893
 Alpha  occ. eigenvalues --  -10.28881 -10.28769 -10.28500 -10.28410 -10.28358
 Alpha  occ. eigenvalues --  -10.28252 -10.28077 -10.28015 -10.27994 -10.27689
 Alpha  occ. eigenvalues --  -10.27645 -10.27642 -10.27609 -10.27254 -10.27161
 Alpha  occ. eigenvalues --  -10.27145 -10.27125 -10.26987 -10.26984 -10.26847
 Alpha  occ. eigenvalues --  -10.26804 -10.26775 -10.26745 -10.26683 -10.26540
 Alpha  occ. eigenvalues --  -10.26516 -10.26449 -10.25955 -10.25907 -10.25574
 Alpha  occ. eigenvalues --  -10.25549 -10.25426 -10.25230 -10.24942 -10.24817
 Alpha  occ. eigenvalues --  -10.24709 -10.24502 -10.24500 -10.24391 -10.22561
 Alpha  occ. eigenvalues --  -10.21517  -3.17528  -3.16037  -1.92905  -1.91784
 Alpha  occ. eigenvalues --   -1.91628  -1.90919  -1.90508  -1.90344  -1.17575
 Alpha  occ. eigenvalues --   -1.16429  -1.09610  -1.08346  -1.07672  -1.07666
 Alpha  occ. eigenvalues --   -1.07397  -1.06716  -1.05801  -1.05081  -1.04137
 Alpha  occ. eigenvalues --   -1.04110  -1.03402  -1.03298  -1.02679  -1.01746
 Alpha  occ. eigenvalues --   -0.93042  -0.91633  -0.91216  -0.89951  -0.89185
 Alpha  occ. eigenvalues --   -0.88820  -0.88758  -0.88469  -0.88173  -0.87938
 Alpha  occ. eigenvalues --   -0.87681  -0.87446  -0.87299  -0.86814  -0.85755
 Alpha  occ. eigenvalues --   -0.84696  -0.84175  -0.83854  -0.83569  -0.83096
 Alpha  occ. eigenvalues --   -0.82630  -0.82390  -0.82211  -0.81384  -0.81264
 Alpha  occ. eigenvalues --   -0.80257  -0.79282  -0.78529  -0.77760  -0.77415
 Alpha  occ. eigenvalues --   -0.76870  -0.76605  -0.76537  -0.75506  -0.74777
 Alpha  occ. eigenvalues --   -0.74534  -0.73518  -0.72348  -0.72179  -0.71262
 Alpha  occ. eigenvalues --   -0.69662  -0.69497  -0.69411  -0.68864  -0.68398
 Alpha  occ. eigenvalues --   -0.67924  -0.67633  -0.67131  -0.66034  -0.65635
 Alpha  occ. eigenvalues --   -0.65239  -0.64983  -0.64563  -0.64410  -0.64177
 Alpha  occ. eigenvalues --   -0.63917  -0.62897  -0.62162  -0.61908  -0.61036
 Alpha  occ. eigenvalues --   -0.60139  -0.59874  -0.59483  -0.59239  -0.58813
 Alpha  occ. eigenvalues --   -0.58666  -0.58455  -0.58338  -0.57995  -0.57351
 Alpha  occ. eigenvalues --   -0.57250  -0.56960  -0.56801  -0.56187  -0.55847
 Alpha  occ. eigenvalues --   -0.55792  -0.55567  -0.55177  -0.54968  -0.54859
 Alpha  occ. eigenvalues --   -0.54584  -0.54265  -0.53922  -0.53699  -0.53653
 Alpha  occ. eigenvalues --   -0.53498  -0.53138  -0.52842  -0.52737  -0.52622
 Alpha  occ. eigenvalues --   -0.52530  -0.52260  -0.52201  -0.52065  -0.51958
 Alpha  occ. eigenvalues --   -0.51675  -0.51530  -0.50983  -0.50885  -0.50797
 Alpha  occ. eigenvalues --   -0.50676  -0.50460  -0.50041  -0.50003  -0.49806
 Alpha  occ. eigenvalues --   -0.49712  -0.49455  -0.49353  -0.49288  -0.48881
 Alpha  occ. eigenvalues --   -0.48804  -0.48685  -0.48503  -0.48389  -0.48196
 Alpha  occ. eigenvalues --   -0.48002  -0.47910  -0.47649  -0.47401  -0.47340
 Alpha  occ. eigenvalues --   -0.47058  -0.46794  -0.46733  -0.46415  -0.46357
 Alpha  occ. eigenvalues --   -0.46316  -0.46021  -0.45805  -0.45625  -0.45549
 Alpha  occ. eigenvalues --   -0.45483  -0.45128  -0.45001  -0.44907  -0.44824
 Alpha  occ. eigenvalues --   -0.44519  -0.44364  -0.44242  -0.44191  -0.44011
 Alpha  occ. eigenvalues --   -0.43961  -0.43826  -0.43732  -0.43514  -0.43296
 Alpha  occ. eigenvalues --   -0.43155  -0.42945  -0.42750  -0.42701  -0.42609
 Alpha  occ. eigenvalues --   -0.42501  -0.42316  -0.42126  -0.41720  -0.41596
 Alpha  occ. eigenvalues --   -0.41460  -0.41316  -0.41289  -0.41154  -0.41026
 Alpha  occ. eigenvalues --   -0.40749  -0.40652  -0.40490  -0.40395  -0.40203
 Alpha  occ. eigenvalues --   -0.40071  -0.39820  -0.39174  -0.38448  -0.38082
 Alpha  occ. eigenvalues --   -0.38057  -0.37636  -0.37534  -0.37378  -0.37057
 Alpha  occ. eigenvalues --   -0.36954  -0.36723  -0.36531  -0.36302  -0.36125
 Alpha  occ. eigenvalues --   -0.35835  -0.35317  -0.35000  -0.34575  -0.33880
 Alpha  occ. eigenvalues --   -0.33594  -0.33011  -0.32731  -0.31570  -0.31210
 Alpha  occ. eigenvalues --   -0.30986  -0.30648  -0.30428  -0.29637  -0.29486
 Alpha  occ. eigenvalues --   -0.29146  -0.28883  -0.28565  -0.24868  -0.23662
 Alpha  occ. eigenvalues --   -0.21720  -0.20726
 Alpha virt. eigenvalues --   -0.09561  -0.08424  -0.02937  -0.01393  -0.00609
 Alpha virt. eigenvalues --    0.00086   0.01517   0.02466   0.03471   0.03821
 Alpha virt. eigenvalues --    0.04030   0.04892   0.05091   0.05413   0.05972

 Mulliken charges:
               1
     1  Mg   0.405134
     2  C   -0.004209
     3  C   -0.088511
     4  C    0.016928
     5  C   -0.049476
     6  N   -0.237785
     7  C   -0.047908
     8  C   -0.013415
     9  C   -0.083381
    10  C    0.044261
    11  C    0.104221
    12  C    0.041368
    13  C   -0.069814
    14  H    0.035237
    15  N   -0.436026
    16  C    0.174555
    17  C   -0.183223
    18  C    0.009531
    19  C    0.076816
    20  C    0.111942
    21  C    0.010586
    22  O   -0.243710
    23  C    0.062552
    24  N   -0.346857
    25  C    0.102989
    26  C    0.008866
    27  C   -0.027403
    28  C    0.093243
    29  C    0.091706
    30  C    0.046687
    31  C    0.018195
    32  N   -0.307180
    33  C    0.099336
    34  C   -0.165893
    35  C    0.014080
    36  C    0.077340
    37  C    0.125827
    38  C    0.046482
    39  O   -0.182792
    40  C   -0.007404
    41  C    0.214330
    42  O   -0.262310
    43  O   -0.303115
    44  C    0.156743
    45  H   -0.016449
    46  H   -0.011351
    47  H   -0.037077
    48  H    0.001124
    49  H   -0.003656
    50  H    0.025825
    51  H    0.020260
    52  H    0.017993
    53  H    0.013793
    54  H    0.046627
    55  H    0.020321
    56  H    0.020518
    57  H    0.004291
    58  H    0.026889
    59  H    0.039313
    60  H    0.037421
    61  H    0.037689
    62  H    0.032178
    63  H    0.012253
    64  H    0.004930
    65  H    0.020553
    66  H    0.006373
    67  H   -0.000034
    68  H   -0.001865
    69  H   -0.010853
    70  H    0.017809
    71  H   -0.005772
    72  H    0.032527
    73  H    0.049445
    74  H    0.014945
    75  H    0.048674
    76  H    0.037570
    77  H    0.045967
    78  H    0.047489
    79  H    0.052287
    80  Mg   0.837558
    81  C   -0.016969
    82  C   -0.095664
    83  C   -0.050578
    84  C   -0.065403
    85  N   -0.254392
    86  C   -0.050273
    87  C   -0.015120
    88  C   -0.088976
    89  C    0.043900
    90  C    0.114587
    91  C    0.063018
    92  C   -0.076602
    93  H    0.032483
    94  N   -0.425228
    95  C    0.159677
    96  C   -0.179129
    97  C    0.060187
    98  C    0.150183
    99  C    0.093329
   100  C    0.062595
   101  O   -0.263778
   102  C    0.019861
   103  N   -0.350100
   104  C    0.035171
   105  C   -0.019529
   106  C   -0.034344
   107  C    0.088690
   108  C    0.072932
   109  C    0.034991
   110  C   -0.007481
   111  N   -0.323765
   112  C    0.077535
   113  C   -0.164180
   114  C    0.001878
   115  C    0.095454
   116  C    0.131684
   117  C    0.041597
   118  O   -0.189595
   119  C    0.001152
   120  C    0.211090
   121  O   -0.251753
   122  O   -0.305468
   123  C    0.152427
   124  H   -0.002074
   125  H   -0.016041
   126  H   -0.041656
   127  H   -0.001391
   128  H   -0.004895
   129  H    0.020102
   130  H    0.019411
   131  H    0.018625
   132  H    0.012684
   133  H    0.036856
   134  H    0.020881
   135  H    0.018034
   136  H    0.007295
   137  H    0.093997
   138  H    0.105913
   139  H   -0.002837
   140  H   -0.017897
   141  H    0.189931
   142  H    0.013702
   143  H    0.011762
   144  H    0.023725
   145  H    0.012351
   146  H    0.005412
   147  H    0.005187
   148  H    0.003219
   149  H    0.010873
   150  H    0.017187
   151  H    0.030512
   152  H    0.044926
   153  H    0.007683
   154  H    0.046245
   155  H    0.034817
   156  H    0.043344
   157  H    0.049000
   158  H    0.052921
 Sum of Mulliken charges =  -0.00000

 Dipole moment (field-independent basis, Debye):
    X=              5.9380    Y=              3.7078    Z=              2.4066  Tot=              7.4027
 Quadrupole moment (field-independent basis, Debye-Ang):
   XX=           -554.3801   YY=           -471.5097   ZZ=           -506.4958
   XY=             16.8968   XZ=             23.7551   YZ=             41.1498

 Normal termination of Gaussian 16 at Thu Sep  9 11:58:23 2021.
