 Gaussian 16, Revision A.03,
 Gaussian 16:  ES64L-G16RevA.03 25-Dec-2016

 -----------------------------------
 #p cam-b3lyp/Def2SVP td=(nstates=5)
 -----------------------------------

 --------------------------------
 TDDFT excited states in gaussian
 --------------------------------
 Symbolic Z-matrix:
 Charge =  0 Multiplicity = 1

                         Standard orientation:
 ---------------------------------------------------------------------
 Center     Atomic      Atomic             Coordinates (Angstroms)
 Number     Number       Type             X           Y           Z
 ---------------------------------------------------------------------
      1         12           0        3.303935   -1.742193    0.657600
      2          6           0        4.654690    1.312227   -0.630110
      3          6           0        4.046528   -0.580871    3.778970
      4          6           0        2.539000   -4.605274    1.786433
      5          6           0        3.716813   -3.095244   -2.527435
      6          7           0        4.230189    0.142956    1.356825
      7          6           0        4.648387    1.257664    0.765464
      8          6           0        5.008948    2.392313    1.770423
      9          6           0        5.318848    1.501160    3.055649
     10          6           0        4.453502    0.296477    2.730321
     11          6           0        6.773122    1.050619    3.148405
     12          6           0        3.808812    3.365526    2.023922
     13          6           0        4.168245    4.676093    2.730020
     14          1           0        3.458458    5.890236    2.356646
     15          7           0        2.840636   -2.314722    2.490743
     16          6           0        3.214933   -1.713822    3.645779
     17          6           0        2.619215   -2.517338    4.734890
     18          6           0        2.027180   -3.740877    4.126170
     19          6           0        2.473954   -3.613723    2.762497
     20          6           0        2.606268   -2.080157    6.167530
     21          6           0        1.200221   -4.854243    4.687140
     22          8           0        0.986502   -5.935714    4.039591
     23          6           0        0.714009   -4.680159    6.067840
     24          7           0        3.350716   -3.655854   -0.175075
     25          6           0        2.909753   -4.717117    0.509217
     26          6           0        2.775111   -5.920302   -0.376309
     27          6           0        2.986013   -5.395885   -1.869715
     28          6           0        3.303835   -3.912948   -1.556416
     29          6           0        3.752674   -7.070085   -0.096344
     30          6           0        1.863505   -5.709925   -2.890388
     31          6           0        0.610069   -4.946313   -2.525843
     32          7           0        3.881652   -0.997935   -1.297743
     33          6           0        4.008348   -1.742252   -2.479528
     34          6           0        4.527098   -0.827242   -3.512835
     35          6           0        4.682824    0.389600   -2.851859
     36          6           0        4.311329    0.237313   -1.485443
     37          6           0        4.845917   -1.179606   -4.853964
     38          6           0        5.099994    1.776818   -2.976165
     39          8           0        5.426081    2.503388   -3.915982
     40          6           0        5.214152    2.398607   -1.514600
     41          6           0        4.507758    3.726802   -1.529274
     42          8           0        3.271441    3.792160   -1.686164
     43          8           0        5.354345    4.685086   -1.122427
     44          6           0        4.707614    6.023947   -1.085783
     45          1           0        4.445841   -0.424311    4.782952
     46          1           0        2.177563   -5.584573    2.107017
     47          1           0        3.790646   -3.425292   -3.565254
     48          1           0        5.889585    2.975504    1.500625
     49          1           0        4.975392    1.977615    3.973663
     50          1           0        7.328532    1.309036    2.246929
     51          1           0        6.735066   -0.031514    3.275029
     52          1           0        7.242933    1.441608    4.051279
     53          1           0        3.143763    2.929509    2.769348
     54          1           0        3.289759    3.589103    1.091225
     55          1           0        5.245081    4.847357    2.728451
     56          1           0        3.911173    4.577461    3.784717
     57          1           0        3.259519   -1.223932    6.330889
     58          1           0        3.059480   -2.882506    6.749375
     59          1           0        1.595785   -1.889304    6.529234
     60          1           0        1.565929   -4.551610    6.735864
     61          1           0        0.067201   -5.533473    6.268704
     62          1           0        0.137293   -3.756553    6.125277
     63          1           0        1.782767   -6.360863   -0.289225
     64          1           0        3.884478   -5.811854   -2.326229
     65          1           0        3.261909   -8.020726    0.113742
     66          1           0        4.396526   -6.771266    0.730368
     67          1           0        4.482589   -7.251682   -0.884800
     68          1           0        1.612545   -6.769765   -2.863852
     69          1           0        2.132067   -5.458285   -3.916450
     70          1           0        0.145677   -5.584841   -1.775207
     71          1           0       -0.035320   -4.836022   -3.397921
     72          1           0        0.847794   -3.997460   -2.044542
     73          1           0        4.454305   -0.378770   -5.481077
     74          1           0        4.412477   -2.142270   -5.124169
     75          1           0        5.934050   -1.211678   -4.801091
     76          1           0        6.277356    2.502733   -1.300411
     77          1           0        5.309211    6.688105   -1.706435
     78          1           0        4.590718    6.282910   -0.033320
     79          1           0        3.737861    6.104474   -1.578158
     80         12           0       -4.203539    0.519929   -0.623273
     81          6           0       -1.323844    2.657649   -0.494496
     82          6           0       -5.525072    2.398040    1.898797
     83          6           0       -6.548365   -1.606198   -0.402468
     84          6           0       -2.221747   -1.817442   -2.283057
     85          7           0       -3.428815    2.275827    0.476231
     86          6           0       -2.348808    3.038433    0.396497
     87          6           0       -2.403195    4.323423    1.265640
     88          6           0       -3.468629    3.828309    2.360441
     89          6           0       -4.216137    2.792558    1.523108
     90          6           0       -2.830836    3.116962    3.542195
     91          6           0       -2.935699    5.563899    0.465849
     92          6           0       -2.725219    6.913074    1.156641
     93          1           0       -2.430251    8.079934    0.329658
     94          7           0       -5.999429    0.670307    0.207833
     95          6           0       -6.367544    1.501812    1.205014
     96          6           0       -7.785059    1.210301    1.469287
     97          6           0       -8.179070    0.025256    0.659879
     98          6           0       -6.890579   -0.370827    0.127896
     99          6           0       -8.641970    2.070776    2.351736
    100          6           0       -9.495452   -0.648605    0.416497
    101          8           0       -9.568762   -1.805279   -0.130828
    102          6           0      -10.689781    0.043784    0.922133
    103          7           0       -4.312154   -1.509799   -1.060024
    104          6           0       -5.466531   -2.185548   -0.923331
    105          6           0       -5.375281   -3.554456   -1.554342
    106          6           0       -3.992972   -3.565552   -2.358509
    107          6           0       -3.458764   -2.171501   -1.962739
    108          6           0       -5.410095   -4.736851   -0.586291
    109          6           0       -4.059118   -3.930921   -3.866758
    110          6           0       -4.786220   -2.846654   -4.629038
    111          7           0       -2.205918    0.478335   -1.445370
    112          6           0       -1.565297   -0.611080   -2.075325
    113          6           0       -0.177125   -0.194047   -2.360784
    114          6           0       -0.099092    1.111280   -1.852333
    115          6           0       -1.344298    1.474278   -1.271664
    116          6           0        0.826262   -1.001767   -2.966532
    117          6           0        0.756710    2.260771   -1.665314
    118          8           0        1.891657    2.567047   -2.028393
    119          6           0        0.040099    3.266918   -0.665059
    120          6           0        0.121801    4.647315   -1.256954
    121          8           0       -0.473614    4.917678   -2.314778
    122          8           0        0.705466    5.473379   -0.369645
    123          6           0        0.799190    6.857043   -0.906773
    124          1           0       -5.932277    2.777454    2.836416
    125          1           0       -7.357007   -2.339223   -0.450123
    126          1           0       -1.570077   -2.453486   -2.885923
    127          1           0       -1.469092    4.585547    1.747839
    128          1           0       -4.135936    4.634163    2.654835
    129          1           0       -1.773310    2.956966    3.393220
    130          1           0       -3.348020    2.170454    3.629852
    131          1           0       -3.039864    3.661434    4.467490
    132          1           0       -4.032659    5.532541    0.445113
    133          1           0       -2.512305    5.592403   -0.519314
    134          1           0       -2.015438    6.843237    1.989873
    135          1           0       -3.664381    7.211402    1.628852
    136          1           0       -8.037075    2.772679    2.938969
    137          1           0       -9.094736    1.410792    3.099580
    138          1           0       -9.436699    2.578738    1.801221
    139          1           0      -10.597229    0.185815    1.996256
    140          1           0      -11.539333   -0.547089    0.574286
    141          1           0      -10.730389    1.043241    0.474867
    142          1           0       -6.188698   -3.713925   -2.251484
    143          1           0       -3.287293   -4.301344   -1.945647
    144          1           0       -6.224661   -5.453779   -0.802092
    145          1           0       -5.499824   -4.351151    0.420543
    146          1           0       -4.489646   -5.315550   -0.530836
    147          1           0       -4.634050   -4.849259   -4.009099
    148          1           0       -3.084334   -4.088314   -4.316209
    149          1           0       -5.839105   -3.105594   -4.482470
    150          1           0       -4.516413   -2.872511   -5.682879
    151          1           0       -4.621288   -1.864810   -4.170308
    152          1           0        1.336455   -0.376341   -3.686978
    153          1           0        0.396257   -1.883051   -3.437925
    154          1           0        1.426849   -1.257196   -2.089427
    155          1           0        0.557648    3.200882    0.292730
    156          1           0        1.852753    7.148790   -0.855986
    157          1           0        0.081516    7.456291   -0.315507
    158          1           0        0.590468    7.000871   -1.960432
 ---------------------------------------------------------------------

 SCF Done:  E(RCAM-B3LYP) =  -4069.74371228     A.U. after   19 cycles

 Excitation energies and oscillator strengths:

 Excited State   1:      Singlet-A      1.6204 eV  765.17 nm  f=0.2208  <S**2>=0.000
     309 -> 315       -0.11110
     310 -> 316        0.11444
     311 -> 313       -0.48188
     312 -> 314        0.49035
 This state for optimization and/or second-order correction.
 Total Energy, E(TD-HF/TD-DFT) =  -4069.68416542
 Copying the excited state density for this state as the 1-particle RhoCI density.

 Excited State   2:      Singlet-A      1.7116 eV  724.36 nm  f=0.5378  <S**2>=0.000
     309 -> 315        0.13015
     310 -> 316        0.12590
     311 -> 313        0.47760
     312 -> 314        0.47236

 Excited State   3:      Singlet-A      2.1632 eV  573.16 nm  f=0.0112  <S**2>=0.000
     309 -> 313        0.50818
     310 -> 314       -0.27575
     311 -> 315       -0.21249
     312 -> 313        0.28934
     312 -> 316        0.11080

 Excited State   4:      Singlet-A      2.1948 eV  564.90 nm  f=0.0962  <S**2>=0.000
     309 -> 313        0.14440
     310 -> 314        0.54600
     312 -> 313        0.31383
     312 -> 316       -0.24124

 Excited State   5:      Singlet-A      2.2161 eV  559.47 nm  f=0.0486  <S**2>=0.000
     309 -> 313       -0.34945
     310 -> 314       -0.16775
     311 -> 315        0.15461
     312 -> 313        0.55174

 The electronic state is 1-A.
 Alpha  occ. eigenvalues --  -46.87607 -46.87184 -19.25894 -19.25011 -19.18632
 Alpha  occ. eigenvalues --  -19.18522 -19.18265 -19.17630 -19.16253 -19.15654
 Alpha  occ. eigenvalues --  -14.42247 -14.42068 -14.41304 -14.40879 -14.39188
 Alpha  occ. eigenvalues --  -14.38858 -14.38407 -14.38069 -10.38496 -10.37219
 Alpha  occ. eigenvalues --  -10.35272 -10.34954 -10.33834 -10.32532 -10.31616
 Alpha  occ. eigenvalues --  -10.31175 -10.31147 -10.30799 -10.30659 -10.30625
 Alpha  occ. eigenvalues --  -10.30301 -10.30267 -10.30110 -10.29843 -10.29778
 Alpha  occ. eigenvalues --  -10.29762 -10.29725 -10.29375 -10.29364 -10.29060
 Alpha  occ. eigenvalues --  -10.29017 -10.28831 -10.28516 -10.28482 -10.28419
 Alpha  occ. eigenvalues --  -10.28392 -10.28086 -10.27907 -10.27854 -10.27833
 Alpha  occ. eigenvalues --  -10.27522 -10.27517 -10.27515 -10.27408 -10.27353
 Alpha  occ. eigenvalues --  -10.27346 -10.27328 -10.27222 -10.27148 -10.27076
 Alpha  occ. eigenvalues --  -10.27065 -10.27003 -10.26970 -10.26923 -10.26525
 Alpha  occ. eigenvalues --  -10.26466 -10.26420 -10.26373 -10.26315 -10.26276
 Alpha  occ. eigenvalues --  -10.26061 -10.26040 -10.25877 -10.25867 -10.25834
 Alpha  occ. eigenvalues --  -10.25638 -10.25470 -10.25377 -10.25086 -10.24998
 Alpha  occ. eigenvalues --  -10.24982 -10.24588 -10.24513 -10.24463 -10.24181
 Alpha  occ. eigenvalues --  -10.24174  -3.16367  -3.15936  -1.91250  -1.90834
 Alpha  occ. eigenvalues --   -1.90818  -1.90676  -1.90407  -1.90241  -1.16104
 Alpha  occ. eigenvalues --   -1.15361  -1.08109  -1.07817  -1.07039  -1.06528
 Alpha  occ. eigenvalues --   -1.06364  -1.04664  -1.04349  -1.04025  -1.03579
 Alpha  occ. eigenvalues --   -1.03177  -1.03028  -1.02534  -1.02212  -1.01596
 Alpha  occ. eigenvalues --   -0.91585  -0.91400  -0.89445  -0.89049  -0.88969
 Alpha  occ. eigenvalues --   -0.88827  -0.88192  -0.87797  -0.87639  -0.87482
 Alpha  occ. eigenvalues --   -0.87261  -0.87152  -0.87073  -0.86647  -0.84771
 Alpha  occ. eigenvalues --   -0.84627  -0.83896  -0.83474  -0.82819  -0.82518
 Alpha  occ. eigenvalues --   -0.82397  -0.82267  -0.81162  -0.81124  -0.80274
 Alpha  occ. eigenvalues --   -0.79980  -0.78579  -0.78123  -0.77092  -0.76759
 Alpha  occ. eigenvalues --   -0.76701  -0.76524  -0.75608  -0.75421  -0.74741
 Alpha  occ. eigenvalues --   -0.74380  -0.72570  -0.72197  -0.71438  -0.71146
 Alpha  occ. eigenvalues --   -0.69967  -0.69398  -0.68659  -0.68440  -0.67397
 Alpha  occ. eigenvalues --   -0.67144  -0.67022  -0.66830  -0.65082  -0.64937
 Alpha  occ. eigenvalues --   -0.64643  -0.64392  -0.64302  -0.64232  -0.64128
 Alpha  occ. eigenvalues --   -0.63807  -0.61941  -0.61770  -0.60266  -0.59891
 Alpha  occ. eigenvalues --   -0.59588  -0.59448  -0.58774  -0.58541  -0.58243
 Alpha  occ. eigenvalues --   -0.57970  -0.57513  -0.57236  -0.56896  -0.56748
 Alpha  occ. eigenvalues --   -0.56091  -0.55905  -0.55667  -0.55407  -0.55372
 Alpha  occ. eigenvalues --   -0.55178  -0.55123  -0.54930  -0.54406  -0.54051
 Alpha  occ. eigenvalues --   -0.53709  -0.53559  -0.53431  -0.53092  -0.52948
 Alpha  occ. eigenvalues --   -0.52802  -0.52732  -0.52595  -0.52465  -0.52445
 Alpha  occ. eigenvalues --   -0.52283  -0.52008  -0.51616  -0.51386  -0.51290
 Alpha  occ. eigenvalues --   -0.51231  -0.50916  -0.50674  -0.50444  -0.50084
 Alpha  occ. eigenvalues --   -0.50049  -0.49866  -0.49712  -0.49578  -0.49410
 Alpha  occ. eigenvalues --   -0.49214  -0.49074  -0.48883  -0.48777  -0.48575
 Alpha  occ. eigenvalues --   -0.48559  -0.48324  -0.48145  -0.48066  -0.47927
 Alpha  occ. eigenvalues --   -0.47459  -0.47316  -0.47057  -0.46927  -0.46735
 Alpha  occ. eigenvalues --   -0.46591  -0.46325  -0.46280  -0.46195  -0.46158
 Alpha  occ. eigenvalues --   -0.45828  -0.45740  -0.45522  -0.45422  -0.45131
 Alpha  occ. eigenvalues --   -0.44874  -0.44626  -0.44397  -0.44218  -0.44139
 Alpha  occ. eigenvalues --   -0.43948  -0.43909  -0.43816  -0.43773  -0.43645
 Alpha  occ. eigenvalues --   -0.43463  -0.43356  -0.43232  -0.43084  -0.43044
 Alpha  occ. eigenvalues --   -0.42887  -0.42699  -0.42652  -0.42485  -0.42345
 Alpha  occ. eigenvalues --   -0.42140  -0.41858  -0.41604  -0.41414  -0.41352
 Alpha  occ. eigenvalues --   -0.41138  -0.40992  -0.40927  -0.40804  -0.40682
 Alpha  occ. eigenvalues --   -0.40582  -0.40394  -0.40360  -0.40333  -0.40100
 Alpha  occ. eigenvalues --   -0.40038  -0.39921  -0.39592  -0.39488  -0.39072
 Alpha  occ. eigenvalues --   -0.38399  -0.37970  -0.37545  -0.37344  -0.37166
 Alpha  occ. eigenvalues --   -0.37036  -0.36855  -0.36754  -0.36275  -0.36172
 Alpha  occ. eigenvalues --   -0.35779  -0.35033  -0.34087  -0.33756  -0.33259
 Alpha  occ. eigenvalues --   -0.33039  -0.32694  -0.31409  -0.31114  -0.30833
 Alpha  occ. eigenvalues --   -0.30522  -0.30227  -0.29464  -0.29214  -0.29000
 Alpha  occ. eigenvalues --   -0.28810  -0.28426  -0.25779  -0.23814  -0.23545
 Alpha  occ. eigenvalues --   -0.20903  -0.20602
 Alpha virt. eigenvalues --   -0.08528  -0.08244  -0.01586  -0.01253   0.00172
 Alpha virt. eigenvalues --    0.00480   0.02543   0.02611   0.03233   0.03787
 Alpha virt. eigenvalues --    0.04853   0.05088   0.05821   0.06078   0.06494

 Mulliken charges:
               1
     1  Mg   0.825183
     2  C   -0.000926
     3  C   -0.093914
     4  C   -0.047402
     5  C   -0.060634
     6  N   -0.255087
     7  C   -0.059126
     8  C   -0.009774
     9  C   -0.086640
    10  C    0.044990
    11  C    0.105115
    12  C    0.040338
    13  C   -0.069511
    14  H    0.034925
    15  N   -0.427941
    16  C    0.165163
    17  C   -0.178094
    18  C   -0.004749
    19  C    0.149453
    20  C    0.110426
    21  C    0.012049
    22  O   -0.250777
    23  C    0.062726
    24  N   -0.339120
    25  C    0.040721
    26  C   -0.027457
    27  C   -0.023680
    28  C    0.069260
    29  C    0.076583
    30  C    0.042011
    31  C   -0.017398
    32  N   -0.314475
    33  C    0.066513
    34  C   -0.172089
    35  C    0.017178
    36  C    0.097056
    37  C    0.127484
    38  C    0.054880
    39  O   -0.185675
    40  C   -0.013238
    41  C    0.219757
    42  O   -0.211332
    43  O   -0.310237
    44  C    0.158582
    45  H   -0.018652
    46  H   -0.017992
    47  H   -0.043873
    48  H    0.001545
    49  H   -0.005454
    50  H    0.025787
    51  H    0.016116
    52  H    0.015689
    53  H    0.007749
    54  H    0.056407
    55  H    0.017963
    56  H    0.015455
    57  H    0.004987
    58  H    0.026154
    59  H    0.038036
    60  H    0.036979
    61  H    0.035029
    62  H    0.030970
    63  H    0.015143
    64  H    0.009986
    65  H    0.022633
    66  H    0.013186
    67  H    0.004401
    68  H    0.006169
    69  H    0.003592
    70  H    0.010269
    71  H    0.020049
    72  H    0.026683
    73  H    0.048255
    74  H    0.006796
    75  H    0.045852
    76  H    0.031121
    77  H    0.037805
    78  H    0.042916
    79  H    0.047365
    80  Mg   0.834704
    81  C   -0.018725
    82  C   -0.088272
    83  C   -0.046219
    84  C   -0.065979
    85  N   -0.253576
    86  C   -0.051604
    87  C   -0.013632
    88  C   -0.090123
    89  C    0.044125
    90  C    0.115012
    91  C    0.062914
    92  C   -0.076768
    93  H    0.033569
    94  N   -0.423019
    95  C    0.161175
    96  C   -0.176193
    97  C   -0.009047
    98  C    0.151025
    99  C    0.099981
   100  C    0.014548
   101  O   -0.254771
   102  C    0.061625
   103  N   -0.350313
   104  C    0.037170
   105  C   -0.019927
   106  C   -0.034241
   107  C    0.089143
   108  C    0.073787
   109  C    0.034012
   110  C   -0.007395
   111  N   -0.323929
   112  C    0.080229
   113  C   -0.184406
   114  C    0.007925
   115  C    0.095397
   116  C    0.147395
   117  C    0.057454
   118  O   -0.137556
   119  C   -0.016272
   120  C    0.226845
   121  O   -0.252002
   122  O   -0.309211
   123  C    0.159456
   124  H   -0.021875
   125  H   -0.016876
   126  H   -0.044463
   127  H   -0.003105
   128  H   -0.005565
   129  H    0.019896
   130  H    0.014188
   131  H    0.013883
   132  H    0.014004
   133  H    0.038470
   134  H    0.018768
   135  H    0.019044
   136  H    0.007134
   137  H    0.024313
   138  H    0.038191
   139  H    0.037466
   140  H    0.035013
   141  H    0.033258
   142  H    0.013227
   143  H    0.013834
   144  H    0.023760
   145  H    0.011913
   146  H    0.005876
   147  H    0.005226
   148  H    0.001992
   149  H    0.010848
   150  H    0.016437
   151  H    0.031132
   152  H    0.041470
   153  H   -0.000614
   154  H    0.065432
   155  H    0.031580
   156  H    0.023901
   157  H    0.047289
   158  H    0.054411
 Sum of Mulliken charges =  -0.00000

 Dipole moment (field-independent basis, Debye):
    X=              0.5832    Y=              1.4043    Z=              6.8640  Tot=              7.0304
 Quadrupole moment (field-independent basis, Debye-Ang):
   XX=           -517.3044   YY=           -491.9037   ZZ=           -493.2558
   XY=            -26.8960   XZ=              9.1275   YZ=             51.6488

 Normal termination of Gaussian 16 at Thu Sep  9 04:11:28 2021.
