 Gaussian 16, Revision A.03,
 Gaussian 16:  ES64L-G16RevA.03 25-Dec-2016

 -----------------------------------
 #p cam-b3lyp/Def2SVP td=(nstates=5)
 -----------------------------------

 --------------------------------
 TDDFT excited states in gaussian
 --------------------------------
 Symbolic Z-matrix:
 Charge =  0 Multiplicity = 1

                         Standard orientation:
 ---------------------------------------------------------------------
 Center     Atomic      Atomic             Coordinates (Angstroms)
 Number     Number       Type             X           Y           Z
 ---------------------------------------------------------------------
      1         12           0       16.053989   -0.639893    0.362305
      2          6           0       16.280646    2.400936   -1.512314
      3          6           0       16.878100    1.178973    3.129186
      4          6           0       16.305323   -3.373132    1.950656
      5          6           0       16.370406   -2.351662   -2.656865
      6          7           0       16.497131    1.510491    0.645358
      7          6           0       16.491475    2.580541   -0.143395
      8          6           0       16.655777    3.921262    0.633037
      9          6           0       17.388131    3.368851    1.937068
     10          6           0       16.863292    1.943956    1.925187
     11          6           0       18.907990    3.333520    1.813452
     12          6           0       15.278229    4.577568    0.984257
     13          6           0       15.348365    6.035390    1.448142
     14          1           0       14.276719    6.943478    1.068275
     15          7           0       16.041946   -0.998530    2.305005
     16          6           0       16.392584   -0.136834    3.289799
     17          6           0       16.213343   -0.873853    4.559191
     18          6           0       15.912049   -2.293043    4.222715
     19          6           0       16.102700   -2.283878    2.794799
     20          6           0       16.283490   -0.222072    5.906043
     21          6           0       15.525489   -3.473054    5.057147
     22          8           0       15.536816   -4.665351    4.595766
     23          6           0       15.214312   -3.203101    6.472540
     24          7           0       16.522005   -2.586980   -0.227143
     25          6           0       16.504300   -3.596585    0.649994
     26          6           0       16.590842   -4.923866   -0.043386
     27          6           0       16.426321   -4.619786   -1.602303
     28          6           0       16.351376   -3.074445   -1.534684
     29          6           0       17.884542   -5.716800    0.188147
     30          6           0       15.304347   -5.380517   -2.352559
     31          6           0       13.951855   -4.918860   -1.857850
     32          7           0       16.108059   -0.108619   -1.741470
     33          6           0       16.269190   -0.981078   -2.827531
     34          6           0       16.351843   -0.148681   -4.041759
     35          6           0       16.249016    1.159554   -3.572937
     36          6           0       16.137256    1.146494   -2.153208
     37          6           0       16.560721   -0.625064   -5.366094
     38          6           0       16.232318    2.566552   -3.938906
     39          8           0       16.199385    3.185300   -5.003594
     40          6           0       16.374658    3.431763   -2.609630
     41          6           0       15.325558    4.509133   -2.654056
     42          8           0       14.112494    4.223999   -2.586677
     43          8           0       15.914390    5.708418   -2.529416
     44          6           0       14.926214    6.820001   -2.536096
     45          1           0       17.356923    1.599308    4.015746
     46          1           0       16.287246   -4.344884    2.448460
     47          1           0       16.384479   -2.819778   -3.642828
     48          1           0       17.285868    4.659592    0.136774
     49          1           0       17.059608    3.886179    2.838271
     50          1           0       19.230984    3.572958    0.800404
     51          1           0       19.197679    2.315544    2.074793
     52          1           0       19.372438    3.978246    2.560040
     53          1           0       14.879271    4.114666    1.886818
     54          1           0       14.588172    4.499601    0.143384
     55          1           0       16.320168    6.477690    1.227058
     56          1           0       15.284853    6.051005    2.536224
     57          1           0       16.682945    0.789255    5.841240
     58          1           0       17.024993   -0.770302    6.486841
     59          1           0       15.323628   -0.242558    6.422355
     60          1           0       16.081647   -2.747983    6.951233
     61          1           0       14.872674   -4.149139    6.891044
     62          1           0       14.413499   -2.464820    6.523408
     63          1           0       15.787983   -5.586073    0.278056
     64          1           0       17.330297   -4.858345   -2.163187
     65          1           0       17.719797   -6.713342    0.598596
     66          1           0       18.529162   -5.127262    0.839454
     67          1           0       18.514277   -5.831669   -0.693700
     68          1           0       15.371459   -6.449303   -2.152216
     69          1           0       15.339402   -5.242836   -3.433330
     70          1           0       13.801389   -5.521392   -0.962782
     71          1           0       13.182983   -5.127260   -2.602576
     72          1           0       13.976986   -3.874237   -1.547019
     73          1           0       15.871506   -0.069837   -6.002235
     74          1           0       16.384451   -1.698388   -5.433225
     75          1           0       17.608864   -0.364133   -5.511584
     76          1           0       17.383739    3.842709   -2.609643
     77          1           0       15.218198    7.504259   -3.332821
     78          1           0       14.893635    7.211767   -1.519305
     79          1           0       13.913115    6.562481   -2.846987
     80         12           0      -15.687473   -0.713183   -0.165636
     81          6           0      -18.184552    1.782976    0.476895
     82          6           0      -13.517279    1.837923   -0.811152
     83          6           0      -13.597689   -2.877992   -1.172525
     84          6           0      -18.282169   -3.001109   -0.588294
     85          7           0      -15.936579    1.484397   -0.136701
     86          6           0      -16.913891    2.319592    0.182148
     87          6           0      -16.485799    3.809450    0.263568
     88          6           0      -15.203081    3.744104   -0.700395
     89          6           0      -14.833974    2.273492   -0.516740
     90          6           0      -15.538460    3.973095   -2.164781
     91          6           0      -16.088784    4.238553    1.719686
     92          6           0      -15.958215    5.748379    1.932128
     93          1           0      -16.364314    6.307971    3.218370
     94          7           0      -13.722343   -0.584332   -0.411044
     95          6           0      -13.002663    0.533803   -0.641498
     96          6           0      -11.604691    0.093522   -0.768016
     97          6           0      -11.578742   -1.394406   -0.757488
     98          6           0      -12.998160   -1.683129   -0.801840
     99          6           0      -10.449814    1.051853   -0.803575
    100          6           0      -10.460999   -2.392372   -0.727139
    101          8           0      -10.662009   -3.635919   -0.963829
    102          6           0       -9.109992   -1.856989   -0.504386
    103          7           0      -15.908008   -2.605816   -0.997312
    104          6           0      -14.834946   -3.358739   -1.296615
    105          6           0      -15.237542   -4.777399   -1.621735
    106          6           0      -16.787424   -4.881997   -1.241602
    107          6           0      -17.046026   -3.416557   -0.828083
    108          6           0      -15.039973   -5.208556   -3.074826
    109          6           0      -17.195711   -6.011123   -0.256188
    110          6           0      -16.617757   -5.735021    1.113166
    111          7           0      -17.831535   -0.700049    0.100649
    112          6           0      -18.729804   -1.758264   -0.158945
    113          6           0      -20.093707   -1.236025    0.063431
    114          6           0      -19.893939    0.106827    0.417451
    115          6           0      -18.504896    0.406154    0.396193
    116          6           0      -21.303029   -1.965484   -0.114206
    117          6           0      -20.542956    1.342020    0.793974
    118          8           0      -21.698902    1.670692    1.057590
    119          6           0      -19.473456    2.515897    0.726258
    120          6           0      -19.587724    3.321902    1.991101
    121          8           0      -19.299880    2.816923    3.090531
    122          8           0      -19.806784    4.610987    1.673864
    123          6           0      -19.916361    5.452347    2.895307
    124          1           0      -12.821636    2.551321   -1.253909
    125          1           0      -12.912752   -3.691670   -1.422065
    126          1           0      -19.138958   -3.678122   -0.604209
    127          1           0      -17.210600    4.512464   -0.129124
    128          1           0      -14.403964    4.385855   -0.338549
    129          1           0      -16.604270    4.024909   -2.330663
    130          1           0      -15.112821    3.133640   -2.698800
    131          1           0      -15.019039    4.861171   -2.536061
    132          1           0      -15.053092    3.931256    1.913695
    133          1           0      -16.773826    3.830585    2.437250
    134          1           0      -16.400312    6.320438    1.107359
    135          1           0      -14.898283    6.012454    1.903551
    136          1           0      -10.787871    2.083490   -0.961215
    137          1           0       -9.866893    0.816953   -1.700735
    138          1           0       -9.802439    0.963973    0.071557
    139          1           0       -8.874009   -1.136456   -1.283873
    140          1           0       -8.458944   -2.729874   -0.426280
    141          1           0       -9.103110   -1.308218    0.444001
    142          1           0      -14.679766   -5.485070   -1.020744
    143          1           0      -17.411953   -5.073696   -2.126506
    144          1           0      -14.396392   -6.102158   -3.181302
    145          1           0      -14.626092   -4.374096   -3.625200
    146          1           0      -15.956982   -5.415414   -3.623909
    147          1           0      -16.778778   -6.967228   -0.582026
    148          1           0      -18.269272   -6.140944   -0.168915
    149          1           0      -15.597904   -6.123100    1.033404
    150          1           0      -17.181674   -6.261847    1.880309
    151          1           0      -16.546643   -4.657263    1.300336
    152          1           0      -21.936094   -1.729241    0.730722
    153          1           0      -21.115555   -3.034896   -0.184785
    154          1           0      -21.646550   -1.545449   -1.063327
    155          1           0      -19.696135    3.111218   -0.160074
    156          1           0      -20.876665    5.974175    2.838713
    157          1           0      -19.003649    6.077230    2.910501
    158          1           0      -20.007932    4.943581    3.847789
 ---------------------------------------------------------------------

 SCF Done:  E(RCAM-B3LYP) =  -4069.81178508     A.U. after   19 cycles

 Excitation energies and oscillator strengths:

 Excited State   1:      Singlet-A      1.6756 eV  739.93 nm  f=0.3880  <S**2>=0.000
     310 -> 316        0.17328
     312 -> 313        0.68462
     310 <- 316        0.10444
 This state for optimization and/or second-order correction.
 Total Energy, E(TD-HF/TD-DFT) =  -4069.75020741
 Copying the excited state density for this state as the 1-particle RhoCI density.

 Excited State   2:      Singlet-A      1.6799 eV  738.06 nm  f=0.3940  <S**2>=0.000
     309 -> 315        0.17521
     311 -> 314        0.68428
     309 <- 315        0.10493

 Excited State   3:      Singlet-A      2.1862 eV  567.12 nm  f=0.0952  <S**2>=0.000
     310 -> 313        0.64209
     312 -> 316       -0.27302

 Excited State   4:      Singlet-A      2.1926 eV  565.47 nm  f=0.1049  <S**2>=0.000
     309 -> 314        0.64033
     311 -> 315       -0.27818

 Excited State   5:      Singlet-A      3.0646 eV  404.57 nm  f=0.0000  <S**2>=0.000
     312 -> 314        0.70710

 The electronic state is 1-A.
 Alpha  occ. eigenvalues --  -46.87809 -46.87659 -19.26352 -19.26304 -19.19163
 Alpha  occ. eigenvalues --  -19.19039 -19.18824 -19.18707 -19.18184 -19.18052
 Alpha  occ. eigenvalues --  -14.42496 -14.42463 -14.41461 -14.41358 -14.39415
 Alpha  occ. eigenvalues --  -14.39350 -14.38599 -14.38599 -10.39098 -10.39093
 Alpha  occ. eigenvalues --  -10.35457 -10.35384 -10.34404 -10.34229 -10.31760
 Alpha  occ. eigenvalues --  -10.31701 -10.31418 -10.31309 -10.31021 -10.30922
 Alpha  occ. eigenvalues --  -10.30583 -10.30520 -10.30397 -10.30360 -10.30218
 Alpha  occ. eigenvalues --  -10.30139 -10.29932 -10.29894 -10.29643 -10.29434
 Alpha  occ. eigenvalues --  -10.29399 -10.29266 -10.28764 -10.28718 -10.28655
 Alpha  occ. eigenvalues --  -10.28557 -10.28403 -10.28377 -10.28139 -10.28130
 Alpha  occ. eigenvalues --  -10.27999 -10.27805 -10.27739 -10.27667 -10.27596
 Alpha  occ. eigenvalues --  -10.27518 -10.27510 -10.27492 -10.27483 -10.27464
 Alpha  occ. eigenvalues --  -10.27459 -10.27457 -10.27416 -10.27375 -10.27174
 Alpha  occ. eigenvalues --  -10.27051 -10.26722 -10.26693 -10.26418 -10.26402
 Alpha  occ. eigenvalues --  -10.26247 -10.26193 -10.26138 -10.26031 -10.26023
 Alpha  occ. eigenvalues --  -10.25934 -10.25857 -10.25853 -10.25443 -10.25396
 Alpha  occ. eigenvalues --  -10.24872 -10.24845 -10.24799 -10.24732 -10.24696
 Alpha  occ. eigenvalues --  -10.24689  -3.16552  -3.16409  -1.91433  -1.91292
 Alpha  occ. eigenvalues --   -1.91020  -1.90880  -1.90862  -1.90717  -1.16652
 Alpha  occ. eigenvalues --   -1.16646  -1.08659  -1.08642  -1.07225  -1.06959
 Alpha  occ. eigenvalues --   -1.06948  -1.06662  -1.04594  -1.04494  -1.03772
 Alpha  occ. eigenvalues --   -1.03662  -1.03246  -1.03038  -1.02423  -1.02110
 Alpha  occ. eigenvalues --   -0.91986  -0.91985  -0.89531  -0.89494  -0.89202
 Alpha  occ. eigenvalues --   -0.89150  -0.88297  -0.88220  -0.87883  -0.87794
 Alpha  occ. eigenvalues --   -0.87686  -0.87683  -0.87285  -0.87115  -0.84999
 Alpha  occ. eigenvalues --   -0.84996  -0.83947  -0.83876  -0.82977  -0.82925
 Alpha  occ. eigenvalues --   -0.82662  -0.82650  -0.81601  -0.81597  -0.80610
 Alpha  occ. eigenvalues --   -0.80442  -0.78809  -0.78632  -0.77231  -0.77143
 Alpha  occ. eigenvalues --   -0.76949  -0.76898  -0.75937  -0.75838  -0.74909
 Alpha  occ. eigenvalues --   -0.74802  -0.72786  -0.72698  -0.71684  -0.71580
 Alpha  occ. eigenvalues --   -0.69917  -0.69757  -0.68886  -0.68826  -0.67654
 Alpha  occ. eigenvalues --   -0.67600  -0.67233  -0.67197  -0.65301  -0.65271
 Alpha  occ. eigenvalues --   -0.64867  -0.64770  -0.64653  -0.64634  -0.64281
 Alpha  occ. eigenvalues --   -0.64203  -0.62314  -0.62279  -0.60453  -0.60336
 Alpha  occ. eigenvalues --   -0.59818  -0.59795  -0.59000  -0.58992  -0.58516
 Alpha  occ. eigenvalues --   -0.58425  -0.57600  -0.57555  -0.57321  -0.57235
 Alpha  occ. eigenvalues --   -0.56322  -0.56203  -0.55995  -0.55887  -0.55532
 Alpha  occ. eigenvalues --   -0.55449  -0.55352  -0.55248  -0.54537  -0.54488
 Alpha  occ. eigenvalues --   -0.53911  -0.53909  -0.53311  -0.53235  -0.53226
 Alpha  occ. eigenvalues --   -0.53140  -0.52929  -0.52902  -0.52767  -0.52662
 Alpha  occ. eigenvalues --   -0.52449  -0.52401  -0.51928  -0.51886  -0.51656
 Alpha  occ. eigenvalues --   -0.51630  -0.51209  -0.51201  -0.50582  -0.50468
 Alpha  occ. eigenvalues --   -0.50042  -0.49977  -0.49930  -0.49865  -0.49527
 Alpha  occ. eigenvalues --   -0.49484  -0.49228  -0.49200  -0.49110  -0.49104
 Alpha  occ. eigenvalues --   -0.48607  -0.48558  -0.48472  -0.48457  -0.48376
 Alpha  occ. eigenvalues --   -0.48334  -0.47707  -0.47592  -0.47309  -0.47115
 Alpha  occ. eigenvalues --   -0.46809  -0.46708  -0.46569  -0.46552  -0.46371
 Alpha  occ. eigenvalues --   -0.46269  -0.46175  -0.46086  -0.45837  -0.45823
 Alpha  occ. eigenvalues --   -0.45212  -0.45208  -0.44592  -0.44518  -0.44514
 Alpha  occ. eigenvalues --   -0.44475  -0.44156  -0.44126  -0.44101  -0.44076
 Alpha  occ. eigenvalues --   -0.44032  -0.43935  -0.43554  -0.43510  -0.43398
 Alpha  occ. eigenvalues --   -0.43385  -0.43040  -0.42931  -0.42902  -0.42715
 Alpha  occ. eigenvalues --   -0.42668  -0.42552  -0.42022  -0.41964  -0.41717
 Alpha  occ. eigenvalues --   -0.41669  -0.41547  -0.41458  -0.41153  -0.40988
 Alpha  occ. eigenvalues --   -0.40882  -0.40834  -0.40719  -0.40695  -0.40583
 Alpha  occ. eigenvalues --   -0.40493  -0.40249  -0.40225  -0.39451  -0.39426
 Alpha  occ. eigenvalues --   -0.38480  -0.38350  -0.37763  -0.37653  -0.37332
 Alpha  occ. eigenvalues --   -0.37277  -0.37265  -0.37198  -0.36773  -0.36729
 Alpha  occ. eigenvalues --   -0.36217  -0.36206  -0.34298  -0.34253  -0.33864
 Alpha  occ. eigenvalues --   -0.33788  -0.33199  -0.33175  -0.31354  -0.31267
 Alpha  occ. eigenvalues --   -0.31048  -0.30972  -0.30044  -0.29956  -0.29461
 Alpha  occ. eigenvalues --   -0.29334  -0.29325  -0.29211  -0.24093  -0.24035
 Alpha  occ. eigenvalues --   -0.21140  -0.21116
 Alpha virt. eigenvalues --   -0.08790  -0.08786  -0.01761  -0.01682  -0.00069
 Alpha virt. eigenvalues --   -0.00025   0.02187   0.02207   0.03107   0.03229
 Alpha virt. eigenvalues --    0.04705   0.04731   0.05080   0.05163   0.06161

 Mulliken charges:
               1
     1  Mg   0.838698
     2  C   -0.002987
     3  C   -0.094107
     4  C   -0.045860
     5  C   -0.063939
     6  N   -0.256762
     7  C   -0.052495
     8  C   -0.014006
     9  C   -0.086996
    10  C    0.046295
    11  C    0.104806
    12  C    0.053478
    13  C   -0.071783
    14  H    0.036029
    15  N   -0.433144
    16  C    0.168427
    17  C   -0.177148
    18  C   -0.003980
    19  C    0.148720
    20  C    0.110180
    21  C    0.012306
    22  O   -0.249579
    23  C    0.062465
    24  N   -0.341125
    25  C    0.041241
    26  C   -0.028166
    27  C   -0.023990
    28  C    0.074827
    29  C    0.076156
    30  C    0.035132
    31  C   -0.004512
    32  N   -0.310452
    33  C    0.080378
    34  C   -0.169735
    35  C    0.008344
    36  C    0.082974
    37  C    0.127317
    38  C    0.046096
    39  O   -0.188499
    40  C   -0.005346
    41  C    0.212871
    42  O   -0.257153
    43  O   -0.304776
    44  C    0.157717
    45  H   -0.017584
    46  H   -0.016794
    47  H   -0.041487
    48  H    0.000929
    49  H   -0.004036
    50  H    0.025473
    51  H    0.016472
    52  H    0.016672
    53  H    0.011203
    54  H    0.044078
    55  H    0.017891
    56  H    0.017965
    57  H    0.005873
    58  H    0.026865
    59  H    0.039568
    60  H    0.037364
    61  H    0.035709
    62  H    0.031496
    63  H    0.016586
    64  H    0.009474
    65  H    0.023255
    66  H    0.012552
    67  H    0.004769
    68  H    0.006405
    69  H    0.004722
    70  H    0.008814
    71  H    0.018143
    72  H    0.028947
    73  H    0.047523
    74  H    0.009121
    75  H    0.046014
    76  H    0.035157
    77  H    0.042925
    78  H    0.046403
    79  H    0.053616
    80  Mg   0.837873
    81  C   -0.016831
    82  C   -0.087791
    83  C   -0.045505
    84  C   -0.064874
    85  N   -0.254576
    86  C   -0.049865
    87  C   -0.015096
    88  C   -0.090511
    89  C    0.045749
    90  C    0.114366
    91  C    0.062531
    92  C   -0.077899
    93  H    0.034861
    94  N   -0.423514
    95  C    0.162940
    96  C   -0.174570
    97  C   -0.007766
    98  C    0.152138
    99  C    0.099331
   100  C    0.015609
   101  O   -0.253140
   102  C    0.061181
   103  N   -0.350085
   104  C    0.037525
   105  C   -0.019853
   106  C   -0.034808
   107  C    0.088903
   108  C    0.073658
   109  C    0.034745
   110  C   -0.007684
   111  N   -0.324092
   112  C    0.078414
   113  C   -0.163169
   114  C    0.002224
   115  C    0.096164
   116  C    0.131500
   117  C    0.042359
   118  O   -0.187934
   119  C    0.000919
   120  C    0.211262
   121  O   -0.251029
   122  O   -0.305627
   123  C    0.152025
   124  H   -0.019581
   125  H   -0.015520
   126  H   -0.040482
   127  H   -0.000660
   128  H   -0.004290
   129  H    0.022441
   130  H    0.014453
   131  H    0.016334
   132  H    0.013927
   133  H    0.037654
   134  H    0.020793
   135  H    0.019622
   136  H    0.008798
   137  H    0.026286
   138  H    0.039862
   139  H    0.038357
   140  H    0.036505
   141  H    0.033889
   142  H    0.014422
   143  H    0.012406
   144  H    0.025182
   145  H    0.011671
   146  H    0.005661
   147  H    0.006269
   148  H    0.003624
   149  H    0.010955
   150  H    0.017913
   151  H    0.030100
   152  H    0.045971
   153  H    0.008493
   154  H    0.046914
   155  H    0.035012
   156  H    0.043893
   157  H    0.049506
   158  H    0.053566
 Sum of Mulliken charges =  -0.00000

 Dipole moment (field-independent basis, Debye):
    X=              5.3745    Y=              2.7964    Z=              2.1016  Tot=              6.4127
 Quadrupole moment (field-independent basis, Debye-Ang):
   XX=           -574.9294   YY=           -472.6715   ZZ=           -515.6482
   XY=              7.4925   XZ=            106.9485   YZ=             36.3733

 Normal termination of Gaussian 16 at Sun Sep 12 22:43:36 2021.
