 Gaussian 16, Revision A.03,
 Gaussian 16:  ES64L-G16RevA.03 25-Dec-2016

 -----------------------------------
 #p cam-b3lyp/Def2SVP td=(nstates=5)
 -----------------------------------

 --------------------------------
 TDDFT excited states in gaussian
 --------------------------------
 Symbolic Z-matrix:
 Charge =  0 Multiplicity = 1

                         Standard orientation:
 ---------------------------------------------------------------------
 Center     Atomic      Atomic             Coordinates (Angstroms)
 Number     Number       Type             X           Y           Z
 ---------------------------------------------------------------------
      1         12           0       -4.416854   -0.779727   -0.221191
      2          6           0       -4.825725    1.838590    2.184938
      3          6           0       -5.236397    1.501738   -2.622509
      4          6           0       -4.506611   -3.167919   -2.305682
      5          6           0       -4.748173   -3.045077    2.406371
      6          7           0       -4.941870    1.367905   -0.108591
      7          6           0       -5.004186    2.267773    0.867896
      8          6           0       -5.202298    3.724986    0.353451
      9          6           0       -5.872621    3.404947   -1.057308
     10          6           0       -5.288744    2.023609   -1.295882
     11          6           0       -7.392583    3.292206   -0.998081
     12          6           0       -3.844046    4.485154    0.183081
     13          6           0       -3.962107    6.001145    0.000905
     14          1           0       -2.941153    6.858201    0.584393
     15          7           0       -4.333420   -0.761387   -2.194906
     16          6           0       -4.691392    0.258843   -3.011162
     17          6           0       -4.444535   -0.216184   -4.389600
     18          6           0       -4.093554   -1.661727   -4.316721
     19          6           0       -4.325715   -1.931354   -2.920734
     20          6           0       -4.503042    0.677083   -5.590600
     21          6           0       -3.633577   -2.646702   -5.344524
     22          8           0       -3.607993   -3.904643   -5.117579
     23          6           0       -3.293177   -2.101301   -6.671063
     24          7           0       -4.819252   -2.818931   -0.027908
     25          6           0       -4.733593   -3.641838   -1.078846
     26          6           0       -4.784157   -5.079062   -0.652502
     27          6           0       -4.677840   -5.071544    0.940731
     28          6           0       -4.666182   -3.539905    1.169241
     29          6           0       -6.036026   -5.859346   -1.076756
     30          6           0       -3.547003   -5.920396    1.574039
     31          6           0       -2.201410   -5.324780    1.225155
     32          7           0       -4.554207   -0.660866    1.941690
     33          6           0       -4.709814   -1.729296    2.836629
     34          6           0       -4.862633   -1.146732    4.182487
     35          6           0       -4.801509    0.229651    3.973493
     36          6           0       -4.648208    0.491067    2.581928
     37          6           0       -5.089526   -1.873651    5.384378
     38          6           0       -4.854753    1.540951    4.599204
     39          8           0       -4.878796    1.946522    5.762143
     40          6           0       -4.994866    2.637671    3.453167
     41          6           0       -3.993846    3.723837    3.738668
     42          8           0       -2.768398    3.500466    3.662864
     43          8           0       -4.628855    4.903001    3.821610
     44          6           0       -3.689028    6.027731    4.074319
     45          1           0       -5.706626    2.065666   -3.430476
     46          1           0       -4.433167   -4.025874   -2.977215
     47          1           0       -4.771060   -3.692491    3.284883
     48          1           0       -5.877070    4.332267    0.957038
     49          1           0       -5.540226    4.095796   -1.831881
     50          1           0       -7.754600    3.322705    0.029505
     51          1           0       -7.631405    2.332851   -1.457531
     52          1           0       -7.861971    4.050152   -1.625752
     53          1           0       -3.399943    4.217121   -0.775560
     54          1           0       -3.175969    4.273388    1.018637
     55          1           0       -4.957690    6.358111    0.266044
     56          1           0       -3.867810    6.225838   -1.061555
     57          1           0       -4.946487    1.642588   -5.350387
     58          1           0       -5.203634    0.223164   -6.291197
     59          1           0       -3.528613    0.789706   -6.066138
     60          1           0       -4.164693   -1.594821   -7.086380
     61          1           0       -2.899977   -2.937509   -7.248125
     62          1           0       -2.523062   -1.338576   -6.552225
     63          1           0       -3.945118   -5.638733   -1.063851
     64          1           0       -5.586827   -5.444784    1.413075
     65          1           0       -5.817593   -6.752984   -1.661908
     66          1           0       -6.685785   -5.180145   -1.627928
     67          1           0       -6.685646   -6.162484   -0.256074
     68          1           0       -3.563165   -6.933221    1.172953
     69          1           0       -3.619130   -5.992283    2.659341
     70          1           0       -1.999806   -5.740143    0.238412
     71          1           0       -1.446337   -5.643381    1.944577
     72          1           0       -2.261541   -4.241679    1.116698
     73          1           0       -4.443053   -1.425278    6.138700
     74          1           0       -4.870184   -2.933102    5.253775
     75          1           0       -6.151513   -1.682972    5.538268
     76          1           0       -6.019951    3.004615    3.494084
     77          1           0       -4.032561    6.536911    4.974849
     78          1           0       -3.643547    6.606774    3.151797
     79          1           0       -2.675407    5.752278    4.367639
     80         12           0        4.555859   -0.500922    0.256137
     81          6           0        4.266997    2.033585   -2.268122
     82          6           0        5.740366    1.923232    2.343020
     83          6           0        5.245093   -2.781193    2.352029
     84          6           0        4.450472   -2.865066   -2.302265
     85          7           0        4.911582    1.661980   -0.039792
     86          6           0        4.706848    2.526677   -1.021993
     87          6           0        4.912544    4.012860   -0.623840
     88          6           0        5.902515    3.793389    0.621417
     89          6           0        5.473505    2.385551    1.029576
     90          6           0        7.368685    3.749614    0.224207
     91          6           0        3.575306    4.703275   -0.179818
     92          6           0        3.643227    6.228402   -0.074213
     93          1           0        2.462394    7.004829   -0.441986
     94          7           0        4.903376   -0.389862    2.206899
     95          6           0        5.361168    0.678722    2.892340
     96          6           0        5.465618    0.243236    4.293628
     97          6           0        5.189127   -1.217862    4.352605
     98          6           0        5.120763   -1.530469    2.939212
     99          6           0        5.721583    1.196138    5.424943
    100          6           0        5.027360   -2.177613    5.492302
    101          8           0        5.028120   -3.446244    5.309535
    102          6           0        4.961782   -1.591235    6.838901
    103          7           0        5.023972   -2.515517    0.044893
    104          6           0        5.228327   -3.294379    1.121719
    105          6           0        5.276020   -4.754120    0.737955
    106          6           0        4.818021   -4.810983   -0.793244
    107          6           0        4.663863   -3.298908   -1.067593
    108          6           0        6.635073   -5.437357    0.888082
    109          6           0        3.629434   -5.749678   -1.137905
    110          6           0        2.357655   -5.222745   -0.513159
    111          7           0        4.205749   -0.471174   -1.875661
    112          6           0        4.232791   -1.571801   -2.759948
    113          6           0        4.050293   -1.037922   -4.125265
    114          6           0        3.951993    0.349515   -3.941338
    115          6           0        4.085453    0.660284   -2.561086
    116          6           0        4.042662   -1.804980   -5.324298
    117          6           0        3.776317    1.622791   -4.602106
    118          8           0        3.527333    1.976760   -5.753825
    119          6           0        4.098992    2.780638   -3.562067
    120          6           0        2.995807    3.799800   -3.644547
    121          8           0        1.836740    3.505634   -3.303020
    122          8           0        3.529855    5.007199   -3.904051
    123          6           0        2.475866    6.053376   -3.984308
    124          1           0        6.333102    2.555115    3.005038
    125          1           0        5.373191   -3.616473    3.044392
    126          1           0        4.308252   -3.546239   -3.143956
    127          1           0        5.394082    4.622886   -1.378657
    128          1           0        5.695979    4.501439    1.419768
    129          1           0        7.495911    3.755141   -0.848145
    130          1           0        7.760778    2.833884    0.646994
    131          1           0        7.915080    4.563615    0.709146
    132          1           0        3.373283    4.451114    0.869146
    133          1           0        2.767797    4.421489   -0.827230
    134          1           0        4.537862    6.635823   -0.560589
    135          1           0        3.763608    6.498376    0.977759
    136          1           0        6.047494    2.177385    5.058446
    137          1           0        6.585815    0.811782    5.977429
    138          1           0        4.873102    1.276963    6.107750
    139          1           0        5.867289   -1.019754    7.028426
    140          1           0        4.755803   -2.426146    7.511492
    141          1           0        4.128550   -0.880377    6.870743
    142          1           0        4.581857   -5.333591    1.334143
    143          1           0        5.626853   -5.168208   -1.447470
    144          1           0        6.606471   -6.326059    1.546475
    145          1           0        7.343399   -4.709922    1.261774
    146          1           0        7.098757   -5.753182   -0.044898
    147          1           0        3.795596   -6.742711   -0.713133
    148          1           0        3.474903   -5.877243   -2.204140
    149          1           0        2.409515   -5.603975    0.511080
    150          1           0        1.485196   -5.610720   -1.035010
    151          1           0        2.370295   -4.127993   -0.458452
    152          1           0        3.227875   -1.429463   -5.928952
    153          1           0        3.927893   -2.866743   -5.116310
    154          1           0        5.036389   -1.568054   -5.713731
    155          1           0        5.067602    3.203033   -3.832167
    156          1           0        2.584559    6.542417   -4.957310
    157          1           0        2.611798    6.683963   -3.085631
    158          1           0        1.444481    5.723469   -4.027462
 ---------------------------------------------------------------------

 SCF Done:  E(RCAM-B3LYP) =  -4069.81251432     A.U. after   19 cycles

 Excitation energies and oscillator strengths:

 Excited State   1:      Singlet-A      1.6491 eV  751.82 nm  f=0.0158  <S**2>=0.000
     309 -> 315        0.12412
     310 -> 316        0.11180
     311 -> 313        0.51111
     312 -> 314        0.46007
 This state for optimization and/or second-order correction.
 Total Energy, E(TD-HF/TD-DFT) =  -4069.75191004
 Copying the excited state density for this state as the 1-particle RhoCI density.

 Excited State   2:      Singlet-A      1.7035 eV  727.82 nm  f=0.6904  <S**2>=0.000
     309 -> 315       -0.12099
     310 -> 316        0.13473
     311 -> 313       -0.45779
     312 -> 314        0.50858

 Excited State   3:      Singlet-A      2.1827 eV  568.03 nm  f=0.0163  <S**2>=0.000
     309 -> 313        0.56432
     310 -> 314       -0.31152
     311 -> 315       -0.23608
     312 -> 316        0.12921

 Excited State   4:      Singlet-A      2.1966 eV  564.44 nm  f=0.1595  <S**2>=0.000
     309 -> 313        0.30778
     310 -> 314        0.55993
     311 -> 315       -0.13621
     312 -> 316       -0.24624

 Excited State   5:      Singlet-A      2.4342 eV  509.34 nm  f=0.0000  <S**2>=0.000
     312 -> 313        0.70706

 The electronic state is 1-A.
 Alpha  occ. eigenvalues --  -46.87510 -46.87480 -19.26405 -19.26150 -19.19199
 Alpha  occ. eigenvalues --  -19.18863 -19.18543 -19.18488 -19.18004 -19.17930
 Alpha  occ. eigenvalues --  -14.42349 -14.42137 -14.41221 -14.41151 -14.39196
 Alpha  occ. eigenvalues --  -14.39075 -14.38467 -14.38287 -10.39117 -10.38915
 Alpha  occ. eigenvalues --  -10.35216 -10.35116 -10.34183 -10.34154 -10.31869
 Alpha  occ. eigenvalues --  -10.31603 -10.31185 -10.31112 -10.30875 -10.30587
 Alpha  occ. eigenvalues --  -10.30267 -10.30265 -10.30232 -10.30216 -10.29981
 Alpha  occ. eigenvalues --  -10.29895 -10.29775 -10.29657 -10.29327 -10.29277
 Alpha  occ. eigenvalues --  -10.29264 -10.28925 -10.28593 -10.28563 -10.28455
 Alpha  occ. eigenvalues --  -10.28304 -10.28270 -10.28053 -10.28014 -10.27872
 Alpha  occ. eigenvalues --  -10.27824 -10.27521 -10.27486 -10.27409 -10.27383
 Alpha  occ. eigenvalues --  -10.27356 -10.27317 -10.27258 -10.27258 -10.27257
 Alpha  occ. eigenvalues --  -10.27249 -10.27225 -10.27111 -10.27035 -10.27004
 Alpha  occ. eigenvalues --  -10.26932 -10.26538 -10.26371 -10.26186 -10.25999
 Alpha  occ. eigenvalues --  -10.25991 -10.25982 -10.25966 -10.25924 -10.25790
 Alpha  occ. eigenvalues --  -10.25774 -10.25721 -10.25609 -10.25297 -10.25236
 Alpha  occ. eigenvalues --  -10.24755 -10.24569 -10.24559 -10.24540 -10.24499
 Alpha  occ. eigenvalues --  -10.24470  -3.16259  -3.16222  -1.91141  -1.91103
 Alpha  occ. eigenvalues --   -1.90730  -1.90690  -1.90567  -1.90532  -1.16693
 Alpha  occ. eigenvalues --   -1.16492  -1.08626  -1.08401  -1.06982  -1.06892
 Alpha  occ. eigenvalues --   -1.06795  -1.06486  -1.04352  -1.04271  -1.03520
 Alpha  occ. eigenvalues --   -1.03461  -1.02926  -1.02900  -1.02109  -1.01975
 Alpha  occ. eigenvalues --   -0.91881  -0.91694  -0.89361  -0.89254  -0.89023
 Alpha  occ. eigenvalues --   -0.88895  -0.88090  -0.88030  -0.87683  -0.87590
 Alpha  occ. eigenvalues --   -0.87544  -0.87366  -0.86943  -0.86914  -0.84872
 Alpha  occ. eigenvalues --   -0.84691  -0.83757  -0.83699  -0.82763  -0.82635
 Alpha  occ. eigenvalues --   -0.82521  -0.82357  -0.81548  -0.81366  -0.80344
 Alpha  occ. eigenvalues --   -0.80323  -0.78484  -0.78464  -0.77013  -0.76937
 Alpha  occ. eigenvalues --   -0.76810  -0.76688  -0.75748  -0.75668  -0.74693
 Alpha  occ. eigenvalues --   -0.74652  -0.72570  -0.72485  -0.71467  -0.71401
 Alpha  occ. eigenvalues --   -0.69666  -0.69617  -0.68703  -0.68585  -0.67481
 Alpha  occ. eigenvalues --   -0.67353  -0.67054  -0.66909  -0.65159  -0.65004
 Alpha  occ. eigenvalues --   -0.64667  -0.64591  -0.64550  -0.64360  -0.64079
 Alpha  occ. eigenvalues --   -0.64003  -0.62241  -0.62094  -0.60183  -0.60118
 Alpha  occ. eigenvalues --   -0.59667  -0.59508  -0.58876  -0.58711  -0.58321
 Alpha  occ. eigenvalues --   -0.58230  -0.57511  -0.57359  -0.57113  -0.57039
 Alpha  occ. eigenvalues --   -0.56094  -0.56026  -0.55840  -0.55773  -0.55342
 Alpha  occ. eigenvalues --   -0.55215  -0.55157  -0.55114  -0.54417  -0.54314
 Alpha  occ. eigenvalues --   -0.53786  -0.53605  -0.53103  -0.53035  -0.53015
 Alpha  occ. eigenvalues --   -0.52918  -0.52804  -0.52664  -0.52492  -0.52408
 Alpha  occ. eigenvalues --   -0.52263  -0.52201  -0.51801  -0.51662  -0.51523
 Alpha  occ. eigenvalues --   -0.51310  -0.51109  -0.50940  -0.50281  -0.50185
 Alpha  occ. eigenvalues --   -0.49834  -0.49756  -0.49730  -0.49596  -0.49351
 Alpha  occ. eigenvalues --   -0.49220  -0.49091  -0.49009  -0.48932  -0.48831
 Alpha  occ. eigenvalues --   -0.48479  -0.48352  -0.48287  -0.48225  -0.48185
 Alpha  occ. eigenvalues --   -0.48130  -0.47472  -0.47408  -0.47000  -0.46986
 Alpha  occ. eigenvalues --   -0.46588  -0.46522  -0.46430  -0.46276  -0.46151
 Alpha  occ. eigenvalues --   -0.46072  -0.45989  -0.45913  -0.45760  -0.45597
 Alpha  occ. eigenvalues --   -0.45091  -0.44949  -0.44434  -0.44348  -0.44338
 Alpha  occ. eigenvalues --   -0.44201  -0.44034  -0.43956  -0.43872  -0.43827
 Alpha  occ. eigenvalues --   -0.43797  -0.43720  -0.43516  -0.43274  -0.43273
 Alpha  occ. eigenvalues --   -0.43104  -0.42913  -0.42802  -0.42760  -0.42522
 Alpha  occ. eigenvalues --   -0.42419  -0.42405  -0.41838  -0.41757  -0.41573
 Alpha  occ. eigenvalues --   -0.41436  -0.41334  -0.41257  -0.40874  -0.40868
 Alpha  occ. eigenvalues --   -0.40596  -0.40586  -0.40538  -0.40491  -0.40369
 Alpha  occ. eigenvalues --   -0.40320  -0.40076  -0.39919  -0.39304  -0.39177
 Alpha  occ. eigenvalues --   -0.38223  -0.38212  -0.37537  -0.37470  -0.37138
 Alpha  occ. eigenvalues --   -0.37071  -0.37048  -0.36969  -0.36773  -0.36529
 Alpha  occ. eigenvalues --   -0.36117  -0.35954  -0.34129  -0.33992  -0.33867
 Alpha  occ. eigenvalues --   -0.33588  -0.33043  -0.32892  -0.31107  -0.31024
 Alpha  occ. eigenvalues --   -0.30841  -0.30743  -0.29914  -0.29796  -0.29182
 Alpha  occ. eigenvalues --   -0.29128  -0.29084  -0.29018  -0.23900  -0.23779
 Alpha  occ. eigenvalues --   -0.20975  -0.20821
 Alpha virt. eigenvalues --   -0.08653  -0.08461  -0.01538  -0.01444   0.00123
 Alpha virt. eigenvalues --    0.00267   0.02302   0.02466   0.03033   0.03930
 Alpha virt. eigenvalues --    0.04854   0.05004   0.05153   0.05276   0.06246

 Mulliken charges:
               1
     1  Mg   0.840731
     2  C   -0.002857
     3  C   -0.091387
     4  C   -0.046453
     5  C   -0.064242
     6  N   -0.256824
     7  C   -0.052300
     8  C   -0.014429
     9  C   -0.087583
    10  C    0.047517
    11  C    0.104922
    12  C    0.052660
    13  C   -0.070657
    14  H    0.033079
    15  N   -0.433360
    16  C    0.170518
    17  C   -0.174540
    18  C   -0.003134
    19  C    0.149320
    20  C    0.109930
    21  C    0.012789
    22  O   -0.251268
    23  C    0.061274
    24  N   -0.341197
    25  C    0.041597
    26  C   -0.028039
    27  C   -0.023616
    28  C    0.074402
    29  C    0.076441
    30  C    0.035190
    31  C   -0.005038
    32  N   -0.310132
    33  C    0.079768
    34  C   -0.170497
    35  C    0.007608
    36  C    0.082528
    37  C    0.127566
    38  C    0.045247
    39  O   -0.190461
    40  C   -0.005225
    41  C    0.212677
    42  O   -0.257662
    43  O   -0.304592
    44  C    0.158459
    45  H   -0.017773
    46  H   -0.017666
    47  H   -0.042282
    48  H   -0.000213
    49  H   -0.003329
    50  H    0.024924
    51  H    0.016311
    52  H    0.016150
    53  H    0.016354
    54  H    0.043691
    55  H    0.016807
    56  H    0.018383
    57  H    0.005835
    58  H    0.025567
    59  H    0.045008
    60  H    0.036875
    61  H    0.034444
    62  H    0.036263
    63  H    0.015557
    64  H    0.008884
    65  H    0.022441
    66  H    0.012578
    67  H    0.004364
    68  H    0.005184
    69  H    0.004702
    70  H    0.007812
    71  H    0.019041
    72  H    0.029745
    73  H    0.046355
    74  H    0.008871
    75  H    0.045244
    76  H    0.034590
    77  H    0.042024
    78  H    0.046492
    79  H    0.052082
    80  Mg   0.839470
    81  C   -0.016942
    82  C   -0.086607
    83  C   -0.045495
    84  C   -0.064601
    85  N   -0.254674
    86  C   -0.049560
    87  C   -0.015534
    88  C   -0.090870
    89  C    0.046681
    90  C    0.114434
    91  C    0.062143
    92  C   -0.077140
    93  H    0.032707
    94  N   -0.423614
    95  C    0.164511
    96  C   -0.173481
    97  C   -0.006947
    98  C    0.152682
    99  C    0.099323
   100  C    0.016362
   101  O   -0.253704
   102  C    0.060467
   103  N   -0.350057
   104  C    0.037776
   105  C   -0.019802
   106  C   -0.034613
   107  C    0.088522
   108  C    0.073810
   109  C    0.034614
   110  C   -0.008424
   111  N   -0.323817
   112  C    0.078052
   113  C   -0.163704
   114  C    0.001159
   115  C    0.096031
   116  C    0.131925
   117  C    0.041226
   118  O   -0.190529
   119  C    0.001237
   120  C    0.210727
   121  O   -0.251866
   122  O   -0.305212
   123  C    0.152953
   124  H   -0.019691
   125  H   -0.015772
   126  H   -0.040465
   127  H   -0.001589
   128  H   -0.003800
   129  H    0.022028
   130  H    0.014397
   131  H    0.016050
   132  H    0.017272
   133  H    0.037383
   134  H    0.019943
   135  H    0.020356
   136  H    0.008786
   137  H    0.025623
   138  H    0.042548
   139  H    0.037812
   140  H    0.036198
   141  H    0.036584
   142  H    0.014158
   143  H    0.012044
   144  H    0.024802
   145  H    0.011535
   146  H    0.005460
   147  H    0.005440
   148  H    0.004223
   149  H    0.010051
   150  H    0.019931
   151  H    0.030367
   152  H    0.043911
   153  H    0.009351
   154  H    0.046396
   155  H    0.034693
   156  H    0.042994
   157  H    0.050074
   158  H    0.051242
 Sum of Mulliken charges =  -0.00000

 Dipole moment (field-independent basis, Debye):
    X=              0.7793    Y=              3.1986    Z=             -0.7944  Tot=              3.3867
 Quadrupole moment (field-independent basis, Debye-Ang):
   XX=           -480.5995   YY=           -461.9250   ZZ=           -541.2524
   XY=              6.2638   XZ=             30.2725   YZ=             -1.4301

 Normal termination of Gaussian 16 at Thu Sep  9 18:09:43 2021.
