 Gaussian 16, Revision A.03,
 Gaussian 16:  ES64L-G16RevA.03 25-Dec-2016

 -----------------------------------
 #p cam-b3lyp/Def2SVP td=(nstates=5)
 -----------------------------------

 --------------------------------
 TDDFT excited states in gaussian
 --------------------------------
 Symbolic Z-matrix:
 Charge =  0 Multiplicity = 1

                         Standard orientation:
 ---------------------------------------------------------------------
 Center     Atomic      Atomic             Coordinates (Angstroms)
 Number     Number       Type             X           Y           Z
 ---------------------------------------------------------------------
      1         12           0       -3.801214    0.599316    0.834013
      2          6           0       -4.502178   -2.191361   -1.295068
      3          6           0       -4.053251   -1.544024    3.477048
      4          6           0       -3.636210    3.118642    2.752969
      5          6           0       -4.719565    2.664987   -1.818402
      6          7           0       -4.225743   -1.570323    0.948412
      7          6           0       -4.416899   -2.536494    0.055583
      8          6           0       -4.442760   -3.961982    0.683825
      9          6           0       -4.862486   -3.573580    2.172103
     10          6           0       -4.317582   -2.156875    2.216265
     11          6           0       -6.371850   -3.526209    2.386763
     12          6           0       -3.038502   -4.653653    0.646634
     13          6           0       -3.042806   -6.157194    0.937668
     14          1           0       -2.101175   -7.010415    0.228661
     15          7           0       -3.361242    0.719049    2.756235
     16          6           0       -3.512186   -0.256647    3.683877
     17          6           0       -3.045016    0.320845    4.962524
     18          6           0       -2.788526    1.770961    4.740101
     19          6           0       -3.283090    1.935179    3.397039
     20          6           0       -2.838832   -0.490021    6.204994
     21          6           0       -2.201950    2.841426    5.605067
     22          8           0       -2.283176    4.080962    5.302533
     23          6           0       -1.599332    2.401902    6.876567
     24          7           0       -4.337236    2.602792    0.596523
     25          6           0       -4.105690    3.498260    1.562706
     26          6           0       -4.307084    4.899856    1.067826
     27          6           0       -4.490517    4.787919   -0.514443
     28          6           0       -4.440907    3.245962   -0.649263
     29          6           0       -5.500326    5.656420    1.667655
     30          6           0       -3.538527    5.636261   -1.394471
     31          6           0       -2.122948    5.120299   -1.264021
     32          7           0       -4.321242    0.327742   -1.255692
     33          6           0       -4.691435    1.325515   -2.168971
     34          6           0       -5.054772    0.646819   -3.426519
     35          6           0       -4.885487   -0.708534   -3.150464
     36          6           0       -4.469601   -0.868032   -1.797730
     37          6           0       -5.532783    1.280350   -4.607441
     38          6           0       -4.982916   -2.060549   -3.676222
     39          8           0       -5.195872   -2.545161   -4.788559
     40          6           0       -4.856262   -3.081253   -2.460513
     41          6           0       -3.868406   -4.143335   -2.859801
     42          8           0       -2.662738   -3.866332   -3.024122
     43          8           0       -4.445865   -5.349933   -2.753946
     44          6           0       -3.510173   -6.450675   -3.107504
     45          1           0       -4.339630   -2.069918    4.389935
     46          1           0       -3.487122    4.022671    3.347058
     47          1           0       -4.934585    3.249510   -2.714812
     48          1           0       -5.183149   -4.635610    0.251999
     49          1           0       -4.360040   -4.196077    2.912216
     50          1           0       -6.911721   -3.641248    1.446962
     51          1           0       -6.573078   -2.548095    2.824134
     52          1           0       -6.679951   -4.257780    3.134195
     53          1           0       -2.442816   -4.303236    1.489502
     54          1           0       -2.544524   -4.472761   -0.308661
     55          1           0       -4.050035   -6.571069    0.881941
     56          1           0       -2.746315   -6.304906    1.976164
     57          1           0       -3.267694   -1.486676    6.108552
     58          1           0       -3.423715   -0.017829    6.994079
     59          1           0       -1.789940   -0.530754    6.499101
     60          1           0       -2.353845    1.890387    7.474573
     61          1           0       -1.152164    3.290634    7.320466
     62          1           0       -0.824891    1.664356    6.663930
     63          1           0       -3.437671    5.519498    1.283678
     64          1           0       -5.488087    5.091294   -0.833022
     65          1           0       -5.226319    6.595942    2.148199
     66          1           0       -6.003501    4.990891    2.368495
     67          1           0       -6.302545    5.876550    0.963805
     68          1           0       -3.534409    6.672627   -1.058503
     69          1           0       -3.809445    5.630978   -2.450324
     70          1           0       -1.767989    5.609773   -0.357792
     71          1           0       -1.528062    5.419104   -2.127756
     72          1           0       -2.106163    4.045584   -1.081835
     73          1           0       -5.011059    0.807848   -5.439617
     74          1           0       -5.348724    2.354186   -4.582945
     75          1           0       -6.593733    1.037166   -4.551745
     76          1           0       -5.851382   -3.490960   -2.290229
     77          1           0       -3.984058   -7.033483   -3.897442
     78          1           0       -3.268550   -6.963131   -2.176154
     79          1           0       -2.582032   -6.155436   -3.598143
     80         12           0        3.926006    0.651534   -1.012244
     81          6           0        4.211939   -2.317763    0.982894
     82          6           0        3.711957    2.409745    1.902794
     83          6           0        3.222195    3.223919   -2.731236
     84          6           0        3.023636   -1.397253   -3.683176
     85          7           0        3.969531    0.015725    1.105798
     86          6           0        4.144258   -1.131911    1.743558
     87          6           0        4.333019   -0.992763    3.278018
     88          6           0        3.592120    0.416937    3.484583
     89          6           0        3.796511    1.007030    2.090787
     90          6           0        2.098813    0.281468    3.731632
     91          6           0        5.845088   -0.912694    3.689406
     92          6           0        6.114549   -1.086774    5.185681
     93          1           0        7.330186   -1.783218    5.597579
     94          7           0        4.010962    2.576483   -0.536928
     95          6           0        3.930751    3.113920    0.698388
     96          6           0        4.025014    4.569949    0.510566
     97          6           0        4.001738    4.857049   -0.949484
     98          6           0        3.716883    3.536250   -1.473346
     99          6           0        4.204569    5.527747    1.652408
    100          6           0        4.190308    6.114883   -1.742262
    101          8           0        3.892127    6.177195   -2.987265
    102          6           0        4.646097    7.297405   -0.997015
    103          7           0        3.021409    0.903665   -2.867094
    104          6           0        2.883820    2.126672   -3.408630
    105          6           0        2.460784    2.038103   -4.855554
    106          6           0        2.577688    0.491022   -5.243417
    107          6           0        2.980186   -0.084973   -3.868059
    108          6           0        1.049563    2.535532   -5.167670
    109          6           0        3.453301    0.138990   -6.477129
    110          6           0        4.905723    0.435629   -6.180724
    111          7           0        3.835800   -1.475677   -1.379525
    112          6           0        3.404926   -2.119954   -2.559924
    113          6           0        3.412883   -3.572525   -2.290828
    114          6           0        3.829085   -3.672132   -0.954661
    115          6           0        4.044520   -2.372370   -0.422004
    116          6           0        3.019980   -4.590125   -3.205283
    117          6           0        4.124940   -4.580784    0.129552
    118          8           0        4.202871   -5.803543    0.241460
    119          6           0        4.264227   -3.739035    1.470611
    120          6           0        5.513106   -4.192254    2.175893
    121          8           0        6.631699   -3.996531    1.668882
    122          8           0        5.197083   -4.583371    3.423906
    123          6           0        6.404843   -5.031452    4.167110
    124          1           0        3.408145    3.029002    2.747252
    125          1           0        3.068208    4.072785   -3.401452
    126          1           0        2.849576   -2.107176   -4.494593
    127          1           0        3.844362   -1.759487    3.867193
    128          1           0        4.096860    1.022536    4.232813
    129          1           0        1.761035   -0.736953    3.609704
    130          1           0        1.620956    0.927864    3.007156
    131          1           0        1.840905    0.687326    4.714031
    132          1           0        6.199124    0.117302    3.553329
    133          1           0        6.429402   -1.619076    3.132434
    134          1           0        5.243091   -1.487528    5.717555
    135          1           0        6.267667   -0.099332    5.627893
    136          1           0        4.019760    5.041462    2.618203
    137          1           0        3.409972    6.277112    1.569145
    138          1           0        5.171833    6.034236    1.629197
    139          1           0        3.934730    7.521937   -0.205800
    140          1           0        4.808074    8.072162   -1.748925
    141          1           0        5.596325    7.057344   -0.507078
    142          1           0        3.127191    2.610550   -5.489043
    143          1           0        1.597424    0.057790   -5.490863
    144          1           0        1.027784    3.335831   -5.931297
    145          1           0        0.596313    2.876586   -4.246372
    146          1           0        0.351853    1.767898   -5.498046
    147          1           0        3.176321    0.764762   -7.329088
    148          1           0        3.359234   -0.894714   -6.792743
    149          1           0        4.985149    1.507710   -6.384214
    150          1           0        5.555838   -0.139842   -6.836637
    151          1           0        5.129455    0.284307   -5.118320
    152          1           0        3.754857   -5.380217   -3.126441
    153          1           0        2.954007   -4.207453   -4.221637
    154          1           0        2.038261   -4.848594   -2.799450
    155          1           0        3.368796   -3.921054    2.066139
    156          1           0        6.204199   -6.047861    4.519710
    157          1           0        6.586073   -4.257852    4.936825
    158          1           0        7.315964   -5.180483    3.599566
 ---------------------------------------------------------------------

 SCF Done:  E(RCAM-B3LYP) =  -4069.81255726     A.U. after   19 cycles

 Excitation energies and oscillator strengths:

 Excited State   1:      Singlet-A      1.6582 eV  747.71 nm  f=0.2322  <S**2>=0.000
     309 -> 315        0.11633
     310 -> 316       -0.12258
     311 -> 313       -0.47136
     312 -> 314        0.49884
 This state for optimization and/or second-order correction.
 Total Energy, E(TD-HF/TD-DFT) =  -4069.75161970
 Copying the excited state density for this state as the 1-particle RhoCI density.

 Excited State   2:      Singlet-A      1.6825 eV  736.91 nm  f=0.4127  <S**2>=0.000
     309 -> 315       -0.12712
     310 -> 316       -0.12117
     311 -> 313        0.49774
     312 -> 314        0.47072

 Excited State   3:      Singlet-A      2.1844 eV  567.59 nm  f=0.0871  <S**2>=0.000
     309 -> 313       -0.16447
     310 -> 314        0.62110
     312 -> 316        0.26365

 Excited State   4:      Singlet-A      2.1889 eV  566.42 nm  f=0.1088  <S**2>=0.000
     309 -> 313        0.61983
     310 -> 314        0.16309
     311 -> 315        0.26621

 Excited State   5:      Singlet-A      2.2347 eV  554.81 nm  f=0.0000  <S**2>=0.000
     312 -> 313        0.70699

 The electronic state is 1-A.
 Alpha  occ. eigenvalues --  -46.87918 -46.87420 -19.26355 -19.26314 -19.19127
 Alpha  occ. eigenvalues --  -19.19087 -19.19069 -19.18516 -19.18315 -19.17884
 Alpha  occ. eigenvalues --  -14.42560 -14.42275 -14.41565 -14.41098 -14.39542
 Alpha  occ. eigenvalues --  -14.39115 -14.38712 -14.38350 -10.39182 -10.39012
 Alpha  occ. eigenvalues --  -10.35709 -10.35197 -10.34528 -10.34065 -10.31760
 Alpha  occ. eigenvalues --  -10.31707 -10.31502 -10.31089 -10.31023 -10.30840
 Alpha  occ. eigenvalues --  -10.30692 -10.30649 -10.30335 -10.30141 -10.30102
 Alpha  occ. eigenvalues --  -10.30036 -10.29850 -10.29784 -10.29618 -10.29404
 Alpha  occ. eigenvalues --  -10.29174 -10.29143 -10.28785 -10.28645 -10.28628
 Alpha  occ. eigenvalues --  -10.28503 -10.28413 -10.28188 -10.28168 -10.28039
 Alpha  occ. eigenvalues --  -10.27944 -10.27842 -10.27759 -10.27753 -10.27672
 Alpha  occ. eigenvalues --  -10.27576 -10.27549 -10.27522 -10.27427 -10.27271
 Alpha  occ. eigenvalues --  -10.27267 -10.27219 -10.27209 -10.27151 -10.27073
 Alpha  occ. eigenvalues --  -10.26920 -10.26761 -10.26676 -10.26624 -10.26286
 Alpha  occ. eigenvalues --  -10.26247 -10.26195 -10.26136 -10.26003 -10.25990
 Alpha  occ. eigenvalues --  -10.25807 -10.25621 -10.25538 -10.25454 -10.25090
 Alpha  occ. eigenvalues --  -10.24981 -10.24920 -10.24636 -10.24629 -10.24455
 Alpha  occ. eigenvalues --  -10.24449  -3.16660  -3.16170  -1.91541  -1.91128
 Alpha  occ. eigenvalues --   -1.91053  -1.90971  -1.90641  -1.90478  -1.16710
 Alpha  occ. eigenvalues --   -1.16598  -1.08769  -1.08504  -1.07478  -1.06873
 Alpha  occ. eigenvalues --   -1.06774  -1.06744  -1.04693  -1.04282  -1.03879
 Alpha  occ. eigenvalues --   -1.03422  -1.03367  -1.02777  -1.02538  -1.01861
 Alpha  occ. eigenvalues --   -0.92093  -0.91780  -0.89611  -0.89235  -0.89220
 Alpha  occ. eigenvalues --   -0.89027  -0.88378  -0.88011  -0.87937  -0.87772
 Alpha  occ. eigenvalues --   -0.87517  -0.87469  -0.87440  -0.86885  -0.85050
 Alpha  occ. eigenvalues --   -0.84849  -0.84014  -0.83607  -0.83186  -0.82736
 Alpha  occ. eigenvalues --   -0.82709  -0.82493  -0.81674  -0.81440  -0.80713
 Alpha  occ. eigenvalues --   -0.80256  -0.78962  -0.78384  -0.77307  -0.76987
 Alpha  occ. eigenvalues --   -0.76960  -0.76717  -0.76003  -0.75681  -0.74990
 Alpha  occ. eigenvalues --   -0.74552  -0.72895  -0.72442  -0.71776  -0.71369
 Alpha  occ. eigenvalues --   -0.69958  -0.69469  -0.68964  -0.68666  -0.67782
 Alpha  occ. eigenvalues --   -0.67388  -0.67286  -0.67053  -0.65351  -0.65126
 Alpha  occ. eigenvalues --   -0.64958  -0.64706  -0.64551  -0.64470  -0.64359
 Alpha  occ. eigenvalues --   -0.63935  -0.62385  -0.62125  -0.60609  -0.60096
 Alpha  occ. eigenvalues --   -0.59886  -0.59638  -0.59100  -0.58760  -0.58623
 Alpha  occ. eigenvalues --   -0.58210  -0.57700  -0.57433  -0.57401  -0.56995
 Alpha  occ. eigenvalues --   -0.56451  -0.56053  -0.55982  -0.55758  -0.55681
 Alpha  occ. eigenvalues --   -0.55426  -0.55275  -0.55018  -0.54603  -0.54278
 Alpha  occ. eigenvalues --   -0.53949  -0.53800  -0.53464  -0.53335  -0.53045
 Alpha  occ. eigenvalues --   -0.53004  -0.52963  -0.52897  -0.52740  -0.52486
 Alpha  occ. eigenvalues --   -0.52485  -0.52119  -0.52056  -0.51711  -0.51557
 Alpha  occ. eigenvalues --   -0.51507  -0.51291  -0.50994  -0.50799  -0.50258
 Alpha  occ. eigenvalues --   -0.50122  -0.50086  -0.49809  -0.49632  -0.49598
 Alpha  occ. eigenvalues --   -0.49354  -0.49310  -0.49168  -0.49041  -0.48929
 Alpha  occ. eigenvalues --   -0.48698  -0.48648  -0.48557  -0.48395  -0.48162
 Alpha  occ. eigenvalues --   -0.48103  -0.47807  -0.47431  -0.47397  -0.46889
 Alpha  occ. eigenvalues --   -0.46886  -0.46615  -0.46502  -0.46477  -0.46383
 Alpha  occ. eigenvalues --   -0.46271  -0.46021  -0.45920  -0.45830  -0.45625
 Alpha  occ. eigenvalues --   -0.45299  -0.44959  -0.44713  -0.44628  -0.44373
 Alpha  occ. eigenvalues --   -0.44273  -0.44253  -0.44152  -0.44146  -0.43960
 Alpha  occ. eigenvalues --   -0.43848  -0.43758  -0.43598  -0.43462  -0.43402
 Alpha  occ. eigenvalues --   -0.43202  -0.43136  -0.42803  -0.42788  -0.42718
 Alpha  occ. eigenvalues --   -0.42685  -0.42293  -0.42067  -0.41821  -0.41752
 Alpha  occ. eigenvalues --   -0.41585  -0.41478  -0.41286  -0.41242  -0.41045
 Alpha  occ. eigenvalues --   -0.40903  -0.40807  -0.40645  -0.40564  -0.40536
 Alpha  occ. eigenvalues --   -0.40239  -0.40228  -0.40126  -0.39475  -0.39126
 Alpha  occ. eigenvalues --   -0.38540  -0.38101  -0.37780  -0.37536  -0.37412
 Alpha  occ. eigenvalues --   -0.37318  -0.37027  -0.36989  -0.36801  -0.36665
 Alpha  occ. eigenvalues --   -0.36279  -0.35989  -0.34405  -0.34022  -0.33885
 Alpha  occ. eigenvalues --   -0.33755  -0.33313  -0.32924  -0.31594  -0.31158
 Alpha  occ. eigenvalues --   -0.31076  -0.30747  -0.30168  -0.29794  -0.29618
 Alpha  occ. eigenvalues --   -0.29468  -0.29088  -0.28959  -0.24201  -0.23788
 Alpha  occ. eigenvalues --   -0.21255  -0.20867
 Alpha virt. eigenvalues --   -0.08920  -0.08546  -0.01884  -0.01436  -0.00239
 Alpha virt. eigenvalues --    0.00173   0.02053   0.02347   0.02564   0.03582
 Alpha virt. eigenvalues --    0.04650   0.04897   0.04995   0.05258   0.06169

 Mulliken charges:
               1
     1  Mg   0.838959
     2  C   -0.002721
     3  C   -0.093981
     4  C   -0.046185
     5  C   -0.063985
     6  N   -0.256955
     7  C   -0.051670
     8  C   -0.014213
     9  C   -0.086973
    10  C    0.046453
    11  C    0.104767
    12  C    0.053560
    13  C   -0.073413
    14  H    0.040501
    15  N   -0.433089
    16  C    0.168038
    17  C   -0.177430
    18  C   -0.005235
    19  C    0.148510
    20  C    0.110035
    21  C    0.010418
    22  O   -0.250408
    23  C    0.062545
    24  N   -0.341398
    25  C    0.041720
    26  C   -0.027940
    27  C   -0.024111
    28  C    0.075701
    29  C    0.076191
    30  C    0.034871
    31  C   -0.005439
    32  N   -0.310606
    33  C    0.080895
    34  C   -0.170437
    35  C    0.008084
    36  C    0.083310
    37  C    0.127429
    38  C    0.045633
    39  O   -0.188425
    40  C   -0.005174
    41  C    0.213126
    42  O   -0.258254
    43  O   -0.304507
    44  C    0.157748
    45  H   -0.017366
    46  H   -0.017510
    47  H   -0.041092
    48  H    0.001158
    49  H   -0.003400
    50  H    0.025499
    51  H    0.016133
    52  H    0.017073
    53  H    0.011308
    54  H    0.043940
    55  H    0.017222
    56  H    0.018680
    57  H    0.006761
    58  H    0.026957
    59  H    0.037689
    60  H    0.038653
    61  H    0.034415
    62  H    0.028879
    63  H    0.015856
    64  H    0.009584
    65  H    0.022869
    66  H    0.012462
    67  H    0.005109
    68  H    0.006381
    69  H    0.004989
    70  H    0.007220
    71  H    0.023513
    72  H    0.028572
    73  H    0.046678
    74  H    0.009604
    75  H    0.046552
    76  H    0.035630
    77  H    0.043154
    78  H    0.047950
    79  H    0.052721
    80  Mg   0.837302
    81  C   -0.017321
    82  C   -0.088231
    83  C   -0.045548
    84  C   -0.058446
    85  N   -0.254522
    86  C   -0.050275
    87  C   -0.014821
    88  C   -0.091288
    89  C    0.044849
    90  C    0.114055
    91  C    0.062775
    92  C   -0.077379
    93  H    0.034486
    94  N   -0.423450
    95  C    0.162101
    96  C   -0.174307
    97  C   -0.008386
    98  C    0.152097
    99  C    0.099387
   100  C    0.014967
   101  O   -0.254213
   102  C    0.061336
   103  N   -0.349957
   104  C    0.037710
   105  C   -0.020334
   106  C   -0.035951
   107  C    0.088602
   108  C    0.072610
   109  C    0.034494
   110  C   -0.007498
   111  N   -0.324622
   112  C    0.077961
   113  C   -0.159649
   114  C    0.001310
   115  C    0.096822
   116  C    0.131401
   117  C    0.042222
   118  O   -0.189713
   119  C    0.000910
   120  C    0.211064
   121  O   -0.250858
   122  O   -0.306309
   123  C    0.152152
   124  H   -0.018508
   125  H   -0.016482
   126  H   -0.037408
   127  H   -0.002793
   128  H   -0.004872
   129  H    0.021422
   130  H    0.018849
   131  H    0.011772
   132  H    0.014395
   133  H    0.037744
   134  H    0.019028
   135  H    0.019553
   136  H    0.009325
   137  H    0.026700
   138  H    0.038794
   139  H    0.038213
   140  H    0.035515
   141  H    0.033804
   142  H    0.013479
   143  H    0.018538
   144  H    0.022949
   145  H    0.010881
   146  H    0.009708
   147  H    0.005978
   148  H    0.004831
   149  H    0.010193
   150  H    0.017300
   151  H    0.029599
   152  H    0.043556
   153  H    0.009368
   154  H    0.052462
   155  H    0.032998
   156  H    0.042974
   157  H    0.049081
   158  H    0.053731
 Sum of Mulliken charges =  -0.00000

 Dipole moment (field-independent basis, Debye):
    X=             -2.7100    Y=              1.6870    Z=              6.4146  Tot=              7.1650
 Quadrupole moment (field-independent basis, Debye-Ang):
   XX=           -519.6868   YY=           -514.7704   ZZ=           -484.9949
   XY=             19.3931   XZ=              1.4836   YZ=            -16.0086

 Normal termination of Gaussian 16 at Fri Sep  3 15:40:30 2021.
