 Gaussian 16, Revision A.03,
 Gaussian 16:  ES64L-G16RevA.03 25-Dec-2016

 -----------------------------------
 #p cam-b3lyp/Def2SVP td=(nstates=5)
 -----------------------------------

 --------------------------------
 TDDFT excited states in gaussian
 --------------------------------
 Symbolic Z-matrix:
 Charge =  0 Multiplicity = 1

                         Standard orientation:
 ---------------------------------------------------------------------
 Center     Atomic      Atomic             Coordinates (Angstroms)
 Number     Number       Type             X           Y           Z
 ---------------------------------------------------------------------
      1         12           0      -15.868612   -0.684639    0.103716
      2          6           0      -16.047200    2.867494    0.507043
      3          6           0      -16.754750   -0.209523   -3.156972
      4          6           0      -16.160766   -3.831166   -0.162051
      5          6           0      -16.116641   -0.942560    3.570360
      6          7           0      -16.315321    1.144788   -1.060025
      7          6           0      -16.289753    2.448827   -0.803122
      8          6           0      -16.470346    3.332457   -2.073539
      9          6           0      -17.233762    2.285157   -3.002170
     10          6           0      -16.710733    0.995463   -2.394671
     11          6           0      -18.750360    2.322925   -2.844037
     12          6           0      -15.100499    3.760966   -2.699341
     13          6           0      -15.179479    4.882684   -3.738988
     14          1           0      -14.098002    5.853988   -3.804724
     15          7           0      -15.902513   -1.837234   -1.500411
     16          6           0      -16.274920   -1.473625   -2.751166
     17          6           0      -16.126432   -2.683365   -3.588520
     18          6           0      -15.819284   -3.827036   -2.685320
     19          6           0      -15.976463   -3.207972   -1.394029
     20          6           0      -16.227181   -2.667101   -5.082954
     21          6           0      -15.453963   -5.254406   -2.944717
     22          8           0      -15.456119   -6.136100   -2.018874
     23          6           0      -15.175618   -5.617010   -4.346175
     24          7           0      -16.325365   -2.189363    1.476602
     25          6           0      -16.329564   -3.476662    1.113519
     26          6           0      -16.401670   -4.380723    2.308263
     27          6           0      -16.200307   -3.443040    3.584961
     28          6           0      -16.124857   -2.074879    2.863356
     29          6           0      -17.701513   -5.182151    2.463608
     30          6           0      -15.062127   -3.823937    4.564696
     31          6           0      -13.720950   -3.632377    3.892648
     32          7           0      -15.872722    0.693242    1.780759
     33          6           0      -16.009590    0.368799    3.138212
     34          6           0      -16.062677    1.640216    3.883025
     35          6           0      -15.969062    2.622583    2.899136
     36          6           0      -15.890566    2.004370    1.618533
     37          6           0      -16.241163    1.776137    5.288053
     38          6           0      -15.941887    4.051073    2.629816
     39          8           0      -15.883209    5.064200    3.328117
     40          6           0      -16.114107    4.268694    1.061757
     41          6           0      -15.062786    5.250394    0.620964
     42          8           0      -13.852021    4.950162    0.656644
     43          8           0      -15.652736    6.288669    0.009011
     44          6           0      -14.663159    7.285911   -0.479250
     45          1           0      -17.253610   -0.201834   -4.128065
     46          1           0      -16.155667   -4.922542   -0.198249
     47          1           0      -16.108281   -0.945573    4.661861
     48          1           0      -17.087647    4.218897   -1.926611
     49          1           0      -16.925708    2.365288   -4.044477
     50          1           0      -19.049237    2.974930   -2.023377
     51          1           0      -19.047472    1.293978   -2.640357
     52          1           0      -19.231268    2.593085   -3.784526
     53          1           0      -14.723398    2.953072   -3.326369
     54          1           0      -14.391065    4.041121   -1.919892
     55          1           0      -16.145240    5.387890   -3.707650
     56          1           0      -15.141420    4.432310   -4.730913
     57          1           0      -16.623631   -1.720216   -5.447347
     58          1           0      -16.982817   -3.402245   -5.359155
     59          1           0      -15.279690   -2.916464   -5.560879
     60          1           0      -16.053293   -5.399654   -4.955267
     61          1           0      -14.845155   -6.654953   -4.328284
     62          1           0      -14.375207   -4.979864   -4.723450
     63          1           0      -15.607455   -5.125727    2.283413
     64          1           0      -17.091238   -3.409621    4.212495
     65          1           0      -17.547776   -6.260360    2.513958
     66          1           0      -18.360390   -4.919278    1.636523
     67          1           0      -18.310601   -4.903115    3.323008
     68          1           0      -15.135365   -4.875340    4.840622
     69          1           0      -15.071698   -3.238337    5.484061
     70          1           0      -13.592289   -4.560592    3.337046
     71          1           0      -12.935150   -3.512068    4.639143
     72          1           0      -13.751921   -2.819681    3.166664
     73          1           0      -15.536497    2.541786    5.612393
     74          1           0      -16.064835    0.831909    5.802783
     75          1           0      -17.285258    2.085921    5.329935
     76          1           0      -17.122350    4.651728    0.907315
     77          1           0      -14.935489    8.247720   -0.044515
     78          1           0      -14.653844    7.206516   -1.566455
     79          1           0      -13.643416    7.174132   -0.109157
     80         12           0       15.886774   -0.881197   -0.040179
     81          6           0       16.486903    2.639424    0.312123
     82          6           0       14.323380   -0.168157   -2.986698
     83          6           0       14.949876   -3.910207   -0.161544
     84          6           0       16.455474   -1.179867    3.385182
     85          7           0       15.517343    1.027418   -1.095154
     86          6           0       15.845633    2.295054   -0.896020
     87          6           0       15.537206    3.234902   -2.092318
     88          6           0       14.373798    2.370331   -2.783617
     89          6           0       14.776014    0.981564   -2.291458
     90          6           0       12.988446    2.685498   -2.244347
     91          6           0       16.768921    3.409045   -3.048648
     92          6           0       16.640560    4.548925   -4.061543
     93          1           0       17.840591    5.299791   -4.420169
     94          7           0       15.239207   -1.964813   -1.571521
     95          6           0       14.649782   -1.511390   -2.697685
     96          6           0       14.343201   -2.705618   -3.500184
     97          6           0       14.650254   -3.911133   -2.683383
     98          6           0       14.945143   -3.295361   -1.405125
     99          6           0       13.887690   -2.631182   -4.928605
    100          6           0       14.662413   -5.376631   -2.997029
    101          8           0       14.727292   -6.262477   -2.072957
    102          6           0       14.502037   -5.745786   -4.411065
    103          7           0       15.516503   -2.302582    1.431192
    104          6           0       15.171472   -3.560743    1.105768
    105          6           0       15.226661   -4.470289    2.309960
    106          6           0       15.916981   -3.609291    3.467413
    107          6           0       16.066964   -2.262754    2.725957
    108          6           0       13.881465   -5.001504    2.804601
    109          6           0       17.171693   -4.222341    4.147524
    110          6           0       18.315692   -4.282900    3.161134
    111          7           0       16.560703    0.424010    1.544223
    112          6           0       16.702946    0.102359    2.911845
    113          6           0       17.078156    1.346292    3.614908
    114          6           0       17.105919    2.317823    2.603065
    115          6           0       16.751918    1.725628    1.360687
    116          6           0       17.293390    1.477526    5.015828
    117          6           0       17.343843    3.711877    2.305241
    118          8           0       17.757053    4.678498    2.944498
    119          6           0       16.830494    4.008328    0.830458
    120          6           0       17.902649    4.780818    0.111936
    121          8           0       19.003279    4.256172   -0.132935
    122          8           0       17.379673    5.928360   -0.357126
    123          6           0       18.402094    6.724305   -1.087155
    124          1           0       13.617187   -0.034133   -3.806584
    125          1           0       14.741142   -4.982548   -0.164949
    126          1           0       16.745932   -1.209899    4.437517
    127          1           0       15.160152    4.212430   -1.816565
    128          1           0       14.433662    2.422863   -3.867601
    129          1           0       13.028152    3.356563   -1.399228
    130          1           0       12.562980    1.734275   -1.952476
    131          1           0       12.349975    3.068011   -3.045822
    132          1           0       16.813970    2.552884   -3.733998
    133          1           0       17.674641    3.525928   -2.485953
    134          1           0       15.820091    5.232360   -3.811182
    135          1           0       16.351334    4.124991   -5.026246
    136          1           0       13.593451   -1.610987   -5.204335
    137          1           0       12.960252   -3.209775   -4.999040
    138          1           0       14.617852   -3.047637   -5.625800
    139          1           0       13.561669   -5.346938   -4.784010
    140          1           0       14.626273   -6.829862   -4.445981
    141          1           0       15.299033   -5.266381   -4.990361
    142          1           0       15.837276   -5.341893    2.108596
    143          1           0       15.229718   -3.430651    4.307404
    144          1           0       13.834322   -6.106356    2.838593
    145          1           0       13.102813   -4.607168    2.165290
    146          1           0       13.576869   -4.644347    3.786865
    147          1           0       16.971319   -5.251947    4.454011
    148          1           0       17.492636   -3.680107    5.030686
    149          1           0       18.117640   -5.207052    2.609953
    150          1           0       19.269304   -4.331227    3.682982
    151          1           0       18.262475   -3.454339    2.445367
    152          1           0       18.180297    2.084736    5.139017
    153          1           0       17.405957    0.506464    5.493469
    154          1           0       16.365127    1.974562    5.310048
    155          1           0       15.903152    4.576282    0.914337
    156          1           0       18.430504    7.713457   -0.619766
    157          1           0       18.110531    6.679157   -2.153322
    158          1           0       19.437050    6.416641   -0.994150
 ---------------------------------------------------------------------

 SCF Done:  E(RCAM-B3LYP) =  -4069.81176390     A.U. after   19 cycles

 Excitation energies and oscillator strengths:

 Excited State   1:      Singlet-A      1.6753 eV  740.06 nm  f=0.2293  <S**2>=0.000
     310 -> 316        0.16909
     311 -> 314       -0.15433
     312 -> 313        0.66847
     310 <- 316        0.10194
 This state for optimization and/or second-order correction.
 Total Energy, E(TD-HF/TD-DFT) =  -4069.75019644
 Copying the excited state density for this state as the 1-particle RhoCI density.

 Excited State   2:      Singlet-A      1.6801 eV  737.97 nm  f=0.5485  <S**2>=0.000
     309 -> 315        0.17111
     311 -> 314        0.66811
     312 -> 313        0.15428
     309 <- 315        0.10245

 Excited State   3:      Singlet-A      2.1861 eV  567.15 nm  f=0.0951  <S**2>=0.000
     310 -> 313        0.64210
     312 -> 316       -0.27294

 Excited State   4:      Singlet-A      2.1925 eV  565.48 nm  f=0.1050  <S**2>=0.000
     309 -> 314        0.64032
     311 -> 315       -0.27815

 Excited State   5:      Singlet-A      3.0648 eV  404.54 nm  f=0.0000  <S**2>=0.000
     312 -> 314        0.70711

 The electronic state is 1-A.
 Alpha  occ. eigenvalues --  -46.87806 -46.87661 -19.26349 -19.26294 -19.19161
 Alpha  occ. eigenvalues --  -19.19030 -19.18824 -19.18715 -19.18178 -19.18051
 Alpha  occ. eigenvalues --  -14.42497 -14.42459 -14.41458 -14.41359 -14.39412
 Alpha  occ. eigenvalues --  -14.39352 -14.38600 -14.38596 -10.39090 -10.39089
 Alpha  occ. eigenvalues --  -10.35458 -10.35393 -10.34398 -10.34228 -10.31756
 Alpha  occ. eigenvalues --  -10.31690 -10.31414 -10.31308 -10.31023 -10.30918
 Alpha  occ. eigenvalues --  -10.30579 -10.30516 -10.30398 -10.30361 -10.30216
 Alpha  occ. eigenvalues --  -10.30141 -10.29929 -10.29894 -10.29640 -10.29437
 Alpha  occ. eigenvalues --  -10.29401 -10.29263 -10.28759 -10.28719 -10.28655
 Alpha  occ. eigenvalues --  -10.28551 -10.28405 -10.28374 -10.28139 -10.28126
 Alpha  occ. eigenvalues --  -10.28001 -10.27802 -10.27736 -10.27669 -10.27593
 Alpha  occ. eigenvalues --  -10.27518 -10.27508 -10.27492 -10.27484 -10.27468
 Alpha  occ. eigenvalues --  -10.27465 -10.27457 -10.27412 -10.27375 -10.27167
 Alpha  occ. eigenvalues --  -10.27050 -10.26716 -10.26693 -10.26420 -10.26417
 Alpha  occ. eigenvalues --  -10.26243 -10.26191 -10.26138 -10.26028 -10.26022
 Alpha  occ. eigenvalues --  -10.25934 -10.25851 -10.25850 -10.25442 -10.25396
 Alpha  occ. eigenvalues --  -10.24873 -10.24841 -10.24796 -10.24732 -10.24695
 Alpha  occ. eigenvalues --  -10.24690  -3.16548  -3.16411  -1.91430  -1.91293
 Alpha  occ. eigenvalues --   -1.91017  -1.90881  -1.90859  -1.90718  -1.16643
 Alpha  occ. eigenvalues --   -1.16643  -1.08658  -1.08636  -1.07225  -1.06967
 Alpha  occ. eigenvalues --   -1.06945  -1.06652  -1.04590  -1.04495  -1.03769
 Alpha  occ. eigenvalues --   -1.03663  -1.03243  -1.03039  -1.02420  -1.02112
 Alpha  occ. eigenvalues --   -0.91987  -0.91981  -0.89528  -0.89495  -0.89198
 Alpha  occ. eigenvalues --   -0.89151  -0.88295  -0.88220  -0.87879  -0.87794
 Alpha  occ. eigenvalues --   -0.87684  -0.87682  -0.87283  -0.87121  -0.85000
 Alpha  occ. eigenvalues --   -0.84992  -0.83944  -0.83876  -0.82977  -0.82932
 Alpha  occ. eigenvalues --   -0.82658  -0.82653  -0.81596  -0.81595  -0.80606
 Alpha  occ. eigenvalues --   -0.80443  -0.78806  -0.78636  -0.77227  -0.77145
 Alpha  occ. eigenvalues --   -0.76944  -0.76898  -0.75932  -0.75838  -0.74906
 Alpha  occ. eigenvalues --   -0.74803  -0.72783  -0.72699  -0.71681  -0.71581
 Alpha  occ. eigenvalues --   -0.69915  -0.69758  -0.68883  -0.68827  -0.67650
 Alpha  occ. eigenvalues --   -0.67602  -0.67230  -0.67200  -0.65296  -0.65272
 Alpha  occ. eigenvalues --   -0.64863  -0.64770  -0.64654  -0.64630  -0.64278
 Alpha  occ. eigenvalues --   -0.64204  -0.62307  -0.62278  -0.60451  -0.60340
 Alpha  occ. eigenvalues --   -0.59814  -0.59796  -0.58996  -0.58993  -0.58513
 Alpha  occ. eigenvalues --   -0.58426  -0.57593  -0.57554  -0.57317  -0.57237
 Alpha  occ. eigenvalues --   -0.56319  -0.56205  -0.55988  -0.55886  -0.55529
 Alpha  occ. eigenvalues --   -0.55452  -0.55348  -0.55248  -0.54532  -0.54488
 Alpha  occ. eigenvalues --   -0.53912  -0.53905  -0.53308  -0.53231  -0.53228
 Alpha  occ. eigenvalues --   -0.53142  -0.52924  -0.52902  -0.52766  -0.52669
 Alpha  occ. eigenvalues --   -0.52446  -0.52402  -0.51923  -0.51885  -0.51659
 Alpha  occ. eigenvalues --   -0.51626  -0.51205  -0.51201  -0.50582  -0.50476
 Alpha  occ. eigenvalues --   -0.50040  -0.49980  -0.49928  -0.49867  -0.49524
 Alpha  occ. eigenvalues --   -0.49488  -0.49224  -0.49202  -0.49105  -0.49104
 Alpha  occ. eigenvalues --   -0.48602  -0.48558  -0.48470  -0.48455  -0.48376
 Alpha  occ. eigenvalues --   -0.48339  -0.47704  -0.47595  -0.47306  -0.47118
 Alpha  occ. eigenvalues --   -0.46806  -0.46709  -0.46565  -0.46554  -0.46368
 Alpha  occ. eigenvalues --   -0.46271  -0.46171  -0.46085  -0.45831  -0.45822
 Alpha  occ. eigenvalues --   -0.45209  -0.45209  -0.44587  -0.44516  -0.44514
 Alpha  occ. eigenvalues --   -0.44476  -0.44153  -0.44127  -0.44098  -0.44078
 Alpha  occ. eigenvalues --   -0.44029  -0.43940  -0.43553  -0.43504  -0.43395
 Alpha  occ. eigenvalues --   -0.43386  -0.43036  -0.42930  -0.42901  -0.42708
 Alpha  occ. eigenvalues --   -0.42663  -0.42554  -0.42018  -0.41964  -0.41713
 Alpha  occ. eigenvalues --   -0.41669  -0.41543  -0.41459  -0.41150  -0.40989
 Alpha  occ. eigenvalues --   -0.40878  -0.40833  -0.40723  -0.40699  -0.40580
 Alpha  occ. eigenvalues --   -0.40493  -0.40245  -0.40227  -0.39449  -0.39426
 Alpha  occ. eigenvalues --   -0.38477  -0.38350  -0.37758  -0.37654  -0.37329
 Alpha  occ. eigenvalues --   -0.37273  -0.37266  -0.37199  -0.36771  -0.36722
 Alpha  occ. eigenvalues --   -0.36217  -0.36201  -0.34295  -0.34253  -0.33862
 Alpha  occ. eigenvalues --   -0.33780  -0.33195  -0.33176  -0.31354  -0.31274
 Alpha  occ. eigenvalues --   -0.31044  -0.30973  -0.30037  -0.29955  -0.29458
 Alpha  occ. eigenvalues --   -0.29331  -0.29328  -0.29212  -0.24089  -0.24036
 Alpha  occ. eigenvalues --   -0.21136  -0.21117
 Alpha virt. eigenvalues --   -0.08792  -0.08783  -0.01759  -0.01684  -0.00067
 Alpha virt. eigenvalues --   -0.00029   0.02192   0.02207   0.03113   0.03226
 Alpha virt. eigenvalues --    0.04709   0.04729   0.05088   0.05165   0.06167

 Mulliken charges:
               1
     1  Mg   0.838784
     2  C   -0.002963
     3  C   -0.094130
     4  C   -0.045883
     5  C   -0.063949
     6  N   -0.256801
     7  C   -0.052469
     8  C   -0.014009
     9  C   -0.087006
    10  C    0.046322
    11  C    0.104811
    12  C    0.053474
    13  C   -0.071786
    14  H    0.036087
    15  N   -0.433150
    16  C    0.168411
    17  C   -0.177162
    18  C   -0.004014
    19  C    0.148722
    20  C    0.110179
    21  C    0.012285
    22  O   -0.249614
    23  C    0.062478
    24  N   -0.341150
    25  C    0.041252
    26  C   -0.028193
    27  C   -0.023956
    28  C    0.074826
    29  C    0.076167
    30  C    0.035132
    31  C   -0.004507
    32  N   -0.310475
    33  C    0.080408
    34  C   -0.169699
    35  C    0.008358
    36  C    0.082979
    37  C    0.127312
    38  C    0.046127
    39  O   -0.188425
    40  C   -0.005348
    41  C    0.212886
    42  O   -0.257128
    43  O   -0.304788
    44  C    0.157700
    45  H   -0.017605
    46  H   -0.016827
    47  H   -0.041472
    48  H    0.000947
    49  H   -0.004050
    50  H    0.025484
    51  H    0.016456
    52  H    0.016658
    53  H    0.011184
    54  H    0.044114
    55  H    0.017889
    56  H    0.017933
    57  H    0.005867
    58  H    0.026833
    59  H    0.039521
    60  H    0.037352
    61  H    0.035652
    62  H    0.031474
    63  H    0.016558
    64  H    0.009476
    65  H    0.023224
    66  H    0.012547
    67  H    0.004769
    68  H    0.006381
    69  H    0.004743
    70  H    0.008779
    71  H    0.018154
    72  H    0.028961
    73  H    0.047578
    74  H    0.009124
    75  H    0.046024
    76  H    0.035163
    77  H    0.042961
    78  H    0.046386
    79  H    0.053671
    80  Mg   0.837839
    81  C   -0.016820
    82  C   -0.087772
    83  C   -0.045496
    84  C   -0.064867
    85  N   -0.254574
    86  C   -0.049806
    87  C   -0.015105
    88  C   -0.090529
    89  C    0.045777
    90  C    0.114371
    91  C    0.062525
    92  C   -0.077895
    93  H    0.034887
    94  N   -0.423490
    95  C    0.162911
    96  C   -0.174608
    97  C   -0.007811
    98  C    0.152123
    99  C    0.099363
   100  C    0.015581
   101  O   -0.253176
   102  C    0.061193
   103  N   -0.350055
   104  C    0.037517
   105  C   -0.019833
   106  C   -0.034809
   107  C    0.088914
   108  C    0.073647
   109  C    0.034708
   110  C   -0.007666
   111  N   -0.324108
   112  C    0.078448
   113  C   -0.163119
   114  C    0.002256
   115  C    0.096173
   116  C    0.131487
   117  C    0.042404
   118  O   -0.187858
   119  C    0.000908
   120  C    0.211267
   121  O   -0.251034
   122  O   -0.305621
   123  C    0.152028
   124  H   -0.019643
   125  H   -0.015553
   126  H   -0.040438
   127  H   -0.000620
   128  H   -0.004336
   129  H    0.022498
   130  H    0.014457
   131  H    0.016306
   132  H    0.013907
   133  H    0.037669
   134  H    0.020812
   135  H    0.019583
   136  H    0.008764
   137  H    0.026162
   138  H    0.039775
   139  H    0.038260
   140  H    0.036395
   141  H    0.033883
   142  H    0.014392
   143  H    0.012458
   144  H    0.025148
   145  H    0.011671
   146  H    0.005715
   147  H    0.006279
   148  H    0.003662
   149  H    0.010928
   150  H    0.017927
   151  H    0.030090
   152  H    0.046003
   153  H    0.008518
   154  H    0.046994
   155  H    0.035070
   156  H    0.043929
   157  H    0.049492
   158  H    0.053569
 Sum of Mulliken charges =  -0.00000

 Dipole moment (field-independent basis, Debye):
    X=             -5.0905    Y=             -1.5278    Z=             -7.2297  Tot=              8.9730
 Quadrupole moment (field-independent basis, Debye-Ang):
   XX=           -551.7067   YY=           -543.4385   ZZ=           -453.3137
   XY=             -5.0809   XZ=             14.7196   YZ=            -52.2958

 Normal termination of Gaussian 16 at Sun Sep 12 13:10:04 2021.
