 Gaussian 16, Revision A.03,
 Gaussian 16:  ES64L-G16RevA.03 25-Dec-2016

 -----------------------------------
 #p cam-b3lyp/Def2SVP td=(nstates=5)
 -----------------------------------

 --------------------------------
 TDDFT excited states in gaussian
 --------------------------------
 Symbolic Z-matrix:
 Charge =  0 Multiplicity = 1

                         Standard orientation:
 ---------------------------------------------------------------------
 Center     Atomic      Atomic             Coordinates (Angstroms)
 Number     Number       Type             X           Y           Z
 ---------------------------------------------------------------------
      1         12           0        6.465957   -0.973029    0.253039
      2          6           0        7.070115    2.032555   -1.594574
      3          6           0        7.637283    0.662410    3.009195
      4          6           0        6.369673   -3.739010    1.801167
      5          6           0        6.429594   -2.663818   -2.794185
      6          7           0        7.226314    1.085554    0.544140
      7          6           0        7.350168    2.157661   -0.232016
      8          6           0        7.733423    3.447735    0.552967
      9          6           0        8.420537    2.774087    1.824214
     10          6           0        7.693926    1.440717    1.815017
     11          6           0        9.914142    2.520766    1.646804
     12          6           0        6.478417    4.291095    0.959701
     13          6           0        6.775213    5.715696    1.436961
     14          1           0        5.835028    6.775550    1.105132
     15          7           0        6.466399   -1.357320    2.190865
     16          6           0        6.971150   -0.571512    3.172200
     17          6           0        6.728870   -1.295072    4.438866
     18          6           0        6.213351   -2.649988    4.097492
     19          6           0        6.355783   -2.645603    2.663939
     20          6           0        6.937760   -0.682089    5.789557
     21          6           0        5.687195   -3.774750    4.931880
     22          8           0        5.509653   -4.948517    4.457198
     23          6           0        5.465768   -3.485327    6.360252
     24          7           0        6.625955   -2.957665   -0.374060
     25          6           0        6.490729   -3.968008    0.491911
     26          6           0        6.360223   -5.282489   -0.218754
     27          6           0        6.190003   -4.932744   -1.767449
     28          6           0        6.342913   -3.394153   -1.680109
     29          6           0        7.531800   -6.258229   -0.041695
     30          6           0        4.945023   -5.510606   -2.486143
     31          6           0        3.691245   -4.865753   -1.939057
     32          7           0        6.526833   -0.421450   -1.845318
     33          6           0        6.523195   -1.290475   -2.945980
     34          6           0        6.685674   -0.459441   -4.153064
     35          6           0        6.789850    0.842170   -3.666441
     36          6           0        6.724588    0.822625   -2.243890
     37          6           0        6.778945   -0.939718   -5.489128
     38          6           0        6.965834    2.242423   -4.015978
     39          8           0        6.987910    2.876447   -5.071923
     40          6           0        7.276569    3.056369   -2.683025
     41          6           0        6.394440    4.275031   -2.678559
     42          8           0        5.155717    4.167738   -2.571697
     43          8           0        7.155258    5.374113   -2.561432
     44          6           0        6.339600    6.617183   -2.521011
     45          1           0        8.201327    0.994573    3.882960
     46          1           0        6.226988   -4.705751    2.288497
     47          1           0        6.342679   -3.113113   -3.785160
     48          1           0        8.447373    4.094795    0.043052
     49          1           0        8.200864    3.319020    2.742099
     50          1           0       10.234705    2.727103    0.625733
     51          1           0       10.061202    1.467477    1.886488
     52          1           0       10.491961    3.079254    2.383685
     53          1           0        6.046566    3.876475    1.870556
     54          1           0        5.756818    4.327529    0.142820
     55          1           0        7.793131    6.015924    1.186731
     56          1           0        6.750816    5.722857    2.526710
     57          1           0        7.477690    0.261548    5.721950
     58          1           0        7.610511   -1.341299    6.337788
     59          1           0        6.002807   -0.571493    6.339069
     60          1           0        6.405489   -3.168523    6.813141
     61          1           0        5.004249   -4.378443    6.780007
     62          1           0        4.782990   -2.639656    6.447450
     63          1           0        5.480705   -5.826380    0.123382
     64          1           0        7.030537   -5.290794   -2.362408
     65          1           0        7.237582   -7.226826    0.363225
     66          1           0        8.276582   -5.778929    0.593018
     67          1           0        8.108495   -6.448991   -0.946377
     68          1           0        4.862581   -6.580911   -2.300145
     69          1           0        4.963820   -5.362102   -3.565885
     70          1           0        3.484548   -5.454416   -1.045981
     71          1           0        2.875935   -4.948475   -2.658528
     72          1           0        3.878357   -3.840945   -1.617742
     73          1           0        6.157077   -0.280277   -6.094427
     74          1           0        6.446303   -1.974926   -5.561907
     75          1           0        7.848478   -0.831203   -5.668513
     76          1           0        8.334129    3.316620   -2.713994
     77          1           0        6.701384    7.264599   -3.319884
     78          1           0        6.398134    6.993132   -1.499424
     79          1           0        5.290059    6.514299   -2.798892
     80         12           0       -6.632830    0.917932    0.487471
     81          6           0       -6.919079   -2.312918   -1.048353
     82          6           0       -5.631028    2.107061   -2.548474
     83          6           0       -5.939545    3.670379    1.905489
     84          6           0       -6.540485   -0.708496    3.568363
     85          7           0       -6.351325   -0.072629   -1.470028
     86          6           0       -6.550073   -1.291615   -1.948482
     87          6           0       -6.419751   -1.406282   -3.491019
     88          6           0       -5.473267   -0.134588   -3.747573
     89          6           0       -5.862411    0.708355   -2.534861
     90          6           0       -3.991599   -0.457543   -3.649180
     91          6           0       -7.800210   -1.251410   -4.220654
     92          6           0       -7.797100   -1.658250   -5.695858
     93          1           0       -8.991849   -2.293243   -6.245263
     94          7           0       -6.369526    2.728337   -0.281738
     95          6           0       -5.982631    3.029895   -1.538972
     96          6           0       -5.918038    4.498368   -1.598725
     97          6           0       -6.138613    5.033769   -0.227811
     98          6           0       -6.137062    3.804015    0.538857
     99          6           0       -5.746178    5.253651   -2.884591
    100          6           0       -6.308397    6.423659    0.306597
    101          8           0       -6.249966    6.674056    1.562277
    102          6           0       -6.451800    7.495881   -0.689019
    103          7           0       -6.077099    1.401756    2.431546
    104          6           0       -5.885981    2.681306    2.797784
    105          6           0       -5.764958    2.807118    4.297757
    106          6           0       -6.157765    1.371325    4.882396
    107          6           0       -6.360413    0.605127    3.556776
    108          6           0       -4.387132    3.210400    4.822487
    109          6           0       -7.293257    1.329320    5.941438
    110          6           0       -8.609233    1.710656    5.302556
    111          7           0       -6.896966   -1.110084    1.184197
    112          6           0       -6.790449   -1.576207    2.512916
    113          6           0       -6.938334   -3.045524    2.472025
    114          6           0       -7.098892   -3.336865    1.109000
    115          6           0       -7.034032   -2.136087    0.351735
    116          6           0       -6.866862   -3.920308    3.592628
    117          6           0       -7.297874   -4.388265    0.137584
    118          8           0       -7.513694   -5.597989    0.198726
    119          6           0       -7.063830   -3.785618   -1.314461
    120          6           0       -8.202260   -4.230618   -2.191087
    121          8           0       -9.361681   -3.839843   -1.968282
    122          8           0       -7.706348   -4.864032   -3.269628
    123          6           0       -8.796807   -5.314713   -4.174942
    124          1           0       -5.091169    2.535424   -3.393427
    125          1           0       -5.806689    4.604460    2.456246
    126          1           0       -6.621309   -1.278471    4.496413
    127          1           0       -5.932490   -2.308855   -3.839874
    128          1           0       -5.739950    0.376812   -4.668825
    129          1           0       -3.821224   -1.466916   -3.305259
    130          1           0       -3.581036    0.255885   -2.946680
    131          1           0       -3.498014   -0.257920   -4.604625
    132          1           0       -8.034545   -0.183783   -4.320690
    133          1           0       -8.568966   -1.788033   -3.699433
    134          1           0       -6.900283   -2.229938   -5.963882
    135          1           0       -7.730339   -0.753650   -6.305161
    136          1           0       -5.444764    4.589500   -3.704010
    137          1           0       -4.890561    5.924156   -2.749685
    138          1           0       -6.624237    5.848963   -3.143996
    139          1           0       -5.578080    7.506878   -1.336286
    140          1           0       -6.651698    8.402789   -0.115056
    141          1           0       -7.313140    7.268125   -1.326847
    142          1           0       -6.459278    3.544648    4.681249
    143          1           0       -5.309515    0.894038    5.394730
    144          1           0       -4.407236    4.126300    5.442791
    145          1           0       -3.723936    3.338070    3.977259
    146          1           0       -3.873784    2.447899    5.405813
    147          1           0       -7.105291    2.064695    6.727594
    148          1           0       -7.399174    0.362975    6.423047
    149          1           0       -8.583968    2.804356    5.319387
    150          1           0       -9.443726    1.326116    5.885476
    151          1           0       -8.642196    1.397821    4.252457
    152          1           0       -7.670651   -4.635802    3.480830
    153          1           0       -6.947851   -3.373425    4.529717
    154          1           0       -5.868308   -4.341315    3.448035
    155          1           0       -6.102538   -4.156573   -1.672075
    156          1           0       -8.668139   -6.391979   -4.318502
    157          1           0       -8.722577   -4.674325   -5.073917
    158          1           0       -9.811711   -5.271391   -3.797391
 ---------------------------------------------------------------------

 SCF Done:  E(RCAM-B3LYP) =  -4069.81196211     A.U. after   19 cycles

 Excitation energies and oscillator strengths:

 Excited State   1:      Singlet-A      1.6703 eV  742.28 nm  f=0.1814  <S**2>=0.000
     309 -> 315        0.10265
     310 -> 316        0.13850
     311 -> 313        0.40644
     312 -> 314        0.55296
 This state for optimization and/or second-order correction.
 Total Energy, E(TD-HF/TD-DFT) =  -4069.75057885
 Copying the excited state density for this state as the 1-particle RhoCI density.

 Excited State   2:      Singlet-A      1.6843 eV  736.13 nm  f=0.5528  <S**2>=0.000
     309 -> 315        0.14234
     310 -> 316       -0.10412
     311 -> 313        0.55225
     312 -> 314       -0.40604

 Excited State   3:      Singlet-A      2.1860 eV  567.18 nm  f=0.0832  <S**2>=0.000
     309 -> 313        0.10814
     310 -> 314        0.63346
     312 -> 316       -0.26876

 Excited State   4:      Singlet-A      2.1929 eV  565.39 nm  f=0.1130  <S**2>=0.000
     309 -> 313        0.63170
     310 -> 314       -0.10724
     311 -> 315       -0.27429

 Excited State   5:      Singlet-A      2.6470 eV  468.39 nm  f=0.0000  <S**2>=0.000
     312 -> 313        0.70710

 The electronic state is 1-A.
 Alpha  occ. eigenvalues --  -46.87858 -46.87550 -19.26379 -19.26263 -19.19120
 Alpha  occ. eigenvalues --  -19.19071 -19.18860 -19.18615 -19.18251 -19.17949
 Alpha  occ. eigenvalues --  -14.42510 -14.42380 -14.41508 -14.41255 -14.39463
 Alpha  occ. eigenvalues --  -14.39240 -14.38653 -14.38491 -10.39176 -10.39000
 Alpha  occ. eigenvalues --  -10.35492 -10.35292 -10.34472 -10.34127 -10.31777
 Alpha  occ. eigenvalues --  -10.31678 -10.31470 -10.31186 -10.30966 -10.30901
 Alpha  occ. eigenvalues --  -10.30637 -10.30571 -10.30295 -10.30259 -10.30248
 Alpha  occ. eigenvalues --  -10.30039 -10.29981 -10.29802 -10.29695 -10.29323
 Alpha  occ. eigenvalues --  -10.29313 -10.29293 -10.28806 -10.28588 -10.28588
 Alpha  occ. eigenvalues --  -10.28541 -10.28428 -10.28291 -10.28172 -10.27988
 Alpha  occ. eigenvalues --  -10.27889 -10.27859 -10.27787 -10.27645 -10.27547
 Alpha  occ. eigenvalues --  -10.27540 -10.27531 -10.27491 -10.27467 -10.27452
 Alpha  occ. eigenvalues --  -10.27373 -10.27356 -10.27316 -10.27313 -10.27237
 Alpha  occ. eigenvalues --  -10.26949 -10.26761 -10.26575 -10.26447 -10.26312
 Alpha  occ. eigenvalues --  -10.26286 -10.26229 -10.26089 -10.26080 -10.25932
 Alpha  occ. eigenvalues --  -10.25833 -10.25827 -10.25760 -10.25468 -10.25354
 Alpha  occ. eigenvalues --  -10.24902 -10.24845 -10.24763 -10.24736 -10.24681
 Alpha  occ. eigenvalues --  -10.24588  -3.16601  -3.16300  -1.91483  -1.91182
 Alpha  occ. eigenvalues --   -1.91069  -1.90911  -1.90771  -1.90608  -1.16728
 Alpha  occ. eigenvalues --   -1.16556  -1.08712  -1.08559  -1.07259  -1.06868
 Alpha  occ. eigenvalues --   -1.06856  -1.06741  -1.04642  -1.04377  -1.03819
 Alpha  occ. eigenvalues --   -1.03554  -1.03296  -1.02934  -1.02473  -1.02004
 Alpha  occ. eigenvalues --   -0.92040  -0.91878  -0.89575  -0.89406  -0.89245
 Alpha  occ. eigenvalues --   -0.89015  -0.88338  -0.88141  -0.87943  -0.87732
 Alpha  occ. eigenvalues --   -0.87690  -0.87569  -0.87328  -0.87003  -0.85039
 Alpha  occ. eigenvalues --   -0.84878  -0.83989  -0.83804  -0.83015  -0.82830
 Alpha  occ. eigenvalues --   -0.82707  -0.82536  -0.81661  -0.81498  -0.80662
 Alpha  occ. eigenvalues --   -0.80338  -0.78857  -0.78521  -0.77277  -0.77033
 Alpha  occ. eigenvalues --   -0.76996  -0.76795  -0.75989  -0.75717  -0.74951
 Alpha  occ. eigenvalues --   -0.74721  -0.72838  -0.72591  -0.71730  -0.71472
 Alpha  occ. eigenvalues --   -0.69957  -0.69688  -0.68931  -0.68709  -0.67703
 Alpha  occ. eigenvalues --   -0.67498  -0.67274  -0.67086  -0.65348  -0.65154
 Alpha  occ. eigenvalues --   -0.64920  -0.64683  -0.64666  -0.64548  -0.64324
 Alpha  occ. eigenvalues --   -0.64119  -0.62376  -0.62185  -0.60496  -0.60234
 Alpha  occ. eigenvalues --   -0.59864  -0.59670  -0.59049  -0.58889  -0.58568
 Alpha  occ. eigenvalues --   -0.58323  -0.57664  -0.57455  -0.57369  -0.57143
 Alpha  occ. eigenvalues --   -0.56375  -0.56094  -0.56056  -0.55787  -0.55579
 Alpha  occ. eigenvalues --   -0.55402  -0.55345  -0.55167  -0.54592  -0.54408
 Alpha  occ. eigenvalues --   -0.53953  -0.53782  -0.53359  -0.53281  -0.53126
 Alpha  occ. eigenvalues --   -0.53031  -0.52984  -0.52808  -0.52796  -0.52546
 Alpha  occ. eigenvalues --   -0.52491  -0.52335  -0.51995  -0.51788  -0.51676
 Alpha  occ. eigenvalues --   -0.51539  -0.51263  -0.51101  -0.50619  -0.50359
 Alpha  occ. eigenvalues --   -0.50081  -0.49971  -0.49865  -0.49775  -0.49572
 Alpha  occ. eigenvalues --   -0.49373  -0.49281  -0.49157  -0.49086  -0.48983
 Alpha  occ. eigenvalues --   -0.48662  -0.48517  -0.48502  -0.48446  -0.48297
 Alpha  occ. eigenvalues --   -0.48231  -0.47752  -0.47483  -0.47354  -0.47010
 Alpha  occ. eigenvalues --   -0.46857  -0.46613  -0.46606  -0.46431  -0.46422
 Alpha  occ. eigenvalues --   -0.46228  -0.46167  -0.45995  -0.45898  -0.45724
 Alpha  occ. eigenvalues --   -0.45252  -0.45127  -0.44651  -0.44559  -0.44414
 Alpha  occ. eigenvalues --   -0.44356  -0.44203  -0.44145  -0.44083  -0.44011
 Alpha  occ. eigenvalues --   -0.43984  -0.43829  -0.43571  -0.43460  -0.43441
 Alpha  occ. eigenvalues --   -0.43276  -0.43090  -0.42836  -0.42802  -0.42779
 Alpha  occ. eigenvalues --   -0.42714  -0.42467  -0.42068  -0.41874  -0.41768
 Alpha  occ. eigenvalues --   -0.41590  -0.41565  -0.41348  -0.41198  -0.40923
 Alpha  occ. eigenvalues --   -0.40874  -0.40869  -0.40624  -0.40614  -0.40589
 Alpha  occ. eigenvalues --   -0.40404  -0.40287  -0.40110  -0.39489  -0.39358
 Alpha  occ. eigenvalues --   -0.38519  -0.38267  -0.37805  -0.37540  -0.37374
 Alpha  occ. eigenvalues --   -0.37324  -0.37173  -0.37081  -0.36795  -0.36685
 Alpha  occ. eigenvalues --   -0.36260  -0.36125  -0.34349  -0.34146  -0.33864
 Alpha  occ. eigenvalues --   -0.33769  -0.33251  -0.33067  -0.31389  -0.31175
 Alpha  occ. eigenvalues --   -0.31096  -0.30864  -0.30112  -0.29855  -0.29510
 Alpha  occ. eigenvalues --   -0.29391  -0.29215  -0.29103  -0.24142  -0.23926
 Alpha  occ. eigenvalues --   -0.21189  -0.21006
 Alpha virt. eigenvalues --   -0.08836  -0.08681  -0.01808  -0.01578  -0.00114
 Alpha virt. eigenvalues --    0.00085   0.02129   0.02308   0.03054   0.03324
 Alpha virt. eigenvalues --    0.04661   0.04849   0.05006   0.05258   0.06122

 Mulliken charges:
               1
     1  Mg   0.838660
     2  C   -0.003099
     3  C   -0.094096
     4  C   -0.045751
     5  C   -0.064010
     6  N   -0.256850
     7  C   -0.052452
     8  C   -0.014053
     9  C   -0.087010
    10  C    0.046420
    11  C    0.104770
    12  C    0.053439
    13  C   -0.071924
    14  H    0.036228
    15  N   -0.433210
    16  C    0.168541
    17  C   -0.177040
    18  C   -0.003850
    19  C    0.148778
    20  C    0.110145
    21  C    0.012399
    22  O   -0.249193
    23  C    0.062431
    24  N   -0.341148
    25  C    0.041284
    26  C   -0.028298
    27  C   -0.023965
    28  C    0.074783
    29  C    0.076088
    30  C    0.035124
    31  C   -0.004519
    32  N   -0.310343
    33  C    0.080191
    34  C   -0.170178
    35  C    0.008158
    36  C    0.082736
    37  C    0.127450
    38  C    0.045729
    39  O   -0.188976
    40  C   -0.005158
    41  C    0.212793
    42  O   -0.257639
    43  O   -0.304608
    44  C    0.157855
    45  H   -0.017420
    46  H   -0.016503
    47  H   -0.041643
    48  H    0.000916
    49  H   -0.003877
    50  H    0.025473
    51  H    0.016510
    52  H    0.016828
    53  H    0.011333
    54  H    0.043845
    55  H    0.017890
    56  H    0.018198
    57  H    0.005989
    58  H    0.027047
    59  H    0.039635
    60  H    0.037419
    61  H    0.035974
    62  H    0.031375
    63  H    0.016918
    64  H    0.009511
    65  H    0.023583
    66  H    0.012553
    67  H    0.004820
    68  H    0.006840
    69  H    0.004411
    70  H    0.009455
    71  H    0.017735
    72  H    0.028593
    73  H    0.046845
    74  H    0.008988
    75  H    0.046142
    76  H    0.035263
    77  H    0.042864
    78  H    0.046742
    79  H    0.053115
    80  Mg   0.837988
    81  C   -0.016779
    82  C   -0.087273
    83  C   -0.045446
    84  C   -0.064997
    85  N   -0.254587
    86  C   -0.049739
    87  C   -0.015122
    88  C   -0.090469
    89  C    0.045577
    90  C    0.114051
    91  C    0.062492
    92  C   -0.077785
    93  H    0.034430
    94  N   -0.423616
    95  C    0.162814
    96  C   -0.173791
    97  C   -0.007897
    98  C    0.152381
    99  C    0.099030
   100  C    0.015633
   101  O   -0.253636
   102  C    0.061181
   103  N   -0.349978
   104  C    0.037607
   105  C   -0.019798
   106  C   -0.034688
   107  C    0.088800
   108  C    0.073797
   109  C    0.034858
   110  C   -0.007611
   111  N   -0.324045
   112  C    0.078312
   113  C   -0.163308
   114  C    0.002219
   115  C    0.096078
   116  C    0.131495
   117  C    0.042250
   118  O   -0.188259
   119  C    0.000952
   120  C    0.211263
   121  O   -0.251137
   122  O   -0.305622
   123  C    0.152110
   124  H   -0.018260
   125  H   -0.015917
   126  H   -0.040894
   127  H   -0.000775
   128  H   -0.004147
   129  H    0.022046
   130  H    0.015648
   131  H    0.017413
   132  H    0.013891
   133  H    0.037412
   134  H    0.020853
   135  H    0.019808
   136  H    0.009509
   137  H    0.027146
   138  H    0.039518
   139  H    0.038766
   140  H    0.035976
   141  H    0.033817
   142  H    0.014134
   143  H    0.011978
   144  H    0.024534
   145  H    0.012133
   146  H    0.004994
   147  H    0.005736
   148  H    0.003447
   149  H    0.010785
   150  H    0.017689
   151  H    0.030399
   152  H    0.045735
   153  H    0.008148
   154  H    0.047030
   155  H    0.035044
   156  H    0.043649
   157  H    0.049583
   158  H    0.053436
 Sum of Mulliken charges =  -0.00000

 Dipole moment (field-independent basis, Debye):
    X=              4.5733    Y=              2.9251    Z=              1.1911  Tot=              5.5579
 Quadrupole moment (field-independent basis, Debye-Ang):
   XX=           -520.5424   YY=           -527.5609   ZZ=           -470.8080
   XY=            -16.3261   XZ=             49.1895   YZ=             24.0964

 Normal termination of Gaussian 16 at Sat Sep 11 04:17:46 2021.
