 Gaussian 16, Revision A.03,
 Gaussian 16:  ES64L-G16RevA.03 25-Dec-2016

 -----------------------------------
 #p cam-b3lyp/Def2SVP td=(nstates=5)
 -----------------------------------

 --------------------------------
 TDDFT excited states in gaussian
 --------------------------------
 Symbolic Z-matrix:
 Charge =  0 Multiplicity = 1

                         Standard orientation:
 ---------------------------------------------------------------------
 Center     Atomic      Atomic             Coordinates (Angstroms)
 Number     Number       Type             X           Y           Z
 ---------------------------------------------------------------------
      1         12           0       15.780217   -0.701307    0.396002
      2          6           0       16.083144    2.009604   -1.921629
      3          6           0       16.758434    1.472475    2.837483
      4          6           0       15.959686   -3.173578    2.373952
      5          6           0       15.938503   -2.860007   -2.335412
      6          7           0       16.322183    1.444357    0.340817
      7          6           0       16.339846    2.382871   -0.600485
      8          6           0       16.582785    3.815963   -0.039590
      9          6           0       17.327382    3.432432    1.317053
     10          6           0       16.742303    2.047756    1.532177
     11          6           0       18.840284    3.308631    1.167720
     12          6           0       15.244816    4.580624    0.237652
     13          6           0       15.389899    6.086766    0.473965
     14          1           0       14.347573    6.976091   -0.015939
     15          7           0       15.807592   -0.763076    2.370409
     16          6           0       16.222117    0.219625    3.205725
     17          6           0       16.047481   -0.309236    4.575575
     18          6           0       15.676767   -1.747386    4.464273
     19          6           0       15.827390   -1.961674    3.047668
     20          6           0       16.183139    0.533533    5.806464
     21          6           0       15.264008   -2.769481    5.475750
     22          8           0       15.211643   -4.016792    5.199985
     23          6           0       15.004531   -2.275849    6.840317
     24          7           0       16.148250   -2.734398    0.098132
     25          6           0       16.112314   -3.598860    1.118131
     26          6           0       16.122800   -5.017810    0.631912
     27          6           0       15.927568   -4.944093   -0.951187
     28          6           0       15.920333   -3.404337   -1.116625
     29          6           0       17.387614   -5.825974    0.953048
     30          6           0       14.753601   -5.756152   -1.553499
     31          6           0       13.436415   -5.163324   -1.105534
     32          7           0       15.797625   -0.495190   -1.764613
     33          6           0       15.890896   -1.527417   -2.709326
     34          6           0       15.974679   -0.891607   -4.037029
     35          6           0       15.940802    0.475553   -3.769498
     36          6           0       15.868571    0.681113   -2.362082
     37          6           0       16.125773   -1.570688   -5.278179
     38          6           0       15.973658    1.810851   -4.343740
     39          8           0       15.937126    2.263483   -5.488853
     40          6           0       16.189997    2.858415   -3.164064
     41          6           0       15.186823    3.964268   -3.348570
     42          8           0       13.965108    3.748941   -3.212879
     43          8           0       15.829390    5.140116   -3.419486
     44          6           0       14.889578    6.282608   -3.573170
     45          1           0       17.279447    1.998612    3.639771
     46          1           0       15.914317   -4.057627    3.013355
     47          1           0       15.904916   -3.471074   -3.239249
     48          1           0       17.229491    4.441401   -0.655238
     49          1           0       17.046636    4.093919    2.136405
     50          1           0       19.144540    3.377955    0.123429
     51          1           0       19.093663    2.329166    1.573850
     52          1           0       19.352546    4.036007    1.798029
     53          1           0       14.852084    4.277532    1.208197
     54          1           0       14.528686    4.409238   -0.566780
     55          1           0       16.373026    6.445379    0.167752
     56          1           0       15.357742    6.268588    1.548259
     57          1           0       16.623254    1.504064    5.580826
     58          1           0       16.916706    0.045056    6.447541
     59          1           0       15.238179    0.635289    6.340345
     60          1           0       15.903556   -1.794614    7.225954
     61          1           0       14.634884   -3.131443    7.404382
     62          1           0       14.237583   -1.502044    6.795990
     63          1           0       15.301869   -5.586338    1.066969
     64          1           0       16.804446   -5.305783   -1.488718
     65          1           0       17.192256   -6.740841    1.513011
     66          1           0       18.074785   -5.175752    1.493693
     67          1           0       17.986838   -6.101038    0.085473
     68          1           0       14.780815   -6.784659   -1.195200
     69          1           0       14.764060   -5.784169   -2.643158
     70          1           0       13.285703   -5.616935   -0.126577
     71          1           0       12.638731   -5.445430   -1.793522
     72          1           0       13.514676   -4.086154   -0.956981
     73          1           0       15.443168   -1.086035   -5.976126
     74          1           0       15.902205   -2.632596   -5.178316
     75          1           0       17.179555   -1.383366   -5.483871
     76          1           0       17.215239    3.217551   -3.247856
     77          1           0       15.187865    6.825154   -4.470334
     78          1           0       14.902303    6.823763   -2.626917
     79          1           0       13.858101    6.028470   -3.819762
     80         12           0      -15.950054    0.612148    0.549999
     81          6           0      -15.876718   -2.358054   -1.462840
     82          6           0      -15.014800    2.343514   -2.236089
     83          6           0      -15.567656    3.169551    2.388732
     84          6           0      -15.753502   -1.449622    3.352884
     85          7           0      -15.531138   -0.035134   -1.523109
     86          6           0      -15.595718   -1.180072   -2.185907
     87          6           0      -15.424219   -1.044183   -3.722677
     88          6           0      -14.606857    0.337811   -3.752162
     89          6           0      -15.103240    0.943386   -2.440846
     90          6           0      -13.102265    0.149389   -3.651900
     91          6           0      -16.798696   -0.914641   -4.468361
     92          6           0      -16.725395   -1.088766   -5.986928
     93          1           0      -17.838516   -1.745485   -6.666755
     94          7           0      -15.856833    2.535851    0.071173
     95          6           0      -15.477983    3.062399   -1.112251
     96          6           0      -15.561610    4.521959   -0.948410
     97          6           0      -15.862218    4.817300    0.478864
     98          6           0      -15.750892    3.490801    1.051658
     99          6           0      -15.442138    5.478157   -2.099429
    100          6           0      -16.182647    6.085870    1.209807
    101          8           0      -16.174562    6.145719    2.490117
    102          6           0      -16.414597    7.278668    0.382205
    103          7           0      -15.484519    0.844662    2.562850
    104          6           0      -15.431475    2.065587    3.123609
    105          6           0      -15.353271    1.971622    4.628742
    106          6           0      -15.609703    0.431973    4.976997
    107          6           0      -15.707505   -0.138471    3.545061
    108          6           0      -14.034045    2.422072    5.255744
    109          6           0      -16.755605    0.118115    5.977540
    110          6           0      -18.090714    0.462765    5.357797
    111          7           0      -16.020577   -1.514545    0.924496
    112          6           0      -15.893368   -2.165823    2.170985
    113          6           0      -15.890512   -3.618926    1.904670
    114          6           0      -15.993928   -3.712557    0.508598
    115          6           0      -16.036453   -2.409535   -0.056933
    116          6           0      -15.752603   -4.643673    2.882931
    117          6           0      -16.066083   -4.617299   -0.616091
    118          8           0      -16.159152   -5.837329   -0.744950
    119          6           0      -15.866003   -3.779737   -1.952068
    120          6           0      -16.935979   -4.194072   -2.924695
    121          8           0      -18.133216   -3.956717   -2.686193
    122          8           0      -16.357287   -4.603725   -4.068237
    123          6           0      -17.378417   -5.014586   -5.068382
    124          1           0      -14.504752    2.946585   -2.987777
    125          1           0      -15.541112    4.016818    3.077869
    126          1           0      -15.794226   -2.159989    4.181372
    127          1           0      -14.841113   -1.831001   -4.186013
    128          1           0      -14.905958    0.955710   -4.594836
    129          1           0      -12.837103   -0.879279   -3.457812
    130          1           0      -12.780099    0.783498   -2.836321
    131          1           0      -12.612869    0.539913   -4.548733
    132          1           0      -17.138177    0.127782   -4.414946
    133          1           0      -17.519085   -1.596930   -4.060758
    134          1           0      -15.770099   -1.522668   -6.306439
    135          1           0      -16.738859   -0.099453   -6.450709
    136          1           0      -15.058856    4.979708   -2.998334
    137          1           0      -14.661800    6.200204   -1.835615
    138          1           0      -16.370819    6.017816   -2.296844
    139          1           0      -15.533993    7.473543   -0.225250
    140          1           0      -16.716737    8.063280    1.078600
    141          1           0      -17.235711    7.068410   -0.312197
    142          1           0      -16.126242    2.570680    5.094293
    143          1           0      -14.727589   -0.033221    5.441005
    144          1           0      -14.159167    3.225946    6.005550
    145          1           0      -13.370794    2.741491    4.462891
    146          1           0      -13.457486    1.632956    5.735399
    147          1           0      -16.658685    0.739347    6.871320
    148          1           0      -16.772306   -0.916194    6.304509
    149          1           0      -18.176917    1.538218    5.539629
    150          1           0      -18.893123   -0.085805    5.846915
    151          1           0      -18.071158    0.312544    4.272116
    152          1           0      -16.477270   -5.408451    2.636994
    153          1           0      -15.907036   -4.257102    3.888157
    154          1           0      -14.713823   -4.938385    2.711565
    155          1           0      -14.865202   -3.996259   -2.327683
    156          1           0      -17.138281   -6.039514   -5.367602
    157          1           0      -17.351960   -4.240078   -5.857804
    158          1           0      -18.399683   -5.128537   -4.724166
 ---------------------------------------------------------------------

 SCF Done:  E(RCAM-B3LYP) =  -4069.81178931     A.U. after   19 cycles

 Excitation energies and oscillator strengths:

 Excited State   1:      Singlet-A      1.6756 eV  739.95 nm  f=0.3782  <S**2>=0.000
     310 -> 316        0.17318
     312 -> 313        0.68447
     310 <- 316        0.10438
 This state for optimization and/or second-order correction.
 Total Energy, E(TD-HF/TD-DFT) =  -4069.75021331
 Copying the excited state density for this state as the 1-particle RhoCI density.

 Excited State   2:      Singlet-A      1.6799 eV  738.05 nm  f=0.3980  <S**2>=0.000
     309 -> 315        0.17517
     311 -> 314        0.68413
     309 <- 315        0.10490

 Excited State   3:      Singlet-A      2.1861 eV  567.15 nm  f=0.1022  <S**2>=0.000
     310 -> 313        0.64247
     312 -> 316       -0.27308

 Excited State   4:      Singlet-A      2.1926 eV  565.47 nm  f=0.0988  <S**2>=0.000
     309 -> 314        0.64070
     311 -> 315       -0.27832

 Excited State   5:      Singlet-A      3.0661 eV  404.38 nm  f=0.0000  <S**2>=0.000
     311 -> 313        0.70711

 The electronic state is 1-A.
 Alpha  occ. eigenvalues --  -46.87796 -46.87660 -19.26346 -19.26290 -19.19158
 Alpha  occ. eigenvalues --  -19.19025 -19.18813 -19.18715 -19.18172 -19.18050
 Alpha  occ. eigenvalues --  -14.42496 -14.42450 -14.41449 -14.41359 -14.39403
 Alpha  occ. eigenvalues --  -14.39352 -14.38600 -14.38587 -10.39088 -10.39084
 Alpha  occ. eigenvalues --  -10.35446 -10.35392 -10.34392 -10.34227 -10.31751
 Alpha  occ. eigenvalues --  -10.31686 -10.31406 -10.31307 -10.31021 -10.30909
 Alpha  occ. eigenvalues --  -10.30570 -10.30508 -10.30398 -10.30360 -10.30206
 Alpha  occ. eigenvalues --  -10.30142 -10.29921 -10.29896 -10.29631 -10.29436
 Alpha  occ. eigenvalues --  -10.29400 -10.29254 -10.28750 -10.28714 -10.28647
 Alpha  occ. eigenvalues --  -10.28541 -10.28404 -10.28365 -10.28135 -10.28117
 Alpha  occ. eigenvalues --  -10.28001 -10.27793 -10.27727 -10.27667 -10.27584
 Alpha  occ. eigenvalues --  -10.27521 -10.27499 -10.27483 -10.27479 -10.27466
 Alpha  occ. eigenvalues --  -10.27462 -10.27448 -10.27404 -10.27379 -10.27161
 Alpha  occ. eigenvalues --  -10.27048 -10.26707 -10.26688 -10.26415 -10.26406
 Alpha  occ. eigenvalues --  -10.26235 -10.26182 -10.26143 -10.26019 -10.26017
 Alpha  occ. eigenvalues --  -10.25935 -10.25853 -10.25846 -10.25433 -10.25402
 Alpha  occ. eigenvalues --  -10.24872 -10.24833 -10.24787 -10.24736 -10.24690
 Alpha  occ. eigenvalues --  -10.24685  -3.16539  -3.16410  -1.91421  -1.91292
 Alpha  occ. eigenvalues --   -1.91007  -1.90881  -1.90850  -1.90718  -1.16640
 Alpha  occ. eigenvalues --   -1.16638  -1.08657  -1.08630  -1.07214  -1.06967
 Alpha  occ. eigenvalues --   -1.06943  -1.06647  -1.04581  -1.04494  -1.03760
 Alpha  occ. eigenvalues --   -1.03663  -1.03234  -1.03039  -1.02411  -1.02111
 Alpha  occ. eigenvalues --   -0.91986  -0.91973  -0.89519  -0.89496  -0.89189
 Alpha  occ. eigenvalues --   -0.89147  -0.88286  -0.88222  -0.87871  -0.87794
 Alpha  occ. eigenvalues --   -0.87683  -0.87673  -0.87273  -0.87119  -0.84997
 Alpha  occ. eigenvalues --   -0.84983  -0.83936  -0.83879  -0.82965  -0.82932
 Alpha  occ. eigenvalues --   -0.82650  -0.82649  -0.81594  -0.81588  -0.80597
 Alpha  occ. eigenvalues --   -0.80441  -0.78797  -0.78635  -0.77219  -0.77143
 Alpha  occ. eigenvalues --   -0.76936  -0.76897  -0.75925  -0.75836  -0.74898
 Alpha  occ. eigenvalues --   -0.74804  -0.72774  -0.72699  -0.71672  -0.71580
 Alpha  occ. eigenvalues --   -0.69906  -0.69761  -0.68873  -0.68825  -0.67641
 Alpha  occ. eigenvalues --   -0.67601  -0.67220  -0.67197  -0.65287  -0.65269
 Alpha  occ. eigenvalues --   -0.64855  -0.64770  -0.64652  -0.64621  -0.64269
 Alpha  occ. eigenvalues --   -0.64205  -0.62300  -0.62277  -0.60441  -0.60340
 Alpha  occ. eigenvalues --   -0.59805  -0.59793  -0.58993  -0.58988  -0.58504
 Alpha  occ. eigenvalues --   -0.58425  -0.57587  -0.57553  -0.57309  -0.57237
 Alpha  occ. eigenvalues --   -0.56310  -0.56204  -0.55982  -0.55884  -0.55520
 Alpha  occ. eigenvalues --   -0.55451  -0.55340  -0.55249  -0.54525  -0.54488
 Alpha  occ. eigenvalues --   -0.53908  -0.53896  -0.53299  -0.53227  -0.53222
 Alpha  occ. eigenvalues --   -0.53140  -0.52916  -0.52900  -0.52755  -0.52666
 Alpha  occ. eigenvalues --   -0.52437  -0.52404  -0.51916  -0.51886  -0.51656
 Alpha  occ. eigenvalues --   -0.51617  -0.51201  -0.51197  -0.50570  -0.50474
 Alpha  occ. eigenvalues --   -0.50030  -0.49978  -0.49917  -0.49869  -0.49515
 Alpha  occ. eigenvalues --   -0.49486  -0.49215  -0.49200  -0.49102  -0.49097
 Alpha  occ. eigenvalues --   -0.48594  -0.48556  -0.48461  -0.48445  -0.48378
 Alpha  occ. eigenvalues --   -0.48338  -0.47695  -0.47593  -0.47297  -0.47118
 Alpha  occ. eigenvalues --   -0.46797  -0.46709  -0.46556  -0.46551  -0.46359
 Alpha  occ. eigenvalues --   -0.46270  -0.46163  -0.46086  -0.45824  -0.45821
 Alpha  occ. eigenvalues --   -0.45210  -0.45200  -0.44579  -0.44513  -0.44506
 Alpha  occ. eigenvalues --   -0.44474  -0.44144  -0.44125  -0.44089  -0.44078
 Alpha  occ. eigenvalues --   -0.44020  -0.43938  -0.43552  -0.43497  -0.43386
 Alpha  occ. eigenvalues --   -0.43384  -0.43028  -0.42929  -0.42900  -0.42701
 Alpha  occ. eigenvalues --   -0.42656  -0.42555  -0.42010  -0.41964  -0.41705
 Alpha  occ. eigenvalues --   -0.41668  -0.41534  -0.41457  -0.41141  -0.40988
 Alpha  occ. eigenvalues --   -0.40869  -0.40822  -0.40721  -0.40697  -0.40571
 Alpha  occ. eigenvalues --   -0.40494  -0.40235  -0.40223  -0.39440  -0.39429
 Alpha  occ. eigenvalues --   -0.38468  -0.38352  -0.37749  -0.37650  -0.37320
 Alpha  occ. eigenvalues --   -0.37267  -0.37264  -0.37197  -0.36769  -0.36716
 Alpha  occ. eigenvalues --   -0.36217  -0.36194  -0.34286  -0.34253  -0.33860
 Alpha  occ. eigenvalues --   -0.33774  -0.33187  -0.33175  -0.31342  -0.31274
 Alpha  occ. eigenvalues --   -0.31036  -0.30972  -0.30031  -0.29955  -0.29449
 Alpha  occ. eigenvalues --   -0.29327  -0.29322  -0.29211  -0.24081  -0.24036
 Alpha  occ. eigenvalues --   -0.21128  -0.21117
 Alpha virt. eigenvalues --   -0.08792  -0.08774  -0.01749  -0.01684  -0.00057
 Alpha virt. eigenvalues --   -0.00028   0.02199   0.02207   0.03122   0.03226
 Alpha virt. eigenvalues --    0.04717   0.04732   0.05094   0.05168   0.06175

 Mulliken charges:
               1
     1  Mg   0.838744
     2  C   -0.002969
     3  C   -0.094120
     4  C   -0.045848
     5  C   -0.063958
     6  N   -0.256777
     7  C   -0.052477
     8  C   -0.014023
     9  C   -0.087019
    10  C    0.046334
    11  C    0.104816
    12  C    0.053461
    13  C   -0.071798
    14  H    0.036088
    15  N   -0.433156
    16  C    0.168436
    17  C   -0.177134
    18  C   -0.003976
    19  C    0.148704
    20  C    0.110171
    21  C    0.012288
    22  O   -0.249585
    23  C    0.062475
    24  N   -0.341149
    25  C    0.041259
    26  C   -0.028189
    27  C   -0.023982
    28  C    0.074839
    29  C    0.076170
    30  C    0.035133
    31  C   -0.004510
    32  N   -0.310458
    33  C    0.080397
    34  C   -0.169735
    35  C    0.008341
    36  C    0.082980
    37  C    0.127320
    38  C    0.046093
    39  O   -0.188509
    40  C   -0.005319
    41  C    0.212852
    42  O   -0.257122
    43  O   -0.304787
    44  C    0.157708
    45  H   -0.017587
    46  H   -0.016808
    47  H   -0.041502
    48  H    0.000924
    49  H   -0.004022
    50  H    0.025464
    51  H    0.016460
    52  H    0.016668
    53  H    0.011225
    54  H    0.044101
    55  H    0.017870
    56  H    0.017975
    57  H    0.005880
    58  H    0.026850
    59  H    0.039587
    60  H    0.037352
    61  H    0.035694
    62  H    0.031515
    63  H    0.016582
    64  H    0.009458
    65  H    0.023241
    66  H    0.012547
    67  H    0.004754
    68  H    0.006392
    69  H    0.004711
    70  H    0.008812
    71  H    0.018136
    72  H    0.028964
    73  H    0.047519
    74  H    0.009109
    75  H    0.045999
    76  H    0.035144
    77  H    0.042912
    78  H    0.046417
    79  H    0.053645
    80  Mg   0.837850
    81  C   -0.016809
    82  C   -0.087748
    83  C   -0.045515
    84  C   -0.064884
    85  N   -0.254590
    86  C   -0.049807
    87  C   -0.015134
    88  C   -0.090497
    89  C    0.045757
    90  C    0.114353
    91  C    0.062530
    92  C   -0.077921
    93  H    0.034908
    94  N   -0.423491
    95  C    0.162911
    96  C   -0.174584
    97  C   -0.007813
    98  C    0.152138
    99  C    0.099348
   100  C    0.015570
   101  O   -0.253210
   102  C    0.061198
   103  N   -0.350050
   104  C    0.037524
   105  C   -0.019839
   106  C   -0.034801
   107  C    0.088907
   108  C    0.073656
   109  C    0.034743
   110  C   -0.007669
   111  N   -0.324119
   112  C    0.078441
   113  C   -0.163154
   114  C    0.002259
   115  C    0.096178
   116  C    0.131482
   117  C    0.042376
   118  O   -0.187868
   119  C    0.000941
   120  C    0.211236
   121  O   -0.251021
   122  O   -0.305611
   123  C    0.152032
   124  H   -0.019581
   125  H   -0.015591
   126  H   -0.040486
   127  H   -0.000602
   128  H   -0.004279
   129  H    0.022488
   130  H    0.014437
   131  H    0.016392
   132  H    0.013912
   133  H    0.037653
   134  H    0.020839
   135  H    0.019624
   136  H    0.008822
   137  H    0.026190
   138  H    0.039812
   139  H    0.038287
   140  H    0.036383
   141  H    0.033910
   142  H    0.014381
   143  H    0.012404
   144  H    0.025109
   145  H    0.011673
   146  H    0.005661
   147  H    0.006233
   148  H    0.003635
   149  H    0.010924
   150  H    0.017915
   151  H    0.030124
   152  H    0.045997
   153  H    0.008483
   154  H    0.046958
   155  H    0.035075
   156  H    0.043926
   157  H    0.049523
   158  H    0.053562
 Sum of Mulliken charges =  -0.00000

 Dipole moment (field-independent basis, Debye):
    X=              4.1956    Y=              4.4085    Z=              1.5748  Tot=              6.2863
 Quadrupole moment (field-independent basis, Debye-Ang):
   XX=           -517.7517   YY=           -513.3787   ZZ=           -485.5282
   XY=            -30.5856   XZ=             97.1243   YZ=             12.5261

 Normal termination of Gaussian 16 at Sat Sep  4 16:43:05 2021.
