 Gaussian 16, Revision A.03,
 Gaussian 16:  ES64L-G16RevA.03 25-Dec-2016

 -----------------------------------
 #p cam-b3lyp/Def2SVP td=(nstates=5)
 -----------------------------------

 --------------------------------
 TDDFT excited states in gaussian
 --------------------------------
 Symbolic Z-matrix:
 Charge =  0 Multiplicity = 1

                         Standard orientation:
 ---------------------------------------------------------------------
 Center     Atomic      Atomic             Coordinates (Angstroms)
 Number     Number       Type             X           Y           Z
 ---------------------------------------------------------------------
      1         12           0       16.149742    0.504517    0.528684
      2          6           0       16.382814   -2.564190   -1.299138
      3          6           0       17.081168    2.108278   -2.335485
      4          6           0       16.392488    3.170187    2.229242
      5          6           0       16.353497   -1.389709    3.446912
      6          7           0       16.640235   -0.242546   -1.496646
      7          6           0       16.633434   -1.435643   -2.082857
      8          6           0       16.843341   -1.367430   -3.625148
      9          6           0       17.599851    0.033177   -3.714531
     10          6           0       17.048451    0.687560   -2.460073
     11          6           0       19.114946   -0.083190   -3.582439
     12          6           0       15.488119   -1.337594   -4.408867
     13          6           0       15.597742   -1.599252   -5.913816
     14          1           0       14.533421   -2.338777   -6.575385
     15          7           0       16.182915    2.393682   -0.048209
     16          6           0       16.575707    2.864810   -1.256116
     17          6           0       16.416744    4.333587   -1.192047
     18          6           0       16.080207    4.693969    0.213286
     19          6           0       16.232792    3.419969    0.868282
     20          6           0       16.534956    5.226973   -2.388558
     21          6           0       15.694174    5.984225    0.864707
     22          8           0       15.670980    6.124444    2.135287
     23          6           0       15.425987    7.120241   -0.035619
     24          7           0       16.565526    0.872223    2.541033
     25          6           0       16.552464    2.116219    3.032241
     26          6           0       16.595737    2.111703    4.531590
     27          6           0       16.395329    0.590868    4.975041
     28          6           0       16.350994   -0.060528    3.570766
     29          6           0       17.880175    2.663169    5.165715
     30          6           0       15.239753    0.292939    5.963121
     31          6           0       13.909783    0.539451    5.286727
     32          7           0       16.157487   -1.607794    1.027814
     33          6           0       16.273287   -2.171545    2.306660
     34          6           0       16.338962   -3.633896    2.129786
     35          6           0       16.273061   -3.819585    0.750285
     36          6           0       16.199034   -2.552247    0.104790
     37          6           0       16.503493   -4.592395    3.168363
     38          6           0       16.272787   -4.792768   -0.329887
     39          8           0       16.222954   -6.022185   -0.389423
     40          6           0       16.466657   -4.014475   -1.705569
     41          6           0       15.436981   -4.534780   -2.671156
     42          8           0       14.221052   -4.325187   -2.484198
     43          8           0       16.051152   -4.986063   -3.775547
     44          6           0       15.084012   -5.489574   -4.787116
     45          1           0       17.591238    2.693813   -3.102895
     46          1           0       16.369628    4.060181    2.861560
     47          1           0       16.332517   -2.048861    4.316700
     48          1           0       17.473587   -2.157685   -4.033449
     49          1           0       17.305200    0.599191   -4.598008
     50          1           0       19.415169   -1.097281   -3.318988
     51          1           0       19.392513    0.613665   -2.791337
     52          1           0       19.611088    0.274913   -4.484870
     53          1           0       15.104861   -0.317349   -4.425375
     54          1           0       14.774519   -2.037260   -3.972325
     55          1           0       16.571358   -2.014034   -6.176373
     56          1           0       15.563613   -0.640112   -6.430619
     57          1           0       16.951292    4.697137   -3.244409
     58          1           0       17.281373    5.983839   -2.148299
     59          1           0       15.589010    5.709020   -2.635843
     60          1           0       16.314118    7.321992   -0.634843
     61          1           0       15.078098    7.932913    0.601080
     62          1           0       14.640699    6.837076   -0.737109
     63          1           0       15.789562    2.714365    4.947890
     64          1           0       17.279406    0.189560    5.471059
     65          1           0       17.707931    3.489306    5.856029
     66          1           0       18.552821    2.959458    4.361320
     67          1           0       18.483887    1.924208    5.691913
     68          1           0       15.292286    0.962469    6.820977
     69          1           0       15.248487   -0.729966    6.339738
     70          1           0       13.772086    1.613673    5.404707
     71          1           0       13.117550   -0.013577    5.792431
     72          1           0       13.962646    0.333198    4.217544
     73          1           0       15.807989   -5.402380    2.948892
     74          1           0       16.305546   -4.154403    4.146414
     75          1           0       17.552052   -4.857636    3.034097
     76          1           0       17.482852   -4.219224   -2.041050
     77          1           0       15.367299   -6.516364   -5.018814
     78          1           0       15.085898   -4.767588   -5.603901
     79          1           0       14.058353   -5.631350   -4.444678
     80         12           0      -15.602001    0.550654   -0.063900
     81          6           0      -18.190510   -1.895949    0.375188
     82          6           0      -17.949050    2.554949   -1.516052
     83          6           0      -13.262997    2.537327   -0.869907
     84          6           0      -13.289981   -2.023007    0.356256
     85          7           0      -17.757859    0.256321   -0.461239
     86          6           0      -18.646525   -0.688928   -0.194527
     87          6           0      -20.117953   -0.288759   -0.484914
     88          6           0      -19.844751    0.854920   -1.578639
     89          6           0      -18.443659    1.279536   -1.143541
     90          6           0      -19.762636    0.321723   -2.999307
     91          6           0      -20.841401    0.288993    0.781902
     92          6           0      -22.361446    0.411416    0.654541
     93          1           0      -23.180978    0.167739    1.838376
     94          7           0      -15.666090    2.461861   -0.594708
     95          6           0      -16.707029    3.117973   -1.149006
     96          6           0      -16.242668    4.496432   -1.368924
     97          6           0      -14.790066    4.558354   -1.051404
     98          6           0      -14.505925    3.152874   -0.841740
     99          6           0      -17.166048    5.613491   -1.760036
    100          6           0      -13.814914    5.693174   -0.964931
    101          8           0      -12.550468    5.491504   -0.907132
    102          6           0      -14.378061    7.048937   -1.044068
    103          7           0      -13.578036    0.265374   -0.444098
    104          6           0      -12.773406    1.306168   -0.722040
    105          6           0      -11.320230    0.897050   -0.686007
    106          6           0      -11.305993   -0.585313   -0.086022
    107          6           0      -12.826948   -0.820577    0.043341
    108          6           0      -10.592303    0.908833   -2.030012
    109          6           0      -10.411335   -0.831831    1.159561
    110          6           0      -10.966019   -0.082814    2.349807
    111          7           0      -15.682046   -1.538353    0.481711
    112          6           0      -14.597636   -2.438243    0.573058
    113          6           0      -15.162100   -3.772080    0.864100
    114          6           0      -16.548296   -3.558283    0.899365
    115          6           0      -16.829177   -2.191896    0.628070
    116          6           0      -14.417941   -4.976885    1.008279
    117          6           0      -17.838424   -4.179912    1.093898
    118          8           0      -18.221201   -5.297681    1.437142
    119          6           0      -18.966213   -3.156790    0.638180
    120          6           0      -20.020627   -3.119947    1.710274
    121          8           0      -19.756476   -2.676140    2.841588
    122          8           0      -21.215384   -3.409507    1.163398
    123          6           0      -22.295217   -3.374638    2.185441
    124          1           0      -18.549804    3.168358   -2.188141
    125          1           0      -12.411466    3.201648   -1.034385
    126          1           0      -12.629255   -2.858173    0.598343
    127          1           0      -20.726533   -1.075752   -0.913932
    128          1           0      -20.544021    1.679970   -1.470520
    129          1           0      -19.784025   -0.757605   -3.026416
    130          1           0      -18.827476    0.691753   -3.398796
    131          1           0      -20.550118    0.766007   -3.614796
    132          1           0      -20.576316    1.348226    0.893698
    133          1           0      -20.596939   -0.284355    1.654909
    134          1           0      -22.749718   -0.150121   -0.203872
    135          1           0      -22.608052    1.451574    0.428105
    136          1           0      -18.143269    5.233375   -2.082444
    137          1           0      -16.744793    6.076723   -2.658830
    138          1           0      -17.260646    6.373812   -0.981810
    139          1           0      -14.917434    7.161788   -1.981507
    140          1           0      -13.537681    7.724815   -0.874262
    141          1           0      -15.113838    7.169553   -0.241130
    142          1           0      -10.751763    1.546485   -0.031658
    143          1           0      -10.935879   -1.317756   -0.818397
    144          1           0       -9.692907    1.553158   -2.033629
    145          1           0      -11.290273    1.225888   -2.793461
    146          1           0      -10.279476   -0.068191   -2.394359
    147          1           0       -9.405921   -0.439895    0.987256
    148          1           0      -10.308378   -1.880786    1.416642
    149          1           0      -10.564487    0.926057    2.215481
    150          1           0      -10.615142   -0.526745    3.279245
    151          1           0      -12.058654   -0.012570    2.296283
    152          1           0      -14.829798   -5.496807    1.863011
    153          1           0      -13.356615   -4.775560    1.137956
    154          1           0      -14.630931   -5.453809    0.047845
    155          1           0      -19.363144   -3.509693   -0.314441
    156          1           0      -22.798528   -4.345839    2.151705
    157          1           0      -22.904544   -2.482944    1.945965
    158          1           0      -21.998471   -3.326274    3.226616
 ---------------------------------------------------------------------

 SCF Done:  E(RCAM-B3LYP) =  -4069.81177444     A.U. after   19 cycles

 Excitation energies and oscillator strengths:

 Excited State   1:      Singlet-A      1.6753 eV  740.08 nm  f=0.2131  <S**2>=0.000
     310 -> 316        0.16863
     311 -> 313        0.66667
     312 -> 314       -0.16193
     310 <- 316        0.10167
 This state for optimization and/or second-order correction.
 Total Energy, E(TD-HF/TD-DFT) =  -4069.75020901
 Copying the excited state density for this state as the 1-particle RhoCI density.

 Excited State   2:      Singlet-A      1.6801 eV  737.95 nm  f=0.5643  <S**2>=0.000
     309 -> 315        0.17066
     311 -> 313        0.16188
     312 -> 314        0.66630
     309 <- 315        0.10218

 Excited State   3:      Singlet-A      2.1861 eV  567.15 nm  f=0.1031  <S**2>=0.000
     310 -> 313        0.64249
     311 -> 316       -0.27312

 Excited State   4:      Singlet-A      2.1926 eV  565.48 nm  f=0.0984  <S**2>=0.000
     309 -> 314        0.64071
     312 -> 315       -0.27831

 Excited State   5:      Singlet-A      3.0619 eV  404.93 nm  f=0.0000  <S**2>=0.000
     312 -> 313        0.70710

 The electronic state is 1-A.
 Alpha  occ. eigenvalues --  -46.87773 -46.87660 -19.26350 -19.26262 -19.19161
 Alpha  occ. eigenvalues --  -19.18997 -19.18790 -19.18714 -19.18146 -19.18051
 Alpha  occ. eigenvalues --  -14.42497 -14.42426 -14.41426 -14.41358 -14.39379
 Alpha  occ. eigenvalues --  -14.39351 -14.38599 -14.38563 -10.39091 -10.39057
 Alpha  occ. eigenvalues --  -10.35423 -10.35392 -10.34366 -10.34228 -10.31757
 Alpha  occ. eigenvalues --  -10.31657 -10.31381 -10.31309 -10.31024 -10.30885
 Alpha  occ. eigenvalues --  -10.30546 -10.30483 -10.30397 -10.30360 -10.30183
 Alpha  occ. eigenvalues --  -10.30139 -10.29897 -10.29893 -10.29607 -10.29436
 Alpha  occ. eigenvalues --  -10.29400 -10.29230 -10.28726 -10.28721 -10.28656
 Alpha  occ. eigenvalues --  -10.28515 -10.28405 -10.28341 -10.28142 -10.28093
 Alpha  occ. eigenvalues --  -10.28001 -10.27769 -10.27703 -10.27669 -10.27560
 Alpha  occ. eigenvalues --  -10.27512 -10.27483 -10.27476 -10.27468 -10.27465
 Alpha  occ. eigenvalues --  -10.27457 -10.27425 -10.27380 -10.27371 -10.27135
 Alpha  occ. eigenvalues --  -10.27051 -10.26694 -10.26681 -10.26416 -10.26384
 Alpha  occ. eigenvalues --  -10.26212 -10.26158 -10.26128 -10.26028 -10.25995
 Alpha  occ. eigenvalues --  -10.25932 -10.25847 -10.25820 -10.25412 -10.25393
 Alpha  occ. eigenvalues --  -10.24872 -10.24809 -10.24764 -10.24721 -10.24689
 Alpha  occ. eigenvalues --  -10.24661  -3.16515  -3.16410  -1.91397  -1.91292
 Alpha  occ. eigenvalues --   -1.90984  -1.90881  -1.90826  -1.90717  -1.16644
 Alpha  occ. eigenvalues --   -1.16610  -1.08658  -1.08604  -1.07191  -1.06967
 Alpha  occ. eigenvalues --   -1.06946  -1.06619  -1.04557  -1.04495  -1.03736
 Alpha  occ. eigenvalues --   -1.03662  -1.03210  -1.03038  -1.02387  -1.02111
 Alpha  occ. eigenvalues --   -0.91987  -0.91948  -0.89495  -0.89491  -0.89165
 Alpha  occ. eigenvalues --   -0.89152  -0.88263  -0.88216  -0.87847  -0.87792
 Alpha  occ. eigenvalues --   -0.87684  -0.87649  -0.87249  -0.87120  -0.85000
 Alpha  occ. eigenvalues --   -0.84958  -0.83912  -0.83872  -0.82942  -0.82931
 Alpha  occ. eigenvalues --   -0.82653  -0.82625  -0.81596  -0.81562  -0.80573
 Alpha  occ. eigenvalues --   -0.80443  -0.78773  -0.78635  -0.77194  -0.77144
 Alpha  occ. eigenvalues --   -0.76911  -0.76898  -0.75900  -0.75839  -0.74874
 Alpha  occ. eigenvalues --   -0.74800  -0.72750  -0.72698  -0.71649  -0.71580
 Alpha  occ. eigenvalues --   -0.69882  -0.69752  -0.68849  -0.68828  -0.67617
 Alpha  occ. eigenvalues --   -0.67601  -0.67201  -0.67196  -0.65272  -0.65263
 Alpha  occ. eigenvalues --   -0.64830  -0.64769  -0.64653  -0.64597  -0.64245
 Alpha  occ. eigenvalues --   -0.64200  -0.62278  -0.62274  -0.60418  -0.60339
 Alpha  occ. eigenvalues --   -0.59797  -0.59781  -0.58992  -0.58964  -0.58480
 Alpha  occ. eigenvalues --   -0.58425  -0.57561  -0.57554  -0.57285  -0.57235
 Alpha  occ. eigenvalues --   -0.56286  -0.56204  -0.55955  -0.55887  -0.55496
 Alpha  occ. eigenvalues --   -0.55452  -0.55316  -0.55245  -0.54500  -0.54485
 Alpha  occ. eigenvalues --   -0.53914  -0.53871  -0.53275  -0.53227  -0.53198
 Alpha  occ. eigenvalues --   -0.53142  -0.52902  -0.52891  -0.52732  -0.52669
 Alpha  occ. eigenvalues --   -0.52413  -0.52394  -0.51891  -0.51883  -0.51660
 Alpha  occ. eigenvalues --   -0.51593  -0.51200  -0.51172  -0.50548  -0.50475
 Alpha  occ. eigenvalues --   -0.50007  -0.49980  -0.49894  -0.49864  -0.49491
 Alpha  occ. eigenvalues --   -0.49488  -0.49203  -0.49191  -0.49105  -0.49073
 Alpha  occ. eigenvalues --   -0.48569  -0.48559  -0.48437  -0.48421  -0.48373
 Alpha  occ. eigenvalues --   -0.48339  -0.47671  -0.47594  -0.47273  -0.47118
 Alpha  occ. eigenvalues --   -0.46773  -0.46708  -0.46554  -0.46532  -0.46335
 Alpha  occ. eigenvalues --   -0.46269  -0.46139  -0.46084  -0.45821  -0.45799
 Alpha  occ. eigenvalues --   -0.45206  -0.45177  -0.44554  -0.44514  -0.44483
 Alpha  occ. eigenvalues --   -0.44476  -0.44127  -0.44120  -0.44076  -0.44065
 Alpha  occ. eigenvalues --   -0.43996  -0.43939  -0.43552  -0.43471  -0.43385
 Alpha  occ. eigenvalues --   -0.43362  -0.43003  -0.42930  -0.42900  -0.42675
 Alpha  occ. eigenvalues --   -0.42631  -0.42550  -0.41985  -0.41961  -0.41680
 Alpha  occ. eigenvalues --   -0.41669  -0.41510  -0.41458  -0.41117  -0.40989
 Alpha  occ. eigenvalues --   -0.40845  -0.40799  -0.40722  -0.40698  -0.40547
 Alpha  occ. eigenvalues --   -0.40490  -0.40228  -0.40210  -0.39419  -0.39416
 Alpha  occ. eigenvalues --   -0.38445  -0.38347  -0.37725  -0.37654  -0.37296
 Alpha  occ. eigenvalues --   -0.37264  -0.37240  -0.37200  -0.36771  -0.36690
 Alpha  occ. eigenvalues --   -0.36215  -0.36169  -0.34262  -0.34253  -0.33862
 Alpha  occ. eigenvalues --   -0.33747  -0.33175  -0.33162  -0.31320  -0.31273
 Alpha  occ. eigenvalues --   -0.31012  -0.30972  -0.30006  -0.29955  -0.29425
 Alpha  occ. eigenvalues --   -0.29327  -0.29298  -0.29211  -0.24057  -0.24036
 Alpha  occ. eigenvalues --   -0.21116  -0.21104
 Alpha virt. eigenvalues --   -0.08792  -0.08750  -0.01726  -0.01683  -0.00034
 Alpha virt. eigenvalues --   -0.00029   0.02208   0.02224   0.03145   0.03230
 Alpha virt. eigenvalues --    0.04729   0.04741   0.05121   0.05165   0.06181

 Mulliken charges:
               1
     1  Mg   0.838719
     2  C   -0.002955
     3  C   -0.094121
     4  C   -0.045887
     5  C   -0.063948
     6  N   -0.256782
     7  C   -0.052475
     8  C   -0.014022
     9  C   -0.086978
    10  C    0.046324
    11  C    0.104811
    12  C    0.053463
    13  C   -0.071802
    14  H    0.036131
    15  N   -0.433143
    16  C    0.168429
    17  C   -0.177147
    18  C   -0.003996
    19  C    0.148732
    20  C    0.110179
    21  C    0.012299
    22  O   -0.249614
    23  C    0.062471
    24  N   -0.341120
    25  C    0.041251
    26  C   -0.028183
    27  C   -0.023945
    28  C    0.074813
    29  C    0.076173
    30  C    0.035121
    31  C   -0.004503
    32  N   -0.310454
    33  C    0.080408
    34  C   -0.169720
    35  C    0.008356
    36  C    0.082981
    37  C    0.127311
    38  C    0.046114
    39  O   -0.188458
    40  C   -0.005347
    41  C    0.212883
    42  O   -0.257098
    43  O   -0.304803
    44  C    0.157693
    45  H   -0.017613
    46  H   -0.016830
    47  H   -0.041494
    48  H    0.000923
    49  H   -0.004031
    50  H    0.025464
    51  H    0.016443
    52  H    0.016643
    53  H    0.011223
    54  H    0.044129
    55  H    0.017853
    56  H    0.017955
    57  H    0.005867
    58  H    0.026814
    59  H    0.039582
    60  H    0.037328
    61  H    0.035670
    62  H    0.031532
    63  H    0.016574
    64  H    0.009446
    65  H    0.023217
    66  H    0.012533
    67  H    0.004741
    68  H    0.006370
    69  H    0.004726
    70  H    0.008796
    71  H    0.018162
    72  H    0.028981
    73  H    0.047568
    74  H    0.009117
    75  H    0.045991
    76  H    0.035135
    77  H    0.042931
    78  H    0.046402
    79  H    0.053691
    80  Mg   0.837879
    81  C   -0.016815
    82  C   -0.087788
    83  C   -0.045503
    84  C   -0.064863
    85  N   -0.254562
    86  C   -0.049834
    87  C   -0.015106
    88  C   -0.090498
    89  C    0.045725
    90  C    0.114379
    91  C    0.062527
    92  C   -0.077904
    93  H    0.034913
    94  N   -0.423493
    95  C    0.162914
    96  C   -0.174640
    97  C   -0.007801
    98  C    0.152105
    99  C    0.099367
   100  C    0.015576
   101  O   -0.253163
   102  C    0.061196
   103  N   -0.350089
   104  C    0.037509
   105  C   -0.019827
   106  C   -0.034839
   107  C    0.088927
   108  C    0.073647
   109  C    0.034714
   110  C   -0.007699
   111  N   -0.324123
   112  C    0.078460
   113  C   -0.163105
   114  C    0.002244
   115  C    0.096210
   116  C    0.131482
   117  C    0.042393
   118  O   -0.187856
   119  C    0.000896
   120  C    0.211265
   121  O   -0.251004
   122  O   -0.305636
   123  C    0.152023
   124  H   -0.019689
   125  H   -0.015551
   126  H   -0.040373
   127  H   -0.000655
   128  H   -0.004329
   129  H    0.022451
   130  H    0.014418
   131  H    0.016262
   132  H    0.013925
   133  H    0.037690
   134  H    0.020775
   135  H    0.019589
   136  H    0.008747
   137  H    0.026119
   138  H    0.039798
   139  H    0.038226
   140  H    0.036400
   141  H    0.033906
   142  H    0.014441
   143  H    0.012470
   144  H    0.025186
   145  H    0.011582
   146  H    0.005723
   147  H    0.006370
   148  H    0.003729
   149  H    0.010944
   150  H    0.018017
   151  H    0.030037
   152  H    0.046042
   153  H    0.008594
   154  H    0.046946
   155  H    0.035010
   156  H    0.043914
   157  H    0.049484
   158  H    0.053598
 Sum of Mulliken charges =  -0.00000

 Dipole moment (field-independent basis, Debye):
    X=              0.4923    Y=              6.3239    Z=             -5.3316  Tot=              8.2862
 Quadrupole moment (field-independent basis, Debye-Ang):
   XX=           -370.0260   YY=           -549.6711   ZZ=           -478.2572
   XY=            -26.6476   XZ=             13.5351   YZ=            -11.1195

 Normal termination of Gaussian 16 at Sun Sep 12 22:36:05 2021.
