 Gaussian 16, Revision A.03,
 Gaussian 16:  ES64L-G16RevA.03 25-Dec-2016

 -----------------------------------
 #p cam-b3lyp/Def2SVP td=(nstates=5)
 -----------------------------------

 --------------------------------
 TDDFT excited states in gaussian
 --------------------------------
 Symbolic Z-matrix:
 Charge =  0 Multiplicity = 1

                         Standard orientation:
 ---------------------------------------------------------------------
 Center     Atomic      Atomic             Coordinates (Angstroms)
 Number     Number       Type             X           Y           Z
 ---------------------------------------------------------------------
      1         12           0        7.809392    0.828863    0.360393
      2          6           0        8.389494   -2.502222   -0.814158
      3          6           0        8.596119    1.913077   -2.777856
      4          6           0        7.746846    3.792770    1.486432
      5          6           0        8.181708   -0.405905    3.598045
      6          7           0        8.399551   -0.254002   -1.478020
      7          6           0        8.526844   -1.534464   -1.811767
      8          6           0        8.745514   -1.756242   -3.338322
      9          6           0        9.348980   -0.329654   -3.716046
     10          6           0        8.716801    0.501198   -2.613341
     11          6           0       10.866260   -0.254363   -3.579321
     12          6           0        7.403724   -2.029938   -4.097546
     13          6           0        7.557521   -2.576097   -5.520012
     14          1           0        6.585792   -3.543180   -6.007704
     15          7           0        7.646960    2.555609   -0.585553
     16          6           0        8.000658    2.813033   -1.867706
     17          6           0        7.684948    4.239023   -2.099142
     18          6           0        7.296115    4.836980   -0.791720
     19          6           0        7.576621    3.744783    0.104829
     20          6           0        7.720406    4.880518   -3.452277
     21          6           0        6.767149    6.183174   -0.409505
     22          8           0        6.714881    6.573129    0.806956
     23          6           0        6.389203    7.079250   -1.517317
     24          7           0        8.160946    1.636647    2.252885
     25          6           0        8.009530    2.945409    2.483539
     26          6           0        8.036248    3.247625    3.952515
     27          6           0        7.994548    1.834748    4.695341
     28          6           0        8.035799    0.912935    3.451625
     29          6           0        9.247223    4.049610    4.448872
     30          6           0        6.866435    1.620130    5.735399
     31          6           0        5.525395    1.581717    5.037377
     32          7           0        8.037220   -1.126437    1.274691
     33          6           0        8.198274   -1.405379    2.639582
     34          6           0        8.421812   -2.857806    2.760227
     35          6           0        8.391580   -3.323498    1.447191
     36          6           0        8.189784   -2.227474    0.560455
     37          6           0        8.676186   -3.564279    3.968789
     38          6           0        8.507394   -4.488631    0.585269
     39          8           0        8.589888   -5.702976    0.775144
     40          6           0        8.632376   -3.987194   -0.920974
     41          6           0        7.675070   -4.798362   -1.750963
     42          8           0        6.441690   -4.686638   -1.597154
     43          8           0        8.346274   -5.394528   -2.748266
     44          6           0        7.449862   -6.191919   -3.627337
     45          1           0        9.049259    2.383154   -3.652860
     46          1           0        7.621936    4.784229    1.926710
     47          1           0        8.221546   -0.874748    4.582957
     48          1           0        9.461128   -2.540530   -3.585732
     49          1           0        9.005443    0.012001   -4.692251
     50          1           0       11.270160   -1.156575   -3.120192
     51          1           0       11.058899    0.613148   -2.947807
     52          1           0       11.331367   -0.034409   -4.540608
     53          1           0        6.913847   -1.080873   -4.315165
     54          1           0        6.764132   -2.699541   -3.521455
     55          1           0        8.572764   -2.928738   -5.703957
     56          1           0        7.426885   -1.749966   -6.219041
     57          1           0        8.200532    4.236775   -4.188225
     58          1           0        8.378936    5.745639   -3.377351
     59          1           0        6.731195    5.198921   -3.781537
     60          1           0        7.257343    7.249950   -2.154297
     61          1           0        5.949359    7.961556   -1.053719
     62          1           0        5.646572    6.578296   -2.139004
     63          1           0        7.165680    3.832064    4.247417
     64          1           0        8.910837    1.638439    5.252612
     65          1           0        8.979968    4.974604    4.960405
     66          1           0        9.893321    4.247995    3.594184
     67          1           0        9.920513    3.500648    5.106700
     68          1           0        6.837515    2.450419    6.440188
     69          1           0        6.980208    0.700963    6.310237
     70          1           0        5.272386    2.636678    4.938000
     71          1           0        4.791182    1.060411    5.652504
     72          1           0        5.611963    1.171203    4.031161
     73          1           0        8.073718   -4.471489    3.924384
     74          1           0        8.421632   -2.961999    4.840606
     75          1           0        9.748521   -3.737467    3.879577
     76          1           0        9.668324   -4.145470   -1.219106
     77          1           0        7.843824   -7.208036   -3.650440
     78          1           0        7.383732   -5.653264   -4.572790
     79          1           0        6.441457   -6.370648   -3.252485
     80         12           0       -7.977845   -0.904021    0.237179
     81          6           0       -8.111996    2.314982   -1.343665
     82          6           0       -7.298460    0.723906    3.156576
     83          6           0       -7.408839   -3.729217    1.564560
     84          6           0       -7.530867   -2.286746   -2.930469
     85          7           0       -7.759695    1.244017    0.717384
     86          6           0       -7.893204    2.379252    0.048250
     87          6           0       -7.866212    3.654379    0.933056
     88          6           0       -7.046976    3.063486    2.181486
     89          6           0       -7.414163    1.587898    2.038439
     90          6           0       -5.540783    3.197672    2.030731
     91          6           0       -9.303945    4.118158    1.357160
     92          6           0       -9.374864    5.523023    1.959721
     93          1           0      -10.550913    6.342051    1.679413
     94          7           0       -7.918544   -1.436605    2.148037
     95          6           0       -7.649544   -0.643075    3.205977
     96          6           0       -7.708642   -1.515763    4.388806
     97          6           0       -7.871875   -2.921107    3.927191
     98          6           0       -7.715112   -2.748640    2.496885
     99          6           0       -7.692233   -0.985328    5.793009
    100          6           0       -8.114509   -4.209151    4.654002
    101          8           0       -7.985662   -5.344542    4.073383
    102          6           0       -8.416127   -4.105313    6.089185
    103          7           0       -7.323638   -2.719364   -0.536694
    104          6           0       -7.210760   -3.805103    0.248385
    105          6           0       -6.991874   -5.052557   -0.574025
    106          6           0       -7.223639   -4.611447   -2.093662
    107          6           0       -7.459135   -3.099343   -1.885141
    108          6           0       -5.616843   -5.706158   -0.438151
    109          6           0       -8.272198   -5.417373   -2.908325
    110          6           0       -9.657600   -5.165789   -2.358078
    111          7           0       -8.025581   -0.178653   -1.797430
    112          6           0       -7.785583   -0.921974   -2.973851
    113          6           0       -7.816514    0.029223   -4.103764
    114          6           0       -8.051354    1.273340   -3.499191
    115          6           0       -8.139075    1.112071   -2.090008
    116          6           0       -7.593331   -0.296134   -5.471408
    117          6           0       -8.234410    2.687946   -3.731749
    118          8           0       -8.346510    3.396624   -4.731225
    119          6           0       -8.155877    3.443894   -2.335771
    120          6           0       -9.315059    4.399358   -2.259089
    121          8           0      -10.483114    3.974176   -2.220576
    122          8           0       -8.848984    5.639747   -2.025459
    123          6           0       -9.962119    6.621409   -1.930130
    124          1           0       -6.857777    1.117497    4.072966
    125          1           0       -7.312510   -4.742779    1.960637
    126          1           0       -7.497738   -2.653773   -3.958516
    127          1           0       -7.334008    4.494431    0.503135
    128          1           0       -7.420304    3.459871    3.122160
    129          1           0       -5.264705    3.562670    1.052621
    130          1           0       -5.139519    2.205604    2.191482
    131          1           0       -5.135578    3.820379    2.833466
    132          1           0       -9.630630    3.526173    2.221777
    133          1           0       -9.986868    4.043416    0.533356
    134          1           0       -8.456476    6.095223    1.780549
    135          1           0       -9.425959    5.431906    3.047427
    136          1           0       -7.398219    0.071174    5.820492
    137          1           0       -6.886226   -1.505427    6.321885
    138          1           0       -8.632124   -1.161038    6.320647
    139          1           0       -7.595407   -3.602507    6.595225
    140          1           0       -8.646698   -5.121888    6.413650
    141          1           0       -9.300156   -3.470435    6.215846
    142          1           0       -7.714022   -5.817459   -0.316096
    143          1           0       -6.304590   -4.707001   -2.690366
    144          1           0       -5.666059   -6.763462   -0.116036
    145          1           0       -5.029210   -5.123323    0.258649
    146          1           0       -5.002465   -5.680412   -1.336529
    147          1           0       -8.087921   -6.489697   -2.806763
    148          1           0       -8.264281   -5.188260   -3.968712
    149          1           0       -9.719868   -5.863707   -1.517767
    150          1           0      -10.413723   -5.384263   -3.109480
    151          1           0       -9.741168   -4.151423   -1.950997
    152          1           0       -8.342498    0.234423   -6.043917
    153          1           0       -7.650201   -1.369650   -5.639099
    154          1           0       -6.577076    0.086059   -5.599484
    155          1           0       -7.196165    3.960601   -2.296562
    156          1           0       -9.757336    7.408732   -2.662168
    157          1           0      -10.005387    6.921629   -0.866290
    158          1           0      -10.947137    6.294031   -2.241599
 ---------------------------------------------------------------------

 SCF Done:  E(RCAM-B3LYP) =  -4069.81182526     A.U. after   19 cycles

 Excitation energies and oscillator strengths:

 Excited State   1:      Singlet-A      1.6718 eV  741.60 nm  f=0.1289  <S**2>=0.000
     310 -> 316        0.14509
     311 -> 313        0.37294
     312 -> 314        0.57608
 This state for optimization and/or second-order correction.
 Total Energy, E(TD-HF/TD-DFT) =  -4069.75038609
 Copying the excited state density for this state as the 1-particle RhoCI density.

 Excited State   2:      Singlet-A      1.6832 eV  736.59 nm  f=0.6244  <S**2>=0.000
     309 -> 315        0.14802
     311 -> 313        0.57540
     312 -> 314       -0.37256

 Excited State   3:      Singlet-A      2.1857 eV  567.25 nm  f=0.0755  <S**2>=0.000
     309 -> 313        0.11486
     310 -> 314        0.63239
     312 -> 316       -0.26833

 Excited State   4:      Singlet-A      2.1929 eV  565.38 nm  f=0.1204  <S**2>=0.000
     309 -> 313        0.63040
     310 -> 314       -0.11405
     311 -> 315       -0.27390

 Excited State   5:      Singlet-A      2.7662 eV  448.21 nm  f=0.0000  <S**2>=0.000
     312 -> 313        0.70710

 The electronic state is 1-A.
 Alpha  occ. eigenvalues --  -46.87836 -46.87591 -19.26318 -19.26310 -19.19124
 Alpha  occ. eigenvalues --  -19.19048 -19.18855 -19.18641 -19.18201 -19.18003
 Alpha  occ. eigenvalues --  -14.42486 -14.42429 -14.41491 -14.41287 -14.39441
 Alpha  occ. eigenvalues --  -14.39283 -14.38625 -14.38534 -10.39108 -10.39053
 Alpha  occ. eigenvalues --  -10.35487 -10.35318 -10.34421 -10.34181 -10.31732
 Alpha  occ. eigenvalues --  -10.31702 -10.31439 -10.31246 -10.30956 -10.30941
 Alpha  occ. eigenvalues --  -10.30606 -10.30548 -10.30331 -10.30299 -10.30251
 Alpha  occ. eigenvalues --  -10.30063 -10.29966 -10.29821 -10.29668 -10.29366
 Alpha  occ. eigenvalues --  -10.29337 -10.29292 -10.28774 -10.28661 -10.28612
 Alpha  occ. eigenvalues --  -10.28552 -10.28400 -10.28339 -10.28141 -10.28077
 Alpha  occ. eigenvalues --  -10.27938 -10.27829 -10.27762 -10.27621 -10.27601
 Alpha  occ. eigenvalues --  -10.27560 -10.27508 -10.27502 -10.27439 -10.27431
 Alpha  occ. eigenvalues --  -10.27418 -10.27402 -10.27399 -10.27280 -10.27189
 Alpha  occ. eigenvalues --  -10.27003 -10.26725 -10.26643 -10.26440 -10.26342
 Alpha  occ. eigenvalues --  -10.26261 -10.26256 -10.26063 -10.26062 -10.25953
 Alpha  occ. eigenvalues --  -10.25881 -10.25865 -10.25808 -10.25490 -10.25266
 Alpha  occ. eigenvalues --  -10.24868 -10.24830 -10.24812 -10.24779 -10.24664
 Alpha  occ. eigenvalues --  -10.24616  -3.16579  -3.16341  -1.91460  -1.91223
 Alpha  occ. eigenvalues --   -1.91047  -1.90889  -1.90812  -1.90649  -1.16659
 Alpha  occ. eigenvalues --   -1.16610  -1.08659  -1.08613  -1.07256  -1.06909
 Alpha  occ. eigenvalues --   -1.06892  -1.06670  -1.04616  -1.04429  -1.03801
 Alpha  occ. eigenvalues --   -1.03594  -1.03273  -1.02968  -1.02450  -1.02043
 Alpha  occ. eigenvalues --   -0.92007  -0.91926  -0.89572  -0.89422  -0.89214
 Alpha  occ. eigenvalues --   -0.89090  -0.88339  -0.88139  -0.87907  -0.87737
 Alpha  occ. eigenvalues --   -0.87708  -0.87617  -0.87307  -0.87052  -0.85012
 Alpha  occ. eigenvalues --   -0.84937  -0.83993  -0.83797  -0.83006  -0.82858
 Alpha  occ. eigenvalues --   -0.82681  -0.82589  -0.81618  -0.81546  -0.80631
 Alpha  occ. eigenvalues --   -0.80384  -0.78831  -0.78571  -0.77258  -0.77081
 Alpha  occ. eigenvalues --   -0.76968  -0.76836  -0.75954  -0.75781  -0.74945
 Alpha  occ. eigenvalues --   -0.74719  -0.72813  -0.72634  -0.71710  -0.71508
 Alpha  occ. eigenvalues --   -0.69970  -0.69679  -0.68904  -0.68766  -0.67678
 Alpha  occ. eigenvalues --   -0.67537  -0.67247  -0.67141  -0.65317  -0.65213
 Alpha  occ. eigenvalues --   -0.64891  -0.64707  -0.64659  -0.64594  -0.64319
 Alpha  occ. eigenvalues --   -0.64130  -0.62331  -0.62228  -0.60480  -0.60268
 Alpha  occ. eigenvalues --   -0.59834  -0.59735  -0.59026  -0.58926  -0.58542
 Alpha  occ. eigenvalues --   -0.58362  -0.57617  -0.57506  -0.57351  -0.57167
 Alpha  occ. eigenvalues --   -0.56344  -0.56144  -0.56007  -0.55838  -0.55555
 Alpha  occ. eigenvalues --   -0.55393  -0.55387  -0.55179  -0.54567  -0.54424
 Alpha  occ. eigenvalues --   -0.53922  -0.53852  -0.53337  -0.53253  -0.53162
 Alpha  occ. eigenvalues --   -0.53082  -0.52951  -0.52845  -0.52787  -0.52601
 Alpha  occ. eigenvalues --   -0.52503  -0.52330  -0.51952  -0.51835  -0.51644
 Alpha  occ. eigenvalues --   -0.51600  -0.51235  -0.51143  -0.50604  -0.50404
 Alpha  occ. eigenvalues --   -0.50083  -0.49952  -0.49912  -0.49785  -0.49546
 Alpha  occ. eigenvalues --   -0.49423  -0.49248  -0.49143  -0.49125  -0.49046
 Alpha  occ. eigenvalues --   -0.48626  -0.48506  -0.48502  -0.48480  -0.48299
 Alpha  occ. eigenvalues --   -0.48270  -0.47730  -0.47530  -0.47333  -0.47047
 Alpha  occ. eigenvalues --   -0.46838  -0.46642  -0.46583  -0.46492  -0.46399
 Alpha  occ. eigenvalues --   -0.46204  -0.46203  -0.46018  -0.45856  -0.45769
 Alpha  occ. eigenvalues --   -0.45250  -0.45121  -0.44613  -0.44544  -0.44457
 Alpha  occ. eigenvalues --   -0.44413  -0.44190  -0.44118  -0.44066  -0.44052
 Alpha  occ. eigenvalues --   -0.44010  -0.43878  -0.43529  -0.43502  -0.43423
 Alpha  occ. eigenvalues --   -0.43321  -0.43065  -0.42883  -0.42840  -0.42742
 Alpha  occ. eigenvalues --   -0.42700  -0.42478  -0.42058  -0.41898  -0.41741
 Alpha  occ. eigenvalues --   -0.41608  -0.41564  -0.41396  -0.41177  -0.40919
 Alpha  occ. eigenvalues --   -0.40907  -0.40860  -0.40656  -0.40632  -0.40620
 Alpha  occ. eigenvalues --   -0.40417  -0.40258  -0.40170  -0.39508  -0.39349
 Alpha  occ. eigenvalues --   -0.38519  -0.38269  -0.37776  -0.37597  -0.37367
 Alpha  occ. eigenvalues --   -0.37293  -0.37194  -0.37138  -0.36748  -0.36725
 Alpha  occ. eigenvalues --   -0.36232  -0.36149  -0.34324  -0.34187  -0.33819
 Alpha  occ. eigenvalues --   -0.33801  -0.33224  -0.33109  -0.31385  -0.31199
 Alpha  occ. eigenvalues --   -0.31074  -0.30905  -0.30061  -0.29909  -0.29486
 Alpha  occ. eigenvalues --   -0.29358  -0.29261  -0.29150  -0.24119  -0.23968
 Alpha  occ. eigenvalues --   -0.21166  -0.21049
 Alpha virt. eigenvalues --   -0.08811  -0.08726  -0.01790  -0.01612  -0.00093
 Alpha virt. eigenvalues --    0.00038   0.02163   0.02266   0.03075   0.03289
 Alpha virt. eigenvalues --    0.04685   0.04795   0.05069   0.05205   0.06154

 Mulliken charges:
               1
     1  Mg   0.838635
     2  C   -0.002927
     3  C   -0.093922
     4  C   -0.045992
     5  C   -0.064062
     6  N   -0.256786
     7  C   -0.052425
     8  C   -0.014026
     9  C   -0.087031
    10  C    0.046308
    11  C    0.104780
    12  C    0.053429
    13  C   -0.071883
    14  H    0.036180
    15  N   -0.433162
    16  C    0.168385
    17  C   -0.176993
    18  C   -0.004038
    19  C    0.148683
    20  C    0.110108
    21  C    0.012192
    22  O   -0.249888
    23  C    0.062484
    24  N   -0.341096
    25  C    0.041240
    26  C   -0.028156
    27  C   -0.023907
    28  C    0.074744
    29  C    0.076165
    30  C    0.035186
    31  C   -0.004431
    32  N   -0.310467
    33  C    0.080341
    34  C   -0.169779
    35  C    0.008408
    36  C    0.082919
    37  C    0.127327
    38  C    0.046119
    39  O   -0.188350
    40  C   -0.005326
    41  C    0.212928
    42  O   -0.257163
    43  O   -0.304766
    44  C    0.157692
    45  H   -0.017408
    46  H   -0.016989
    47  H   -0.041621
    48  H    0.001006
    49  H   -0.003845
    50  H    0.025490
    51  H    0.016425
    52  H    0.016817
    53  H    0.011293
    54  H    0.044048
    55  H    0.017917
    56  H    0.018138
    57  H    0.006051
    58  H    0.026914
    59  H    0.039839
    60  H    0.037519
    61  H    0.035558
    62  H    0.031682
    63  H    0.016238
    64  H    0.009510
    65  H    0.023070
    66  H    0.012713
    67  H    0.004784
    68  H    0.006144
    69  H    0.004743
    70  H    0.008455
    71  H    0.017661
    72  H    0.029195
    73  H    0.047597
    74  H    0.008961
    75  H    0.046069
    76  H    0.035241
    77  H    0.043010
    78  H    0.046473
    79  H    0.053623
    80  Mg   0.837968
    81  C   -0.016938
    82  C   -0.087792
    83  C   -0.045262
    84  C   -0.064705
    85  N   -0.254591
    86  C   -0.049872
    87  C   -0.015079
    88  C   -0.090519
    89  C    0.045834
    90  C    0.114330
    91  C    0.062538
    92  C   -0.077819
    93  H    0.034641
    94  N   -0.423564
    95  C    0.163056
    96  C   -0.174471
    97  C   -0.007612
    98  C    0.152179
    99  C    0.099308
   100  C    0.015673
   101  O   -0.252897
   102  C    0.061184
   103  N   -0.350016
   104  C    0.037732
   105  C   -0.019998
   106  C   -0.034733
   107  C    0.088883
   108  C    0.073366
   109  C    0.034729
   110  C   -0.007651
   111  N   -0.324040
   112  C    0.078370
   113  C   -0.163251
   114  C    0.002077
   115  C    0.096184
   116  C    0.131515
   117  C    0.042183
   118  O   -0.188408
   119  C    0.000990
   120  C    0.211191
   121  O   -0.251060
   122  O   -0.305659
   123  C    0.152094
   124  H   -0.019582
   125  H   -0.015251
   126  H   -0.040590
   127  H   -0.000787
   128  H   -0.004413
   129  H    0.022380
   130  H    0.014793
   131  H    0.016372
   132  H    0.013905
   133  H    0.037572
   134  H    0.020779
   135  H    0.019596
   136  H    0.008723
   137  H    0.026373
   138  H    0.039699
   139  H    0.038365
   140  H    0.036456
   141  H    0.033718
   142  H    0.014316
   143  H    0.012648
   144  H    0.025365
   145  H    0.012354
   146  H    0.006224
   147  H    0.006385
   148  H    0.003420
   149  H    0.010981
   150  H    0.017695
   151  H    0.030005
   152  H    0.045722
   153  H    0.008465
   154  H    0.046687
   155  H    0.034830
   156  H    0.043668
   157  H    0.049537
   158  H    0.053501
 Sum of Mulliken charges =  -0.00000

 Dipole moment (field-independent basis, Debye):
    X=              3.6857    Y=              3.4690    Z=              0.8877  Tot=              5.1387
 Quadrupole moment (field-independent basis, Debye-Ang):
   XX=           -520.6283   YY=           -535.2138   ZZ=           -462.9126
   XY=             20.1992   XZ=            -64.2582   YZ=             32.6001

 Normal termination of Gaussian 16 at Sun Sep 12 00:23:58 2021.
