 Gaussian 16, Revision A.03,
 Gaussian 16:  ES64L-G16RevA.03 25-Dec-2016

 -----------------------------------
 #p cam-b3lyp/Def2SVP td=(nstates=5)
 -----------------------------------

 --------------------------------
 TDDFT excited states in gaussian
 --------------------------------
 Symbolic Z-matrix:
 Charge =  0 Multiplicity = 1

                         Standard orientation:
 ---------------------------------------------------------------------
 Center     Atomic      Atomic             Coordinates (Angstroms)
 Number     Number       Type             X           Y           Z
 ---------------------------------------------------------------------
      1         12           0        8.109103   -0.510454    0.126044
      2          6           0        8.232544    2.692943   -1.466195
      3          6           0        8.942845    1.068416    3.033811
      4          6           0        8.451238   -3.370037    1.453581
      5          6           0        8.408341   -1.932214   -3.041718
      6          7           0        8.508783    1.615313    0.597228
      7          6           0        8.464463    2.752256   -0.090208
      8          6           0        8.612772    4.020325    0.802753
      9          6           0        9.381307    3.369369    2.038718
     10          6           0        8.888603    1.939216    1.905185
     11          6           0       10.899040    3.382129    1.887637
     12          6           0        7.227483    4.608502    1.234901
     13          6           0        7.273265    6.019323    1.828904
     14          1           0        6.174595    6.932082    1.551154
     15          7           0        8.140958   -1.044589    2.027763
     16          6           0        8.490166   -0.267881    3.081359
     17          6           0        8.351017   -1.121478    4.280814
     18          6           0        8.075651   -2.511013    3.820968
     19          6           0        8.239697   -2.367336    2.396951
     20          6           0        8.431259   -0.593473    5.680286
     21          6           0        7.731244   -3.771053    4.550225
     22          8           0        7.760948   -4.915791    3.981660
     23          6           0        7.440198   -3.638622    5.989251
     24          7           0        8.609963   -2.383951   -0.646475
     25          6           0        8.631198   -3.469324    0.134868
     26          6           0        8.734854   -4.725516   -0.678258
     27          6           0        8.534814   -4.284886   -2.199962
     28          6           0        8.426300   -2.754372   -1.990147
     29          6           0       10.050153   -5.504773   -0.541293
     30          6           0        7.416643   -5.001039   -2.998234
     31          6           0        6.063432   -4.619101   -2.441419
     32          7           0        8.112396    0.211224   -1.920957
     33          6           0        8.273116   -0.554629   -3.084706
     34          6           0        8.314585    0.386570   -4.218943
     35          6           0        8.190941    1.643844   -3.630880
     36          6           0        8.105690    1.498939   -2.216657
     37          6           0        8.509708    0.037869   -5.584509
     38          6           0        8.135778    3.077495   -3.866376
     39          8           0        8.069283    3.789594   -4.869365
     40          6           0        8.283046    3.821323   -2.466070
     41          6           0        7.209279    4.872628   -2.394721
     42          8           0        6.004401    4.553349   -2.333929
     43          8           0        7.773114    6.069455   -2.170583
     44          6           0        6.760168    7.152856   -2.059517
     45          1           0        9.428326    1.417757    3.947162
     46          1           0        8.464257   -4.383212    1.860697
     47          1           0        8.414792   -2.308180   -4.066443
     48          1           0        9.216801    4.815748    0.365860
     49          1           0        9.057867    3.794452    2.988672
     50          1           0       11.197826    3.720495    0.895591
     51          1           0       11.216377    2.351884    2.050071
     52          1           0       11.362512    3.967256    2.682367
     53          1           0        6.855766    4.055886    2.097748
     54          1           0        6.523979    4.590751    0.401778
     55          1           0        8.230607    6.503235    1.633371
     56          1           0        7.229481    5.934312    2.914747
     57          1           0        8.806545    0.428900    5.701702
     58          1           0        9.195515   -1.174226    6.196374
     59          1           0        7.481782   -0.684024    6.208136
     60          1           0        8.305724   -3.208155    6.493346
     61          1           0        7.127751   -4.626790    6.325033
     62          1           0        6.624013   -2.927579    6.120439
     63          1           0        7.953192   -5.433414   -0.405656
     64          1           0        9.433449   -4.449521   -2.794961
     65          1           0        9.915515   -6.538219   -0.221031
     66          1           0       10.693209   -4.961569    0.150587
     67          1           0       10.665959   -5.523677   -1.440094
     68          1           0        7.511520   -6.081690   -2.897552
     69          1           0        7.428659   -4.764764   -4.062321
     70          1           0        5.943114   -5.304045   -1.602846
     71          1           0        5.285860   -4.777357   -3.189448
     72          1           0        6.070725   -3.606799   -2.036847
     73          1           0        7.796541    0.631888   -6.155914
     74          1           0        8.356479   -1.028832   -5.746593
     75          1           0        9.548841    0.336181   -5.722598
     76          1           0        9.282433    4.254802   -2.444961
     77          1           0        7.021915    7.913630   -2.795007
     78          1           0        6.737509    7.449560   -1.010775
     79          1           0        5.747576    6.900320   -2.376095
     80         12           0       -7.759979   -0.904138    0.123972
     81          6           0      -10.130784    1.787191    0.001283
     82          6           0       -5.348702    1.443684    0.678999
     83          6           0       -5.591418   -3.196202   -0.209516
     84          6           0      -10.109434   -2.865278   -1.543288
     85          7           0       -7.851991    1.298965    0.297547
     86          6           0       -8.816578    2.206658    0.295095
     87          6           0       -8.359291    3.632234    0.705213
     88          6           0       -6.803994    3.504156    0.326399
     89          6           0       -6.639778    1.993030    0.475366
     90          6           0       -6.503084    3.877442   -1.115635
     91          6           0       -8.556628    3.905532    2.237659
     92          6           0       -8.422378    5.372575    2.651773
     93          1           0       -9.275059    5.873307    3.726338
     94          7           0       -5.859393   -0.966393    0.691833
     95          6           0       -5.034954    0.083245    0.891375
     96          6           0       -3.737879   -0.492083    1.279670
     97          6           0       -3.817950   -1.970874    1.133162
     98          6           0       -5.114314   -2.103149    0.499106
     99          6           0       -2.605806    0.338210    1.811134
    100          6           0       -2.877195   -3.081254    1.491294
    101          8           0       -3.048116   -4.274989    1.056995
    102          6           0       -1.698829   -2.710638    2.288531
    103          7           0       -7.751754   -2.694397   -0.933034
    104          6           0       -6.702219   -3.532168   -0.865706
    105          6           0       -7.033028   -4.871441   -1.479944
    106          6           0       -8.607580   -4.839392   -1.758035
    107          6           0       -8.912564   -3.390245   -1.319472
    108          6           0       -6.294604   -5.210098   -2.774710
    109          6           0       -9.453661   -5.990026   -1.147398
    110          6           0       -9.461102   -5.881082    0.360400
    111          7           0       -9.822746   -0.683707   -0.479729
    112          6           0      -10.608148   -1.617953   -1.189947
    113          6           0      -11.907387   -0.972224   -1.468225
    114          6           0      -11.778361    0.311234   -0.916332
    115          6           0      -10.482501    0.462203   -0.352911
    116          6           0      -12.987692   -1.553711   -2.189983
    117          6           0      -12.439990    1.576325   -0.691644
    118          8           0      -13.579105    2.004954   -0.871725
    119          6           0      -11.358410    2.631817   -0.199171
    120          6           0      -11.919721    3.347501    0.998840
    121          8           0      -12.135023    2.733200    2.058512
    122          8           0      -11.905235    4.672819    0.767136
    123          6           0      -12.442378    5.426344    1.931389
    124          1           0       -4.487494    2.110634    0.630236
    125          1           0       -4.920139   -4.056775   -0.257116
    126          1           0      -10.929931   -3.444385   -1.972334
    127          1           0       -8.814897    4.435855    0.139165
    128          1           0       -6.178199    4.028291    1.044053
    129          1           0       -7.404965    4.054463   -1.682581
    130          1           0       -5.955162    3.040321   -1.528002
    131          1           0       -5.819833    4.730880   -1.149390
    132          1           0       -7.710661    3.476281    2.789766
    133          1           0       -9.498766    3.519511    2.575290
    134          1           0       -8.454276    6.048995    1.789002
    135          1           0       -7.426169    5.524075    3.074429
    136          1           0       -2.781564    1.408838    1.649072
    137          1           0       -1.727274    0.111244    1.197512
    138          1           0       -2.374596    0.116246    2.855140
    139          1           0       -1.120469   -1.962394    1.751794
    140          1           0       -1.194781   -3.651080    2.519611
    141          1           0       -2.038984   -2.238939    3.217194
    142          1           0       -6.814263   -5.677684   -0.790582
    143          1           0       -8.832695   -4.896317   -2.833170
    144          1           0       -5.724187   -6.156341   -2.717169
    145          1           0       -5.638870   -4.385084   -3.019481
    146          1           0       -6.923226   -5.276392   -3.661068
    147          1           0       -9.005576   -6.957615   -1.386452
    148          1           0      -10.477025   -6.011408   -1.506921
    149          1           0       -8.524386   -6.368066    0.647631
    150          1           0      -10.320698   -6.401534    0.777842
    151          1           0       -9.399758   -4.834196    0.679661
    152          1           0      -13.890795   -1.316140   -1.643663
    153          1           0      -12.859655   -2.628568   -2.299749
    154          1           0      -12.889599   -1.029079   -3.144132
    155          1           0      -11.163702    3.312673   -1.028690
    156          1           0      -13.260732    6.049918    1.558363
    157          1           0      -11.574045    5.947891    2.376065
    158          1           0      -12.944707    4.859665    2.706620
 ---------------------------------------------------------------------

 SCF Done:  E(RCAM-B3LYP) =  -4069.81185754     A.U. after   19 cycles

 Excitation energies and oscillator strengths:

 Excited State   1:      Singlet-A      1.6738 eV  740.72 nm  f=0.3057  <S**2>=0.000
     310 -> 316        0.15346
     311 -> 313       -0.31805
     312 -> 314        0.60800
 This state for optimization and/or second-order correction.
 Total Energy, E(TD-HF/TD-DFT) =  -4069.75034501
 Copying the excited state density for this state as the 1-particle RhoCI density.

 Excited State   2:      Singlet-A      1.6810 eV  737.56 nm  f=0.4765  <S**2>=0.000
     309 -> 315        0.15612
     311 -> 313        0.60750
     312 -> 314        0.31782

 Excited State   3:      Singlet-A      2.1860 eV  567.18 nm  f=0.0545  <S**2>=0.000
     309 -> 313        0.15064
     310 -> 314        0.62481
     312 -> 316       -0.26533

 Excited State   4:      Singlet-A      2.1934 eV  565.26 nm  f=0.1380  <S**2>=0.000
     309 -> 313        0.62282
     310 -> 314       -0.14956
     311 -> 315       -0.27114

 Excited State   5:      Singlet-A      2.7314 eV  453.92 nm  f=0.0000  <S**2>=0.000
     312 -> 313        0.70700

 The electronic state is 1-A.
 Alpha  occ. eigenvalues --  -46.87917 -46.87582 -19.26448 -19.26297 -19.19188
 Alpha  occ. eigenvalues --  -19.19106 -19.18914 -19.18627 -19.18294 -19.17980
 Alpha  occ. eigenvalues --  -14.42572 -14.42417 -14.41560 -14.41281 -14.39522
 Alpha  occ. eigenvalues --  -14.39272 -14.38707 -14.38523 -10.39242 -10.39034
 Alpha  occ. eigenvalues --  -10.35547 -10.35304 -10.34515 -10.34159 -10.31852
 Alpha  occ. eigenvalues --  -10.31713 -10.31529 -10.31229 -10.31037 -10.30941
 Alpha  occ. eigenvalues --  -10.30690 -10.30620 -10.30321 -10.30309 -10.30283
 Alpha  occ. eigenvalues --  -10.30060 -10.30024 -10.29821 -10.29745 -10.29368
 Alpha  occ. eigenvalues --  -10.29353 -10.29322 -10.28894 -10.28723 -10.28643
 Alpha  occ. eigenvalues --  -10.28605 -10.28487 -10.28324 -10.28250 -10.28054
 Alpha  occ. eigenvalues --  -10.27921 -10.27909 -10.27846 -10.27699 -10.27600
 Alpha  occ. eigenvalues --  -10.27583 -10.27574 -10.27526 -10.27522 -10.27448
 Alpha  occ. eigenvalues --  -10.27406 -10.27384 -10.27358 -10.27305 -10.27292
 Alpha  occ. eigenvalues --  -10.26982 -10.26884 -10.26633 -10.26508 -10.26353
 Alpha  occ. eigenvalues --  -10.26321 -10.26233 -10.26126 -10.26078 -10.25944
 Alpha  occ. eigenvalues --  -10.25916 -10.25857 -10.25785 -10.25498 -10.25323
 Alpha  occ. eigenvalues --  -10.24951 -10.24896 -10.24794 -10.24726 -10.24676
 Alpha  occ. eigenvalues --  -10.24612  -3.16661  -3.16332  -1.91543  -1.91214
 Alpha  occ. eigenvalues --   -1.91129  -1.90971  -1.90803  -1.90640  -1.16797
 Alpha  occ. eigenvalues --   -1.16591  -1.08754  -1.08590  -1.07313  -1.06890
 Alpha  occ. eigenvalues --   -1.06879  -1.06808  -1.04704  -1.04415  -1.03873
 Alpha  occ. eigenvalues --   -1.03584  -1.03349  -1.02961  -1.02526  -1.02033
 Alpha  occ. eigenvalues --   -0.92096  -0.91911  -0.89612  -0.89422  -0.89326
 Alpha  occ. eigenvalues --   -0.89071  -0.88375  -0.88148  -0.87983  -0.87795
 Alpha  occ. eigenvalues --   -0.87720  -0.87605  -0.87387  -0.87031  -0.85116
 Alpha  occ. eigenvalues --   -0.84923  -0.84020  -0.83808  -0.83066  -0.82846
 Alpha  occ. eigenvalues --   -0.82774  -0.82574  -0.81721  -0.81531  -0.80721
 Alpha  occ. eigenvalues --   -0.80370  -0.78911  -0.78551  -0.77332  -0.77067
 Alpha  occ. eigenvalues --   -0.77061  -0.76829  -0.76052  -0.75761  -0.74992
 Alpha  occ. eigenvalues --   -0.74729  -0.72886  -0.72621  -0.71785  -0.71502
 Alpha  occ. eigenvalues --   -0.69980  -0.69690  -0.69001  -0.68751  -0.67758
 Alpha  occ. eigenvalues --   -0.67526  -0.67360  -0.67127  -0.65421  -0.65198
 Alpha  occ. eigenvalues --   -0.64975  -0.64741  -0.64696  -0.64582  -0.64364
 Alpha  occ. eigenvalues --   -0.64132  -0.62434  -0.62214  -0.60549  -0.60257
 Alpha  occ. eigenvalues --   -0.59935  -0.59717  -0.59102  -0.58917  -0.58620
 Alpha  occ. eigenvalues --   -0.58351  -0.57719  -0.57487  -0.57416  -0.57161
 Alpha  occ. eigenvalues --   -0.56427  -0.56126  -0.56125  -0.55821  -0.55635
 Alpha  occ. eigenvalues --   -0.55442  -0.55374  -0.55180  -0.54637  -0.54423
 Alpha  occ. eigenvalues --   -0.54034  -0.53835  -0.53409  -0.53349  -0.53151
 Alpha  occ. eigenvalues --   -0.53065  -0.53043  -0.52875  -0.52831  -0.52578
 Alpha  occ. eigenvalues --   -0.52509  -0.52337  -0.52024  -0.51815  -0.51752
 Alpha  occ. eigenvalues --   -0.51582  -0.51312  -0.51130  -0.50680  -0.50385
 Alpha  occ. eigenvalues --   -0.50120  -0.50028  -0.49897  -0.49790  -0.49638
 Alpha  occ. eigenvalues --   -0.49406  -0.49336  -0.49223  -0.49122  -0.49028
 Alpha  occ. eigenvalues --   -0.48720  -0.48560  -0.48555  -0.48484  -0.48305
 Alpha  occ. eigenvalues --   -0.48254  -0.47811  -0.47515  -0.47409  -0.47034
 Alpha  occ. eigenvalues --   -0.46907  -0.46692  -0.46634  -0.46477  -0.46471
 Alpha  occ. eigenvalues --   -0.46273  -0.46193  -0.46014  -0.45947  -0.45755
 Alpha  occ. eigenvalues --   -0.45291  -0.45134  -0.44701  -0.44619  -0.44442
 Alpha  occ. eigenvalues --   -0.44399  -0.44250  -0.44210  -0.44139  -0.44049
 Alpha  occ. eigenvalues --   -0.44005  -0.43858  -0.43624  -0.43503  -0.43490
 Alpha  occ. eigenvalues --   -0.43311  -0.43141  -0.42867  -0.42841  -0.42829
 Alpha  occ. eigenvalues --   -0.42745  -0.42480  -0.42112  -0.41896  -0.41821
 Alpha  occ. eigenvalues --   -0.41664  -0.41595  -0.41386  -0.41256  -0.40991
 Alpha  occ. eigenvalues --   -0.40935  -0.40909  -0.40663  -0.40645  -0.40621
 Alpha  occ. eigenvalues --   -0.40422  -0.40389  -0.40158  -0.39510  -0.39360
 Alpha  occ. eigenvalues --   -0.38564  -0.38279  -0.37898  -0.37587  -0.37419
 Alpha  occ. eigenvalues --   -0.37400  -0.37193  -0.37123  -0.36854  -0.36713
 Alpha  occ. eigenvalues --   -0.36314  -0.36147  -0.34404  -0.34177  -0.33930
 Alpha  occ. eigenvalues --   -0.33803  -0.33305  -0.33098  -0.31443  -0.31187
 Alpha  occ. eigenvalues --   -0.31152  -0.30894  -0.30154  -0.29886  -0.29565
 Alpha  occ. eigenvalues --   -0.29440  -0.29244  -0.29134  -0.24199  -0.23957
 Alpha  occ. eigenvalues --   -0.21243  -0.21037
 Alpha virt. eigenvalues --   -0.08890  -0.08711  -0.01862  -0.01605  -0.00173
 Alpha virt. eigenvalues --    0.00056   0.02084   0.02281   0.02966   0.03293
 Alpha virt. eigenvalues --    0.04588   0.04806   0.04941   0.05223   0.06019

 Mulliken charges:
               1
     1  Mg   0.838011
     2  C   -0.003367
     3  C   -0.094503
     4  C   -0.045664
     5  C   -0.063687
     6  N   -0.256809
     7  C   -0.052690
     8  C   -0.013924
     9  C   -0.086946
    10  C    0.046122
    11  C    0.104763
    12  C    0.053588
    13  C   -0.071591
    14  H    0.035254
    15  N   -0.433215
    16  C    0.168214
    17  C   -0.177351
    18  C   -0.003993
    19  C    0.148558
    20  C    0.110178
    21  C    0.012233
    22  O   -0.249036
    23  C    0.062561
    24  N   -0.341153
    25  C    0.041276
    26  C   -0.028294
    27  C   -0.024052
    28  C    0.074858
    29  C    0.076066
    30  C    0.035014
    31  C   -0.004562
    32  N   -0.310464
    33  C    0.080309
    34  C   -0.169624
    35  C    0.008355
    36  C    0.082782
    37  C    0.127317
    38  C    0.045991
    39  O   -0.188428
    40  C   -0.005267
    41  C    0.213006
    42  O   -0.257890
    43  O   -0.304548
    44  C    0.157795
    45  H   -0.017508
    46  H   -0.016384
    47  H   -0.041140
    48  H    0.001083
    49  H   -0.004225
    50  H    0.025594
    51  H    0.016682
    52  H    0.016798
    53  H    0.010643
    54  H    0.043491
    55  H    0.018362
    56  H    0.017930
    57  H    0.005805
    58  H    0.027176
    59  H    0.039137
    60  H    0.037480
    61  H    0.036148
    62  H    0.030906
    63  H    0.017031
    64  H    0.009627
    65  H    0.023613
    66  H    0.012485
    67  H    0.004924
    68  H    0.006863
    69  H    0.004793
    70  H    0.009370
    71  H    0.018815
    72  H    0.028188
    73  H    0.047527
    74  H    0.009399
    75  H    0.046197
    76  H    0.035356
    77  H    0.043239
    78  H    0.046301
    79  H    0.053101
    80  Mg   0.837775
    81  C   -0.016866
    82  C   -0.087763
    83  C   -0.045406
    84  C   -0.064881
    85  N   -0.254554
    86  C   -0.049878
    87  C   -0.015108
    88  C   -0.090452
    89  C    0.045639
    90  C    0.114239
    91  C    0.062567
    92  C   -0.077713
    93  H    0.034440
    94  N   -0.423581
    95  C    0.162826
    96  C   -0.174108
    97  C   -0.007731
    98  C    0.152208
    99  C    0.099038
   100  C    0.015709
   101  O   -0.253136
   102  C    0.061091
   103  N   -0.350014
   104  C    0.037595
   105  C   -0.019859
   106  C   -0.034769
   107  C    0.088832
   108  C    0.073611
   109  C    0.034783
   110  C   -0.007643
   111  N   -0.324059
   112  C    0.078317
   113  C   -0.163277
   114  C    0.002193
   115  C    0.096080
   116  C    0.131525
   117  C    0.042260
   118  O   -0.188169
   119  C    0.000928
   120  C    0.211230
   121  O   -0.251173
   122  O   -0.305572
   123  C    0.152108
   124  H   -0.018864
   125  H   -0.015530
   126  H   -0.040643
   127  H   -0.000675
   128  H   -0.004420
   129  H    0.022363
   130  H    0.014996
   131  H    0.016720
   132  H    0.013761
   133  H    0.037532
   134  H    0.020887
   135  H    0.019467
   136  H    0.009126
   137  H    0.027558
   138  H    0.039091
   139  H    0.038921
   140  H    0.036628
   141  H    0.033254
   142  H    0.014292
   143  H    0.012376
   144  H    0.025015
   145  H    0.012005
   146  H    0.005630
   147  H    0.006141
   148  H    0.003533
   149  H    0.010888
   150  H    0.017734
   151  H    0.030136
   152  H    0.045792
   153  H    0.008372
   154  H    0.046895
   155  H    0.035065
   156  H    0.043803
   157  H    0.049440
   158  H    0.053431
 Sum of Mulliken charges =  -0.00000

 Dipole moment (field-independent basis, Debye):
    X=              6.2258    Y=              2.1420    Z=              3.8143  Tot=              7.6091
 Quadrupole moment (field-independent basis, Debye-Ang):
   XX=           -564.3425   YY=           -485.8757   ZZ=           -502.3616
   XY=             16.4983   XZ=             41.0063   YZ=             50.7254

 Normal termination of Gaussian 16 at Sun Sep 12 07:57:53 2021.
