 Gaussian 16, Revision A.03,
 Gaussian 16:  ES64L-G16RevA.03 25-Dec-2016

 -----------------------------------
 #p cam-b3lyp/Def2SVP td=(nstates=5)
 -----------------------------------

 --------------------------------
 TDDFT excited states in gaussian
 --------------------------------
 Symbolic Z-matrix:
 Charge =  0 Multiplicity = 1

                         Standard orientation:
 ---------------------------------------------------------------------
 Center     Atomic      Atomic             Coordinates (Angstroms)
 Number     Number       Type             X           Y           Z
 ---------------------------------------------------------------------
      1         12           0       -3.588281    0.881755    0.293771
      2          6           0       -4.038677   -2.246879    1.973357
      3          6           0       -4.081405    2.401634    3.308711
      4          6           0       -3.646745    3.657953   -1.237870
      5          6           0       -4.257648   -0.791477   -2.689164
      6          7           0       -3.997342    0.072200    2.313162
      7          6           0       -4.086290   -1.147739    2.833745
      8          6           0       -4.159153   -1.151537    4.390039
      9          6           0       -4.731447    0.318881    4.618837
     10          6           0       -4.210032    0.981687    3.356007
     11          6           0       -6.255215    0.386887    4.616008
     12          6           0       -2.750498   -1.327272    5.050750
     13          6           0       -2.766968   -1.667367    6.543874
     14          1           0       -1.748850   -2.564598    7.069002
     15          7           0       -3.346078    2.722629    0.968583
     16          6           0       -3.578758    3.160153    2.229423
     17          6           0       -3.249742    4.601828    2.227790
     18          6           0       -2.988708    5.007377    0.818718
     19          6           0       -3.346957    3.802672    0.114643
     20          6           0       -3.160822    5.426921    3.474813
     21          6           0       -2.504767    6.282263    0.203414
     22          8           0       -2.569201    6.497421   -1.055208
     23          6           0       -2.028647    7.321590    1.134086
     24          7           0       -4.120465    1.419208   -1.651880
     25          6           0       -3.997935    2.681416   -2.077088
     26          6           0       -4.164345    2.774968   -3.564870
     27          6           0       -4.185758    1.271625   -4.102692
     28          6           0       -4.105149    0.533607   -2.743610
     29          6           0       -5.420640    3.509514   -4.052903
     30          6           0       -3.159531    0.903972   -5.203650
     31          6           0       -1.758553    0.952618   -4.636207
     32          7           0       -3.891475   -1.180429   -0.311634
     33          6           0       -4.178937   -1.646573   -1.602661
     34          6           0       -4.405630   -3.099661   -1.496775
     35          6           0       -4.249593   -3.376955   -0.140086
     36          6           0       -3.970645   -2.169182    0.561172
     37          6           0       -4.769155   -3.966413   -2.564963
     38          6           0       -4.277955   -4.408774    0.883829
     39          8           0       -4.371931   -5.637017    0.874824
     40          6           0       -4.263050   -3.700149    2.309821
     41          6           0       -3.227836   -4.394913    3.151808
     42          8           0       -2.014986   -4.316115    2.868696
     43          8           0       -3.799190   -4.839806    4.281484
     44          6           0       -2.820045   -5.513544    5.175635
     45          1           0       -4.452475    2.993466    4.147748
     46          1           0       -3.568767    4.576842   -1.822679
     47          1           0       -4.387716   -1.393390   -3.590406
     48          1           0       -4.844392   -1.887425    4.811157
     49          1           0       -4.299223    0.791120    5.500820
     50          1           0       -6.696066   -0.567380    4.328003
     51          1           0       -6.510761    1.158892    3.889925
     52          1           0       -6.628833    0.743266    5.576311
     53          1           0       -2.247024   -0.361183    5.086064
     54          1           0       -2.164673   -2.076308    4.516821
     55          1           0       -3.758619   -1.982285    6.870009
     56          1           0       -2.575198   -0.752530    7.104674
     57          1           0       -3.566322    4.896700    4.335616
     58          1           0       -3.827767    6.278448    3.341416
     59          1           0       -2.146597    5.780089    3.661763
     60          1           0       -2.833792    7.587102    1.819501
     61          1           0       -1.638791    8.126518    0.512031
     62          1           0       -1.228304    6.906557    1.747395
     63          1           0       -3.328321    3.305041   -4.019308
     64          1           0       -5.149461    1.006776   -4.538360
     65          1           0       -5.207329    4.351424   -4.711986
     66          1           0       -5.984371    3.831103   -3.177644
     67          1           0       -6.150143    2.879389   -4.561022
     68          1           0       -3.201220    1.627011   -6.017542
     69          1           0       -3.322358   -0.085713   -5.630572
     70          1           0       -1.502550    2.008952   -4.710051
     71          1           0       -1.082940    0.344151   -5.238308
     72          1           0       -1.747958    0.687923   -3.578705
     73          1           0       -4.160688   -4.863424   -2.450478
     74          1           0       -4.600809   -3.494412   -3.532681
     75          1           0       -5.827454   -4.116460   -2.352019
     76          1           0       -5.265527   -3.806451    2.723175
     77          1           0       -3.205034   -6.513080    5.377988
     78          1           0       -2.667865   -4.848260    6.025718
     79          1           0       -1.850539   -5.751433    4.736537
     80         12           0        4.267552   -0.031201   -0.257971
     81          6           0        1.881158   -1.641019   -2.401032
     82          6           0        3.040434    2.947649   -1.378360
     83          6           0        6.646650    1.409796    1.268747
     84          6           0        6.026832   -3.038847   -0.189443
     85          7           0        2.666273    0.460117   -1.702543
     86          6           0        1.786151   -0.233771   -2.408412
     87          6           0        0.695468    0.626566   -3.101091
     88          6           0        1.497765    2.015540   -3.178110
     89          6           0        2.440338    1.819423   -1.992460
     90          6           0        2.336948    2.156795   -4.437139
     91          6           0       -0.602703    0.760608   -2.229992
     92          6           0       -1.818199    1.323799   -2.969695
     93          1           0       -3.141818    0.813547   -2.623102
     94          7           0        4.472793    1.860549    0.305691
     95          6           0        3.883496    2.942348   -0.245419
     96          6           0        4.374768    4.100416    0.517274
     97          6           0        5.428792    3.630352    1.456842
     98          6           0        5.574790    2.255463    1.022731
     99          6           0        3.790833    5.475919    0.374365
    100          6           0        6.189701    4.309834    2.554808
    101          8           0        7.227986    3.776597    3.084372
    102          6           0        5.738935    5.658742    2.927302
    103          7           0        6.182800   -0.645765    0.267816
    104          6           0        6.996786    0.157389    0.975131
    105          6           0        8.208752   -0.594574    1.471197
    106          6           0        7.918561   -2.134799    1.153275
    107          6           0        6.569267   -1.991068    0.415602
    108          6           0        9.544228   -0.189348    0.847759
    109          6           0        8.007806   -3.128152    2.344054
    110          6           0        6.890808   -2.858080    3.326284
    111          7           0        3.935158   -2.044096   -0.969170
    112          6           0        4.812945   -3.144480   -0.856306
    113          6           0        4.198465   -4.268790   -1.591681
    114          6           0        3.007345   -3.733612   -2.104801
    115          6           0        2.897709   -2.366243   -1.733616
    116          6           0        4.764967   -5.564301   -1.755516
    117          6           0        1.822977   -4.011546   -2.885010
    118          8           0        1.330815   -5.021050   -3.387411
    119          6           0        1.102550   -2.634430   -3.218055
    120          6           0       -0.362982   -2.792545   -2.918514
    121          8           0       -0.753515   -2.975734   -1.752093
    122          8           0       -1.073301   -2.486080   -4.019374
    123          6           0       -2.533386   -2.617292   -3.768828
    124          1           0        2.886271    3.927767   -1.830569
    125          1           0        7.444332    1.827344    1.887474
    126          1           0        6.465428   -4.037395   -0.132751
    127          1           0        0.423019    0.298814   -4.097142
    128          1           0        0.838774    2.862432   -3.005309
    129          1           0        2.347961    1.246636   -5.018199
    130          1           0        3.335313    2.402048   -4.099246
    131          1           0        1.997156    3.016212   -5.022189
    132          1           0       -0.453348    1.551964   -1.484218
    133          1           0       -0.857498   -0.178646   -1.778876
    134          1           0       -1.677287    1.319303   -4.057386
    135          1           0       -1.918621    2.382090   -2.716819
    136          1           0        3.144705    5.548811   -0.509159
    137          1           0        4.622507    6.155625    0.159479
    138          1           0        3.282995    5.814117    1.280115
    139          1           0        5.785732    6.308430    2.056563
    140          1           0        6.347582    5.942995    3.787894
    141          1           0        4.685563    5.606007    3.224368
    142          1           0        8.328241   -0.472983    2.540801
    143          1           0        8.633805   -2.542009    0.423592
    144          1           0       10.296185    0.128012    1.594691
    145          1           0        9.361085    0.601726    0.132777
    146          1           0       10.016853   -0.952551    0.231843
    147          1           0        8.943155   -2.982001    2.889868
    148          1           0        7.970716   -4.169384    2.041646
    149          1           0        7.288073   -2.038473    3.932515
    150          1           0        6.693747   -3.738944    3.933971
    151          1           0        5.996919   -2.485134    2.812930
    152          1           0        3.965642   -6.275961   -1.597000
    153          1           0        5.587919   -5.728839   -1.063096
    154          1           0        5.107360   -5.497840   -2.791663
    155          1           0        1.283926   -2.416115   -4.271160
    156          1           0       -2.926790   -3.304071   -4.524632
    157          1           0       -2.930781   -1.584902   -3.770724
    158          1           0       -2.842727   -3.109553   -2.854266
 ---------------------------------------------------------------------

 SCF Done:  E(RCAM-B3LYP) =  -4068.71916303     A.U. after   30 cycles

 Excitation energies and oscillator strengths:

 Excited State   1:      Singlet-A      0.1634 eV 7589.18 nm  f=0.0053  <S**2>=0.000
     309 -> 314        0.16899
     312 -> 313       -0.14665
     312 -> 314       -0.97554
     312 -> 315        0.16172
     312 -> 317        0.10177
     309 <- 314       -0.14393
     312 <- 314        0.72133
 This state for optimization and/or second-order correction.
 Total Energy, E(TD-HF/TD-DFT) =  -4068.71315930
 Copying the excited state density for this state as the 1-particle RhoCI density.

 Excited State   2:      Singlet-A      0.2601 eV 4766.05 nm  f=0.0076  <S**2>=0.000
     312 -> 313        0.69456
     312 -> 314       -0.12339

 Excited State   3:      Singlet-A      0.6755 eV 1835.43 nm  f=0.0141  <S**2>=0.000
     312 -> 314        0.17683
     312 -> 315        0.67320
     312 <- 314       -0.11311

 Excited State   4:      Singlet-A      1.2426 eV  997.76 nm  f=0.0343  <S**2>=0.000
     312 -> 314        0.12669
     312 -> 316        0.31949
     312 -> 317        0.60004

 Excited State   5:      Singlet-A      1.6817 eV  737.26 nm  f=0.2376  <S**2>=0.000
     308 -> 316       -0.15710
     310 -> 313        0.65539
     311 -> 314       -0.17820

 The electronic state is 1-A.
 Alpha  occ. eigenvalues --  -46.88548 -46.85375 -19.27904 -19.24241 -19.20366
 Alpha  occ. eigenvalues --  -19.19267 -19.18877 -19.16713 -19.16004 -19.16000
 Alpha  occ. eigenvalues --  -14.43696 -14.42183 -14.40587 -14.40191 -14.39457
 Alpha  occ. eigenvalues --  -14.36963 -14.36735 -14.36505 -10.40313 -10.39828
 Alpha  occ. eigenvalues --  -10.36724 -10.35927 -10.35131 -10.34307 -10.32667
 Alpha  occ. eigenvalues --  -10.32637 -10.32529 -10.32207 -10.32200 -10.32103
 Alpha  occ. eigenvalues --  -10.32014 -10.31721 -10.31255 -10.31210 -10.31109
 Alpha  occ. eigenvalues --  -10.30886 -10.30697 -10.30643 -10.30213 -10.30164
 Alpha  occ. eigenvalues --  -10.30012 -10.29702 -10.29312 -10.28748 -10.28727
 Alpha  occ. eigenvalues --  -10.28696 -10.28493 -10.28325 -10.28281 -10.28193
 Alpha  occ. eigenvalues --  -10.28163 -10.28081 -10.27963 -10.27927 -10.27886
 Alpha  occ. eigenvalues --  -10.27775 -10.27720 -10.27260 -10.26887 -10.26771
 Alpha  occ. eigenvalues --  -10.26725 -10.26716 -10.26699 -10.26536 -10.26530
 Alpha  occ. eigenvalues --  -10.26485 -10.26365 -10.26335 -10.26099 -10.25936
 Alpha  occ. eigenvalues --  -10.25851 -10.25675 -10.25503 -10.25185 -10.25025
 Alpha  occ. eigenvalues --  -10.24510 -10.24405 -10.24367 -10.24141 -10.24003
 Alpha  occ. eigenvalues --  -10.23663 -10.23556 -10.23078 -10.22830 -10.22719
 Alpha  occ. eigenvalues --  -10.22376  -3.17292  -3.14126  -1.92171  -1.91767
 Alpha  occ. eigenvalues --   -1.91598  -1.89020  -1.88580  -1.88440  -1.29745
 Alpha  occ. eigenvalues --   -1.18151  -1.14532  -1.09522  -1.08149  -1.07508
 Alpha  occ. eigenvalues --   -1.06752  -1.06489  -1.05844  -1.04582  -1.04577
 Alpha  occ. eigenvalues --   -1.04386  -1.03848  -1.02968  -1.01467  -1.00303
 Alpha  occ. eigenvalues --   -0.99550  -0.93891  -0.93087  -0.91708  -0.91152
 Alpha  occ. eigenvalues --   -0.90216  -0.89333  -0.88815  -0.88586  -0.88480
 Alpha  occ. eigenvalues --   -0.87886  -0.87732  -0.87492  -0.86262  -0.85890
 Alpha  occ. eigenvalues --   -0.85109  -0.84535  -0.84012  -0.83786  -0.83430
 Alpha  occ. eigenvalues --   -0.83051  -0.82656  -0.82132  -0.81173  -0.80334
 Alpha  occ. eigenvalues --   -0.79944  -0.79805  -0.79355  -0.78616  -0.77871
 Alpha  occ. eigenvalues --   -0.77443  -0.77018  -0.76275  -0.75638  -0.75192
 Alpha  occ. eigenvalues --   -0.74604  -0.74349  -0.73601  -0.73432  -0.73096
 Alpha  occ. eigenvalues --   -0.71983  -0.71474  -0.70875  -0.70307  -0.69750
 Alpha  occ. eigenvalues --   -0.69254  -0.68319  -0.67227  -0.66845  -0.66340
 Alpha  occ. eigenvalues --   -0.66291  -0.65703  -0.65494  -0.64940  -0.64529
 Alpha  occ. eigenvalues --   -0.63902  -0.63757  -0.63113  -0.62438  -0.61978
 Alpha  occ. eigenvalues --   -0.61323  -0.61022  -0.60635  -0.60021  -0.59792
 Alpha  occ. eigenvalues --   -0.59424  -0.58971  -0.58522  -0.57954  -0.57869
 Alpha  occ. eigenvalues --   -0.57254  -0.57066  -0.56900  -0.56683  -0.56427
 Alpha  occ. eigenvalues --   -0.56225  -0.55827  -0.55491  -0.55464  -0.55418
 Alpha  occ. eigenvalues --   -0.54793  -0.54515  -0.54278  -0.54053  -0.53948
 Alpha  occ. eigenvalues --   -0.53716  -0.53566  -0.53371  -0.53066  -0.52966
 Alpha  occ. eigenvalues --   -0.52841  -0.52606  -0.52318  -0.51917  -0.51692
 Alpha  occ. eigenvalues --   -0.51538  -0.51389  -0.51029  -0.50883  -0.50823
 Alpha  occ. eigenvalues --   -0.50505  -0.50446  -0.50399  -0.50279  -0.50189
 Alpha  occ. eigenvalues --   -0.50009  -0.49918  -0.49673  -0.49431  -0.49064
 Alpha  occ. eigenvalues --   -0.48958  -0.48939  -0.48639  -0.48581  -0.47995
 Alpha  occ. eigenvalues --   -0.47761  -0.47538  -0.47496  -0.47409  -0.47335
 Alpha  occ. eigenvalues --   -0.47141  -0.46962  -0.46910  -0.46721  -0.46519
 Alpha  occ. eigenvalues --   -0.46413  -0.46236  -0.46146  -0.46076  -0.45873
 Alpha  occ. eigenvalues --   -0.45622  -0.45485  -0.45127  -0.45033  -0.44854
 Alpha  occ. eigenvalues --   -0.44663  -0.44542  -0.44384  -0.44180  -0.44144
 Alpha  occ. eigenvalues --   -0.44046  -0.43870  -0.43844  -0.43678  -0.43589
 Alpha  occ. eigenvalues --   -0.43342  -0.43103  -0.43042  -0.42674  -0.42371
 Alpha  occ. eigenvalues --   -0.42256  -0.41974  -0.41934  -0.41851  -0.41695
 Alpha  occ. eigenvalues --   -0.41431  -0.41239  -0.41155  -0.41116  -0.40886
 Alpha  occ. eigenvalues --   -0.40574  -0.40273  -0.39974  -0.39802  -0.39470
 Alpha  occ. eigenvalues --   -0.39292  -0.39221  -0.38848  -0.38435  -0.38326
 Alpha  occ. eigenvalues --   -0.38258  -0.38145  -0.38082  -0.37956  -0.37409
 Alpha  occ. eigenvalues --   -0.37128  -0.35948  -0.35324  -0.35254  -0.34884
 Alpha  occ. eigenvalues --   -0.34527  -0.34416  -0.34158  -0.33994  -0.32069
 Alpha  occ. eigenvalues --   -0.31979  -0.31777  -0.31458  -0.31010  -0.30833
 Alpha  occ. eigenvalues --   -0.30042  -0.29956  -0.29487  -0.28788  -0.27977
 Alpha  occ. eigenvalues --   -0.27750  -0.25913  -0.24986  -0.23060  -0.22085
 Alpha  occ. eigenvalues --   -0.21673  -0.14611
 Alpha virt. eigenvalues --   -0.09652  -0.07522  -0.04401  -0.02703  -0.02251
 Alpha virt. eigenvalues --   -0.00866   0.01368   0.02016   0.02617   0.02976
 Alpha virt. eigenvalues --    0.03144   0.03700   0.03900   0.05140   0.05641

 Mulliken charges:
               1
     1  Mg   0.756799
     2  C   -0.053799
     3  C   -0.132248
     4  C   -0.054697
     5  C   -0.027934
     6  N   -0.293511
     7  C   -0.027678
     8  C   -0.018267
     9  C   -0.086113
    10  C    0.066554
    11  C    0.109767
    12  C    0.056233
    13  C   -0.066738
    14  H    0.025232
    15  N   -0.421622
    16  C    0.167278
    17  C   -0.210874
    18  C   -0.005106
    19  C    0.114178
    20  C    0.116992
    21  C   -0.011146
    22  O   -0.283578
    23  C    0.070119
    24  N   -0.375726
    25  C   -0.034241
    26  C   -0.020823
    27  C   -0.150454
    28  C    0.382574
    29  C    0.095801
    30  C    0.111472
    31  C    0.914418
    32  N   -0.304358
    33  C    0.004967
    34  C   -0.174568
    35  C    0.010522
    36  C    0.112318
    37  C    0.120085
    38  C    0.035762
    39  O   -0.196714
    40  C   -0.000631
    41  C    0.210378
    42  O   -0.259324
    43  O   -0.306128
    44  C    0.160577
    45  H   -0.038213
    46  H   -0.034982
    47  H   -0.056685
    48  H   -0.005767
    49  H   -0.011433
    50  H    0.016408
    51  H    0.015586
    52  H    0.006851
    53  H    0.009457
    54  H    0.041927
    55  H    0.015387
    56  H    0.014958
    57  H   -0.003945
    58  H    0.008062
    59  H    0.016296
    60  H    0.036864
    61  H    0.017969
    62  H    0.022498
    63  H   -0.010804
    64  H    0.019299
    65  H    0.019843
    66  H    0.028825
    67  H    0.000607
    68  H    0.046213
    69  H    0.050867
    70  H    0.095459
    71  H    0.160438
    72  H   -0.450693
    73  H    0.057922
    74  H   -0.009979
    75  H    0.048686
    76  H    0.025441
    77  H    0.036701
    78  H    0.044001
    79  H    0.049277
    80  Mg   0.846294
    81  C   -0.010912
    82  C   -0.083722
    83  C   -0.042881
    84  C   -0.061449
    85  N   -0.251705
    86  C   -0.032084
    87  C   -0.061910
    88  C   -0.102144
    89  C    0.045100
    90  C    0.110372
    91  C    0.081099
    92  C    0.505784
    93  H   -0.119358
    94  N   -0.423714
    95  C    0.163684
    96  C   -0.172364
    97  C   -0.005327
    98  C    0.152978
    99  C    0.098343
   100  C    0.017759
   101  O   -0.251172
   102  C    0.059983
   103  N   -0.350112
   104  C    0.038441
   105  C   -0.020472
   106  C   -0.035395
   107  C    0.089519
   108  C    0.072989
   109  C    0.033974
   110  C   -0.008441
   111  N   -0.324482
   112  C    0.079584
   113  C   -0.158483
   114  C    0.003942
   115  C    0.097668
   116  C    0.130231
   117  C    0.050861
   118  O   -0.182999
   119  C   -0.002714
   120  C    0.202578
   121  O   -0.220721
   122  O   -0.329335
   123  C    0.149277
   124  H   -0.016554
   125  H   -0.012662
   126  H   -0.036948
   127  H   -0.017889
   128  H   -0.002567
   129  H    0.019792
   130  H    0.027453
   131  H    0.016551
   132  H    0.063990
   133  H    0.083095
   134  H   -1.067602
   135  H    0.130808
   136  H    0.012967
   137  H    0.027403
   138  H    0.045790
   139  H    0.038964
   140  H    0.038618
   141  H    0.037141
   142  H    0.016951
   143  H    0.013464
   144  H    0.027293
   145  H    0.011221
   146  H    0.006846
   147  H    0.007700
   148  H    0.005115
   149  H    0.011558
   150  H    0.021140
   151  H    0.031088
   152  H    0.051319
   153  H    0.010737
   154  H    0.046330
   155  H    0.024475
   156  H    0.042273
   157  H    0.008780
   158  H    0.087704
 Sum of Mulliken charges =  -0.00000

 Dipole moment (field-independent basis, Debye):
    X=              5.4298    Y=              4.9009    Z=             -9.8390  Tot=             12.2600
 Quadrupole moment (field-independent basis, Debye-Ang):
   XX=           -509.7045   YY=           -566.8468   ZZ=           -445.5147
   XY=            -18.9540   XZ=             18.5870   YZ=            -17.8802

 Normal termination of Gaussian 16 at Wed Sep  8 23:01:43 2021.
