 Gaussian 16, Revision A.03,
 Gaussian 16:  ES64L-G16RevA.03 25-Dec-2016

 -----------------------------------
 #p cam-b3lyp/Def2SVP td=(nstates=5)
 -----------------------------------

 --------------------------------
 TDDFT excited states in gaussian
 --------------------------------
 Symbolic Z-matrix:
 Charge =  0 Multiplicity = 1

                         Standard orientation:
 ---------------------------------------------------------------------
 Center     Atomic      Atomic             Coordinates (Angstroms)
 Number     Number       Type             X           Y           Z
 ---------------------------------------------------------------------
      1         12           0       -4.621070    0.141095   -0.078230
      2          6           0       -4.119543    3.681286   -0.244766
      3          6           0       -5.327028    0.234061   -3.415301
      4          6           0       -5.509111   -2.895715    0.135757
      5          6           0       -4.990280    0.504192    3.368146
      6          7           0       -4.680632    1.806535   -1.535422
      7          6           0       -4.409510    3.106943   -1.484401
      8          6           0       -4.388223    3.789025   -2.885003
      9          6           0       -5.318837    2.765456   -3.677633
     10          6           0       -5.068025    1.517670   -2.849353
     11          6           0       -6.802730    3.111383   -3.607665
     12          6           0       -2.948022    3.845770   -3.496830
     13          6           0       -2.786174    4.777206   -4.701648
     14          1           0       -1.536388    5.505187   -4.861101
     15          7           0       -4.841554   -1.231240   -1.482129
     16          6           0       -5.109223   -1.013823   -2.792232
     17          6           0       -5.178659   -2.350288   -3.421295
     18          6           0       -5.117927   -3.367942   -2.335576
     19          6           0       -5.180987   -2.527840   -1.166974
     20          6           0       -5.241533   -2.559946   -4.903132
     21          6           0       -5.029353   -4.861294   -2.349146
     22          8           0       -5.221968   -5.563656   -1.298355
     23          6           0       -4.795518   -5.493623   -3.660071
     24          7           0       -5.389686   -1.006745    1.486803
     25          6           0       -5.634284   -2.312284    1.329569
     26          6           0       -5.905739   -2.979289    2.645379
     27          6           0       -5.555271   -1.899954    3.768750
     28          6           0       -5.201354   -0.706681    2.847277
     29          6           0       -7.338912   -3.487250    2.855144
     30          6           0       -4.533799   -2.321557    4.854689
     31          6           0       -3.166439   -2.496539    4.232750
     32          7           0       -4.395995    1.750683    1.360386
     33          6           0       -4.622683    1.683842    2.742710
     34          6           0       -4.445728    3.047095    3.275903
     35          6           0       -4.142691    3.820394    2.156964
     36          6           0       -4.156886    2.997571    0.994616
     37          6           0       -4.625435    3.441756    4.631035
     38          6           0       -3.834418    5.155051    1.669610
     39          8           0       -3.596656    6.239608    2.203180
     40          6           0       -3.926922    5.141771    0.079926
     41          6           0       -2.696477    5.824163   -0.452666
     42          8           0       -1.567502    5.312836   -0.306626
     43          8           0       -3.061362    6.840185   -1.249597
     44          6           0       -1.887442    7.541415   -1.834697
     45          1           0       -5.793577    0.176049   -4.400647
     46          1           0       -5.713952   -3.959781    0.270817
     47          1           0       -5.006629    0.678101    4.445616
     48          1           0       -4.825907    4.787109   -2.911168
     49          1           0       -4.978297    2.615142   -4.701918
     50          1           0       -6.988097    3.932964   -2.915881
     51          1           0       -7.297245    2.203488   -3.261724
     52          1           0       -7.201684    3.309268   -4.602881
     53          1           0       -2.720260    2.890206   -3.969148
     54          1           0       -2.215146    4.111928   -2.734348
     55          1           0       -3.636722    5.452241   -4.800669
     56          1           0       -2.813981    4.171706   -5.607626
     57          1           0       -5.439678   -1.628162   -5.431396
     58          1           0       -6.118596   -3.175957   -5.100617
     59          1           0       -4.349722   -3.056723   -5.285516
     60          1           0       -5.601150   -5.218558   -4.341133
     61          1           0       -4.672068   -6.557909   -3.462825
     62          1           0       -3.879097   -5.087711   -4.089441
     63          1           0       -5.269893   -3.853485    2.779200
     64          1           0       -6.436563   -1.598478    4.335417
     65          1           0       -7.397306   -4.552201    3.081361
     66          1           0       -7.916341   -3.244623    1.963517
     67          1           0       -7.901415   -2.962639    3.627018
     68          1           0       -4.814625   -3.281246    5.287218
     69          1           0       -4.450354   -1.602250    5.669480
     70          1           0       -3.207175   -3.510541    3.836555
     71          1           0       -2.388779   -2.404883    4.991733
     72          1           0       -3.024026   -1.822157    3.388112
     73          1           0       -3.793541    4.104713    4.868543
     74          1           0       -4.646007    2.578265    5.295537
     75          1           0       -5.590773    3.943857    4.568805
     76          1           0       -4.838643    5.676038   -0.185489
     77          1           0       -1.978500    8.595060   -1.570549
     78          1           0       -1.869753    7.285076   -2.894122
     79          1           0       -0.916823    7.303003   -1.398351
     80         12           0        4.202738   -1.603589    0.363668
     81          6           0        5.778806    1.620546    0.367881
     82          6           0        4.597875   -1.626686   -3.024238
     83          6           0        2.422289   -4.228338    0.273511
     84          6           0        2.928812   -0.830948    3.514200
     85          7           0        5.089213   -0.135025   -1.032653
     86          6           0        5.712664    1.027137   -0.909982
     87          6           0        6.368395    1.546438   -2.217612
     88          6           0        5.450949    0.760137   -3.275392
     89          6           0        5.043855   -0.429829   -2.408829
     90          6           0        4.193783    1.520398   -3.663815
     91          6           0        7.874952    1.125059   -2.339025
     92          6           0        8.660149    1.852791   -3.432466
     93          1           0       10.064243    2.170194   -3.187032
     94          7           0        4.020135   -2.983615   -1.050808
     95          6           0        4.242451   -2.828207   -2.372824
     96          6           0        3.948869   -4.132697   -2.986236
     97          6           0        3.376895   -5.024431   -1.941075
     98          6           0        3.228343   -4.086279   -0.846597
     99          6           0        4.286541   -4.455496   -4.412844
    100          6           0        3.010735   -6.477727   -1.932613
    101          8           0        2.307557   -6.989471   -0.991077
    102          6           0        3.420160   -7.263793   -3.105617
    103          7           0        2.698276   -2.330004    1.601113
    104          6           0        2.124630   -3.522930    1.364897
    105          6           0        1.272327   -3.959144    2.532663
    106          6           0        1.586928   -2.919315    3.706271
    107          6           0        2.541260   -1.967583    2.952048
    108          6           0       -0.234394   -3.998682    2.278444
    109          6           0        2.054091   -3.511027    5.064317
    110          6           0        3.420333   -4.139656    4.910739
    111          7           0        4.460701   -0.007768    1.797144
    112          6           0        3.811388    0.132707    3.043242
    113          6           0        4.225119    1.434718    3.605422
    114          6           0        5.075119    1.975959    2.629181
    115          6           0        5.167543    1.083911    1.526817
    116          6           0        3.780854    1.986717    4.839939
    117          6           0        5.906819    3.103857    2.275871
    118          8           0        6.282087    4.121917    2.855912
    119          6           0        6.299442    2.980931    0.740581
    120          6           0        7.779109    3.222369    0.618781
    121          8           0        8.592656    2.429230    1.124417
    122          8           0        7.991748    4.224024   -0.254056
    123          6           0        9.445270    4.493391   -0.416992
    124          1           0        4.466667   -1.635827   -4.106636
    125          1           0        1.872095   -5.169639    0.342164
    126          1           0        2.652631   -0.561015    4.535741
    127          1           0        6.284325    2.615107   -2.374612
    128          1           0        6.031952    0.427289   -4.131552
    129          1           0        4.065183    2.415006   -3.072810
    130          1           0        3.372597    0.835601   -3.497215
    131          1           0        4.197275    1.731359   -4.737031
    132          1           0        7.929686    0.097413   -2.720703
    133          1           0        8.378438    1.235421   -1.398301
    134          1           0        8.126188    2.735226   -3.805472
    135          1           0        8.733238    1.196029   -4.302725
    136          1           0        4.545885   -3.552418   -4.979054
    137          1           0        3.366848   -4.817421   -4.885108
    138          1           0        5.055369   -5.226235   -4.499690
    139          1           0        2.983461   -6.829411   -4.001764
    140          1           0        3.148518   -8.295769   -2.875148
    141          1           0        4.507556   -7.186667   -3.216258
    142          1           0        1.546898   -4.953898    2.861560
    143          1           0        0.699750   -2.327052    3.974573
    144          1           0       -0.683988   -4.990669    2.473110
    145          1           0       -0.416325   -3.692604    1.256800
    146          1           0       -0.817347   -3.273815    2.844069
    147          1           0        1.378965   -4.309500    5.381817
    148          1           0        2.087542   -2.780077    5.865314
    149          1           0        3.191561   -5.133539    4.514562
    150          1           0        3.922563   -4.204664    5.873843
    151          1           0        4.013605   -3.612046    4.154881
    152          1           0        4.653185    2.401252    5.327482
    153          1           0        3.297229    1.235115    5.460396
    154          1           0        3.072659    2.735490    4.475160
    155          1           0        5.717122    3.723036    0.193086
    156          1           0        9.600600    5.553638   -0.194682
    157          1           0        9.700201    4.150026   -1.437221
    158          1           0       10.123449    4.027799    0.288510
 ---------------------------------------------------------------------

 SCF Done:  E(RCAM-B3LYP) =  -4069.81148163     A.U. after   19 cycles

 Excitation energies and oscillator strengths:

 Excited State   1:      Singlet-A      1.6473 eV  752.63 nm  f=0.0020  <S**2>=0.000
     309 -> 315       -0.11238
     310 -> 316        0.12313
     311 -> 313       -0.46191
     312 -> 314        0.50944
 This state for optimization and/or second-order correction.
 Total Energy, E(TD-HF/TD-DFT) =  -4069.75094288
 Copying the excited state density for this state as the 1-particle RhoCI density.

 Excited State   2:      Singlet-A      1.7049 eV  727.23 nm  f=0.6927  <S**2>=0.000
     309 -> 315        0.13484
     310 -> 316        0.12137
     311 -> 313        0.50680
     312 -> 314        0.45953

 Excited State   3:      Singlet-A      2.1808 eV  568.53 nm  f=0.0282  <S**2>=0.000
     309 -> 313       -0.29857
     310 -> 314        0.57185
     311 -> 315        0.12304
     312 -> 316       -0.23787

 Excited State   4:      Singlet-A      2.1966 eV  564.43 nm  f=0.1500  <S**2>=0.000
     309 -> 313        0.56694
     310 -> 314        0.29380
     311 -> 315       -0.25002
     312 -> 316       -0.13196

 Excited State   5:      Singlet-A      2.3541 eV  526.68 nm  f=0.0000  <S**2>=0.000
     312 -> 313        0.70688

 The electronic state is 1-A.
 Alpha  occ. eigenvalues --  -46.87870 -46.87428 -19.26314 -19.26150 -19.19050
 Alpha  occ. eigenvalues --  -19.18954 -19.18813 -19.18524 -19.18205 -19.17786
 Alpha  occ. eigenvalues --  -14.42525 -14.42270 -14.41538 -14.41127 -14.39467
 Alpha  occ. eigenvalues --  -14.39127 -14.38657 -14.38354 -10.39113 -10.38877
 Alpha  occ. eigenvalues --  -10.35445 -10.35207 -10.34427 -10.33961 -10.31704
 Alpha  occ. eigenvalues --  -10.31586 -10.31485 -10.31074 -10.30974 -10.30814
 Alpha  occ. eigenvalues --  -10.30646 -10.30575 -10.30298 -10.30154 -10.30120
 Alpha  occ. eigenvalues --  -10.30009 -10.29930 -10.29693 -10.29640 -10.29318
 Alpha  occ. eigenvalues --  -10.29216 -10.29169 -10.28832 -10.28660 -10.28527
 Alpha  occ. eigenvalues --  -10.28523 -10.28423 -10.28200 -10.28172 -10.27945
 Alpha  occ. eigenvalues --  -10.27849 -10.27804 -10.27761 -10.27653 -10.27640
 Alpha  occ. eigenvalues --  -10.27570 -10.27549 -10.27470 -10.27455 -10.27343
 Alpha  occ. eigenvalues --  -10.27307 -10.27250 -10.27247 -10.27203 -10.27122
 Alpha  occ. eigenvalues --  -10.26810 -10.26789 -10.26531 -10.26433 -10.26381
 Alpha  occ. eigenvalues --  -10.26308 -10.26292 -10.26115 -10.25991 -10.25906
 Alpha  occ. eigenvalues --  -10.25820 -10.25706 -10.25524 -10.25523 -10.25080
 Alpha  occ. eigenvalues --  -10.25039 -10.24887 -10.24860 -10.24619 -10.24583
 Alpha  occ. eigenvalues --  -10.24448  -3.16613  -3.16178  -1.91495  -1.91081
 Alpha  occ. eigenvalues --   -1.91060  -1.90923  -1.90649  -1.90485  -1.16663
 Alpha  occ. eigenvalues --   -1.16442  -1.08661  -1.08390  -1.07208  -1.06779
 Alpha  occ. eigenvalues --   -1.06737  -1.06673  -1.04654  -1.04268  -1.03842
 Alpha  occ. eigenvalues --   -1.03433  -1.03304  -1.02803  -1.02485  -1.01873
 Alpha  occ. eigenvalues --   -0.92035  -0.91745  -0.89658  -0.89279  -0.89273
 Alpha  occ. eigenvalues --   -0.88954  -0.88414  -0.87993  -0.87933  -0.87755
 Alpha  occ. eigenvalues --   -0.87526  -0.87461  -0.87320  -0.86935  -0.85064
 Alpha  occ. eigenvalues --   -0.84800  -0.84098  -0.83651  -0.83023  -0.82758
 Alpha  occ. eigenvalues --   -0.82716  -0.82457  -0.81646  -0.81380  -0.80659
 Alpha  occ. eigenvalues --   -0.80228  -0.78856  -0.78424  -0.77330  -0.77031
 Alpha  occ. eigenvalues --   -0.76938  -0.76690  -0.75996  -0.75629  -0.75013
 Alpha  occ. eigenvalues --   -0.74555  -0.72856  -0.72462  -0.71749  -0.71350
 Alpha  occ. eigenvalues --   -0.70129  -0.69547  -0.68950  -0.68627  -0.67704
 Alpha  occ. eigenvalues --   -0.67377  -0.67291  -0.67020  -0.65373  -0.65067
 Alpha  occ. eigenvalues --   -0.64937  -0.64717  -0.64549  -0.64448  -0.64389
 Alpha  occ. eigenvalues --   -0.63981  -0.62359  -0.62066  -0.60506  -0.60134
 Alpha  occ. eigenvalues --   -0.59880  -0.59585  -0.59067  -0.58762  -0.58578
 Alpha  occ. eigenvalues --   -0.58199  -0.57637  -0.57391  -0.57311  -0.57014
 Alpha  occ. eigenvalues --   -0.56373  -0.56032  -0.55984  -0.55688  -0.55575
 Alpha  occ. eigenvalues --   -0.55453  -0.55251  -0.55022  -0.54625  -0.54276
 Alpha  occ. eigenvalues --   -0.53977  -0.53718  -0.53377  -0.53276  -0.53022
 Alpha  occ. eigenvalues --   -0.52997  -0.52937  -0.52812  -0.52699  -0.52633
 Alpha  occ. eigenvalues --   -0.52504  -0.52222  -0.51978  -0.51681  -0.51586
 Alpha  occ. eigenvalues --   -0.51470  -0.51285  -0.50976  -0.50620  -0.50319
 Alpha  occ. eigenvalues --   -0.50179  -0.49971  -0.49787  -0.49659  -0.49566
 Alpha  occ. eigenvalues --   -0.49297  -0.49270  -0.49169  -0.48991  -0.48882
 Alpha  occ. eigenvalues --   -0.48661  -0.48551  -0.48471  -0.48338  -0.48152
 Alpha  occ. eigenvalues --   -0.48138  -0.47773  -0.47400  -0.47363  -0.46974
 Alpha  occ. eigenvalues --   -0.46864  -0.46636  -0.46500  -0.46455  -0.46361
 Alpha  occ. eigenvalues --   -0.46249  -0.46043  -0.45885  -0.45824  -0.45580
 Alpha  occ. eigenvalues --   -0.45315  -0.44962  -0.44645  -0.44591  -0.44310
 Alpha  occ. eigenvalues --   -0.44287  -0.44235  -0.44158  -0.44066  -0.43917
 Alpha  occ. eigenvalues --   -0.43873  -0.43732  -0.43564  -0.43474  -0.43340
 Alpha  occ. eigenvalues --   -0.43167  -0.43109  -0.42857  -0.42724  -0.42718
 Alpha  occ. eigenvalues --   -0.42663  -0.42351  -0.42139  -0.41778  -0.41763
 Alpha  occ. eigenvalues --   -0.41623  -0.41437  -0.41265  -0.41215  -0.40983
 Alpha  occ. eigenvalues --   -0.40850  -0.40764  -0.40685  -0.40541  -0.40512
 Alpha  occ. eigenvalues --   -0.40321  -0.40279  -0.40057  -0.39647  -0.39222
 Alpha  occ. eigenvalues --   -0.38591  -0.38117  -0.37842  -0.37472  -0.37433
 Alpha  occ. eigenvalues --   -0.37341  -0.37035  -0.36988  -0.36773  -0.36559
 Alpha  occ. eigenvalues --   -0.36270  -0.35993  -0.34360  -0.34019  -0.33807
 Alpha  occ. eigenvalues --   -0.33649  -0.33257  -0.32944  -0.31348  -0.31103
 Alpha  occ. eigenvalues --   -0.31080  -0.30742  -0.30065  -0.29689  -0.29499
 Alpha  occ. eigenvalues --   -0.29379  -0.29111  -0.28951  -0.24155  -0.23800
 Alpha  occ. eigenvalues --   -0.21204  -0.20885
 Alpha virt. eigenvalues --   -0.08837  -0.08560  -0.01823  -0.01460  -0.00095
 Alpha virt. eigenvalues --    0.00179   0.02143   0.02452   0.02820   0.03501
 Alpha virt. eigenvalues --    0.04630   0.04944   0.05062   0.05381   0.06070

 Mulliken charges:
               1
     1  Mg   0.838328
     2  C   -0.002688
     3  C   -0.094435
     4  C   -0.045801
     5  C   -0.064528
     6  N   -0.256645
     7  C   -0.052647
     8  C   -0.013952
     9  C   -0.086991
    10  C    0.046358
    11  C    0.104790
    12  C    0.053681
    13  C   -0.071475
    14  H    0.035326
    15  N   -0.433419
    16  C    0.168786
    17  C   -0.177224
    18  C   -0.003379
    19  C    0.149181
    20  C    0.110328
    21  C    0.013898
    22  O   -0.248570
    23  C    0.062180
    24  N   -0.340973
    25  C    0.041127
    26  C   -0.028954
    27  C   -0.025344
    28  C    0.073864
    29  C    0.076070
    30  C    0.067373
    31  C   -0.048374
    32  N   -0.310440
    33  C    0.079895
    34  C   -0.170078
    35  C    0.008602
    36  C    0.082985
    37  C    0.127316
    38  C    0.046353
    39  O   -0.187707
    40  C   -0.005517
    41  C    0.213068
    42  O   -0.256873
    43  O   -0.304876
    44  C    0.157431
    45  H   -0.017612
    46  H   -0.016372
    47  H   -0.041994
    48  H    0.001170
    49  H   -0.004404
    50  H    0.025696
    51  H    0.016575
    52  H    0.016663
    53  H    0.010535
    54  H    0.044198
    55  H    0.018330
    56  H    0.017398
    57  H    0.005473
    58  H    0.027100
    59  H    0.039215
    60  H    0.036609
    61  H    0.037095
    62  H    0.031647
    63  H    0.016657
    64  H    0.010279
    65  H    0.023651
    66  H    0.012983
    67  H    0.004870
    68  H    0.005723
    69  H    0.002166
    70  H    0.017122
    71  H    0.019527
    72  H    0.039082
    73  H    0.047833
    74  H    0.008471
    75  H    0.046311
    76  H    0.035274
    77  H    0.043500
    78  H    0.045795
    79  H    0.054238
    80  Mg   0.838155
    81  C   -0.016233
    82  C   -0.088365
    83  C   -0.046780
    84  C   -0.063408
    85  N   -0.254480
    86  C   -0.048887
    87  C   -0.015158
    88  C   -0.090728
    89  C    0.046009
    90  C    0.114500
    91  C    0.062658
    92  C   -0.077457
    93  H    0.034339
    94  N   -0.423279
    95  C    0.162727
    96  C   -0.176009
    97  C   -0.008225
    98  C    0.151553
    99  C    0.100056
   100  C    0.014793
   101  O   -0.252750
   102  C    0.061503
   103  N   -0.349936
   104  C    0.038228
   105  C   -0.024501
   106  C   -0.034882
   107  C    0.087980
   108  C    0.080006
   109  C    0.034510
   110  C   -0.006777
   111  N   -0.324645
   112  C    0.079307
   113  C   -0.161177
   114  C    0.003576
   115  C    0.096568
   116  C    0.130679
   117  C    0.043824
   118  O   -0.187217
   119  C    0.000359
   120  C    0.210983
   121  O   -0.251513
   122  O   -0.305396
   123  C    0.152216
   124  H   -0.021229
   125  H   -0.015027
   126  H   -0.040677
   127  H   -0.000493
   128  H   -0.005354
   129  H    0.024660
   130  H    0.014358
   131  H    0.014225
   132  H    0.013640
   133  H    0.037665
   134  H    0.020544
   135  H    0.019030
   136  H    0.007945
   137  H    0.024065
   138  H    0.039181
   139  H    0.036883
   140  H    0.036071
   141  H    0.033657
   142  H    0.013502
   143  H    0.013791
   144  H    0.026268
   145  H    0.010151
   146  H   -0.000200
   147  H    0.005232
   148  H    0.002674
   149  H    0.010887
   150  H    0.017313
   151  H    0.030245
   152  H    0.045307
   153  H    0.007277
   154  H    0.051782
   155  H    0.037038
   156  H    0.043742
   157  H    0.048986
   158  H    0.053278
 Sum of Mulliken charges =  -0.00000

 Dipole moment (field-independent basis, Debye):
    X=             -3.3862    Y=             -1.9144    Z=             -7.9029  Tot=              8.8084
 Quadrupole moment (field-independent basis, Debye-Ang):
   XX=           -506.4649   YY=           -555.7748   ZZ=           -447.1161
   XY=            -10.8707   XZ=            -27.1910   YZ=            -30.0715

 Normal termination of Gaussian 16 at Thu Sep  9 22:12:27 2021.
