 Gaussian 16, Revision A.03,
 Gaussian 16:  ES64L-G16RevA.03 25-Dec-2016

 -----------------------------------
 #p cam-b3lyp/Def2SVP td=(nstates=5)
 -----------------------------------

 --------------------------------
 TDDFT excited states in gaussian
 --------------------------------
 Symbolic Z-matrix:
 Charge =  0 Multiplicity = 1

                         Standard orientation:
 ---------------------------------------------------------------------
 Center     Atomic      Atomic             Coordinates (Angstroms)
 Number     Number       Type             X           Y           Z
 ---------------------------------------------------------------------
      1         12           0        4.801812    1.107966    0.637923
      2          6           0        5.492061   -2.130511   -0.721503
      3          6           0        5.814841    2.413208   -2.347572
      4          6           0        4.633870    3.984497    1.962303
      5          6           0        4.938088   -0.352548    3.799250
      6          7           0        5.536246    0.159122   -1.222439
      7          6           0        5.697293   -1.094248   -1.635114
      8          6           0        6.031779   -1.206900   -3.152612
      9          6           0        6.651918    0.243885   -3.382067
     10          6           0        5.932721    0.993425   -2.274425
     11          6           0        8.154039    0.311848   -3.126109
     12          6           0        4.752887   -1.428352   -4.028470
     13          6           0        5.017134   -1.872056   -5.470224
     14          1           0        4.091684   -2.803773   -6.096958
     15          7           0        4.698895    2.897140   -0.193408
     16          6           0        5.146263    3.245389   -1.423803
     17          6           0        4.838850    4.683662   -1.577253
     18          6           0        4.348534    5.186793   -0.264034
     19          6           0        4.568443    4.034270    0.571855
     20          6           0        4.971530    5.419511   -2.875203
     21          6           0        3.782855    6.501619    0.171134
     22          8           0        3.636449    6.804285    1.404639
     23          6           0        3.483062    7.473324   -0.896084
     24          7           0        5.004261    1.780172    2.603830
     25          6           0        4.826720    3.069037    2.914137
     26          6           0        4.740687    3.266419    4.398582
     27          6           0        4.653136    1.804377    5.034601
     28          6           0        4.794345    0.973106    3.735632
     29          6           0        5.905207    4.033242    5.040367
     30          6           0        3.451487    1.514684    5.968698
     31          6           0        2.167084    1.523587    5.170370
     32          7           0        4.973926   -0.906835    1.426594
     33          6           0        5.033762   -1.281545    2.776663
     34          6           0        5.257791   -2.738492    2.811086
     35          6           0        5.329733   -3.109997    1.469947
     36          6           0        5.187543   -1.954220    0.650036
     37          6           0        5.425451   -3.528420    3.982554
     38          6           0        5.518270   -4.210911    0.539196
     39          8           0        5.594775   -5.435520    0.648616
     40          6           0        5.752726   -3.603767   -0.914157
     41          6           0        4.866321   -4.355675   -1.869265
     42          8           0        3.624109   -4.257208   -1.801599
     43          8           0        5.614849   -4.878525   -2.852563
     44          6           0        4.792762   -5.613110   -3.850917
     45          1           0        6.329231    2.944884   -3.150482
     46          1           0        4.469215    4.942045    2.460730
     47          1           0        4.906987   -0.889953    4.748819
     48          1           0        6.769478   -1.970475   -3.399952
     49          1           0        6.380428    0.653295   -4.354898
     50          1           0        8.528572   -0.619957   -2.702570
     51          1           0        8.292503    1.132739   -2.422220
     52          1           0        8.688612    0.600165   -4.031582
     53          1           0        4.274119   -0.467075   -4.214985
     54          1           0        4.076477   -2.138178   -3.551036
     55          1           0        6.045794   -2.209064   -5.601345
     56          1           0        4.933670   -0.998678   -6.117096
     57          1           0        5.510192    4.830358   -3.616342
     58          1           0        5.616456    6.278252   -2.689883
     59          1           0        4.007689    5.758787   -3.254985
     60          1           0        4.395455    7.690203   -1.452008
     61          1           0        3.003385    8.319811   -0.405961
     62          1           0        2.792862    7.016446   -1.605899
     63          1           0        3.846308    3.827021    4.667352
     64          1           0        5.526245    1.570605    5.644276
     65          1           0        5.593719    4.919203    5.594221
     66          1           0        6.612383    4.292794    4.253076
     67          1           0        6.530924    3.440168    5.706819
     68          1           0        3.363774    2.292881    6.726102
     69          1           0        3.528135    0.557278    6.484208
     70          1           0        1.914862    2.582511    5.126833
     71          1           0        1.392343    0.958759    5.689943
     72          1           0        2.332013    1.185570    4.147126
     73          1           0        4.834425   -4.431213    3.828858
     74          1           0        5.101781   -2.989877    4.872954
     75          1           0        6.502650   -3.693046    3.962633
     76          1           0        6.809259   -3.738770   -1.143576
     77          1           0        5.194478   -6.624370   -3.915813
     78          1           0        4.794186   -5.008909   -4.758301
     79          1           0        3.760287   -5.819654   -3.566883
     80         12           0       -5.668396   -0.058842   -0.333529
     81          6           0       -2.958749   -2.350324    0.201247
     82          6           0       -3.323376    2.319713   -1.024878
     83          6           0       -8.002764    2.089812   -0.371128
     84          6           0       -7.691222   -2.245267    1.475718
     85          7           0       -3.458010   -0.128066   -0.374391
     86          6           0       -2.539851   -1.069168   -0.214198
     87          6           0       -1.099180   -0.633468   -0.593913
     88          6           0       -1.268074    0.951575   -0.399038
     89          6           0       -2.770277    1.069773   -0.648260
     90          6           0       -0.980991    1.417597    1.018612
     91          6           0       -0.736962   -0.994446   -2.077324
     92          6           0        0.749405   -0.879387   -2.422614
     93          1           0        1.320953   -1.836463   -3.365911
     94          7           0       -5.722239    1.765485   -1.112947
     95          6           0       -4.673414    2.582309   -1.345454
     96          6           0       -5.242060    3.817223   -1.907405
     97          6           0       -6.725664    3.726093   -1.834355
     98          6           0       -6.877376    2.505834   -1.067525
     99          6           0       -4.397276    4.898760   -2.515708
    100          6           0       -7.825687    4.600234   -2.355932
    101          8           0       -9.039886    4.456125   -1.971495
    102          6           0       -7.425310    5.689635   -3.258371
    103          7           0       -7.515675    0.032931    0.615931
    104          6           0       -8.361409    1.052562    0.385711
    105          6           0       -9.729096    0.766807    0.958557
    106          6           0       -9.693077   -0.766283    1.412336
    107          6           0       -8.217667   -1.090728    1.090945
    108          6           0      -10.149887    1.637833    2.142042
    109          6           0      -10.796494   -1.696401    0.837849
    110          6           0      -10.602130   -1.869045   -0.651381
    111          7           0       -5.456627   -2.037364    0.508278
    112          6           0       -6.419694   -2.756556    1.249456
    113          6           0       -5.774499   -4.004508    1.706354
    114          6           0       -4.463537   -3.913386    1.214872
    115          6           0       -4.297163   -2.685433    0.519200
    116          6           0       -6.382353   -5.008813    2.511357
    117          6           0       -3.179513   -4.571932    1.135450
    118          8           0       -2.747513   -5.675772    1.465082
    119          6           0       -2.111490   -3.532011    0.583853
    120          6           0       -1.322013   -4.209224   -0.502712
    121          8           0       -1.872467   -4.552291   -1.563797
    122          8           0       -0.012248   -4.144167   -0.201599
    123          6           0        0.812789   -4.792908   -1.255298
    124          1           0       -2.671155    3.193419   -1.036167
    125          1           0       -8.873031    2.745919   -0.446278
    126          1           0       -8.283371   -3.023856    1.961358
    127          1           0       -0.323290   -1.008249    0.062830
    128          1           0       -0.711999    1.503621   -1.152289
    129          1           0       -0.825083    0.587693    1.691731
    130          1           0       -1.846973    1.992042    1.320481
    131          1           0       -0.139500    2.116315    1.022594
    132          1           0       -1.144813   -0.223197   -2.743329
    133          1           0       -1.091336   -1.975330   -2.328169
    134          1           0        1.376166   -0.802617   -1.525823
    135          1           0        0.912087    0.066443   -2.945059
    136          1           0       -3.335428    4.762254   -2.276421
    137          1           0       -4.669702    5.835533   -2.017597
    138          1           0       -4.562561    5.008485   -3.589628
    139          1           0       -6.716026    6.337951   -2.749381
    140          1           0       -8.357384    6.147139   -3.595696
    141          1           0       -6.897457    5.257477   -4.115823
    142          1           0      -10.497634    0.892515    0.205797
    143          1           0       -9.808043   -0.871751    2.501139
    144          1           0      -11.098450    2.180437    1.969149
    145          1           0       -9.348396    2.332079    2.356899
    146          1           0      -10.258435    1.110294    3.088151
    147          1           0      -11.781641   -1.242850    0.971759
    148          1           0      -10.825354   -2.673771    1.307850
    149          1           0      -11.083781   -0.979318   -1.067889
    150          1           0      -11.087228   -2.779294   -0.998031
    151          1           0       -9.539685   -1.823815   -0.917471
    152          1           0       -6.102850   -5.962324    2.083348
    153          1           0       -7.463236   -4.889633    2.546881
    154          1           0       -5.913950   -4.795588    3.475930
    155          1           0       -1.481270   -3.233684    1.422552
    156          1           0        1.424433   -5.552929   -0.759385
    157          1           0        1.347752   -3.969613   -1.764955
    158          1           0        0.297347   -5.388735   -1.999448
 ---------------------------------------------------------------------

 SCF Done:  E(RCAM-B3LYP) =  -4069.81402875     A.U. after   19 cycles

 Excitation energies and oscillator strengths:

 Excited State   1:      Singlet-A      1.6514 eV  750.79 nm  f=0.0029  <S**2>=0.000
     309 -> 315        0.12245
     310 -> 316       -0.11435
     311 -> 313        0.49919
     312 -> 314       -0.47270
 This state for optimization and/or second-order correction.
 Total Energy, E(TD-HF/TD-DFT) =  -4069.75334165
 Copying the excited state density for this state as the 1-particle RhoCI density.

 Excited State   2:      Singlet-A      1.6977 eV  730.32 nm  f=0.7032  <S**2>=0.000
     309 -> 315        0.12404
     310 -> 316        0.12948
     311 -> 313        0.47058
     312 -> 314        0.49703

 Excited State   3:      Singlet-A      2.1813 eV  568.40 nm  f=0.1027  <S**2>=0.000
     310 -> 314        0.63706
     312 -> 316       -0.26790

 Excited State   4:      Singlet-A      2.1953 eV  564.76 nm  f=0.0990  <S**2>=0.000
     309 -> 313        0.63408
     311 -> 315       -0.27636

 Excited State   5:      Singlet-A      2.3011 eV  538.81 nm  f=0.0000  <S**2>=0.000
     312 -> 313        0.70621

 The electronic state is 1-A.
 Alpha  occ. eigenvalues --  -46.88274 -46.87305 -19.27117 -19.24631 -19.20050
 Alpha  occ. eigenvalues --  -19.19256 -19.18646 -19.18431 -19.17944 -19.17521
 Alpha  occ. eigenvalues --  -14.42897 -14.42139 -14.41895 -14.41003 -14.39872
 Alpha  occ. eigenvalues --  -14.39046 -14.39001 -14.38229 -10.40034 -10.37864
 Alpha  occ. eigenvalues --  -10.35888 -10.35116 -10.34883 -10.33662 -10.32338
 Alpha  occ. eigenvalues --  -10.31843 -10.31393 -10.31011 -10.30951 -10.30913
 Alpha  occ. eigenvalues --  -10.30629 -10.30618 -10.30339 -10.30061 -10.30036
 Alpha  occ. eigenvalues --  -10.29974 -10.29840 -10.29692 -10.29542 -10.29196
 Alpha  occ. eigenvalues --  -10.29118 -10.29045 -10.28972 -10.28944 -10.28844
 Alpha  occ. eigenvalues --  -10.28530 -10.28227 -10.28222 -10.28153 -10.28028
 Alpha  occ. eigenvalues --  -10.28004 -10.27989 -10.27899 -10.27890 -10.27854
 Alpha  occ. eigenvalues --  -10.27808 -10.27757 -10.27754 -10.27636 -10.27327
 Alpha  occ. eigenvalues --  -10.27255 -10.27229 -10.27173 -10.27118 -10.27103
 Alpha  occ. eigenvalues --  -10.27051 -10.26855 -10.26598 -10.26498 -10.26436
 Alpha  occ. eigenvalues --  -10.26299 -10.26206 -10.26117 -10.26111 -10.25907
 Alpha  occ. eigenvalues --  -10.25748 -10.25714 -10.25599 -10.25534 -10.25269
 Alpha  occ. eigenvalues --  -10.25231 -10.25159 -10.25032 -10.24506 -10.24482
 Alpha  occ. eigenvalues --  -10.24332  -3.17015  -3.16055  -1.91898  -1.91483
 Alpha  occ. eigenvalues --   -1.91325  -1.90938  -1.90526  -1.90363  -1.17494
 Alpha  occ. eigenvalues --   -1.15058  -1.09132  -1.08070  -1.07668  -1.07657
 Alpha  occ. eigenvalues --   -1.06689  -1.05666  -1.05033  -1.04202  -1.04117
 Alpha  occ. eigenvalues --   -1.03683  -1.03303  -1.02856  -1.02688  -1.01750
 Alpha  occ. eigenvalues --   -0.92472  -0.91501  -0.89931  -0.89615  -0.89150
 Alpha  occ. eigenvalues --   -0.88726  -0.88679  -0.88252  -0.88103  -0.87905
 Alpha  occ. eigenvalues --   -0.87712  -0.87437  -0.87299  -0.86819  -0.85421
 Alpha  occ. eigenvalues --   -0.84557  -0.84343  -0.83525  -0.83396  -0.83115
 Alpha  occ. eigenvalues --   -0.82651  -0.82184  -0.82124  -0.81075  -0.80751
 Alpha  occ. eigenvalues --   -0.79543  -0.79222  -0.78302  -0.77629  -0.77394
 Alpha  occ. eigenvalues --   -0.76756  -0.76389  -0.76281  -0.75302  -0.75112
 Alpha  occ. eigenvalues --   -0.74198  -0.73190  -0.72335  -0.72105  -0.71120
 Alpha  occ. eigenvalues --   -0.70276  -0.69460  -0.69309  -0.68376  -0.68096
 Alpha  occ. eigenvalues --   -0.67661  -0.67160  -0.66743  -0.65748  -0.65357
 Alpha  occ. eigenvalues --   -0.65080  -0.64781  -0.64680  -0.64375  -0.64019
 Alpha  occ. eigenvalues --   -0.63712  -0.62900  -0.61112  -0.60873  -0.60237
 Alpha  occ. eigenvalues --   -0.60020  -0.59442  -0.59388  -0.58989  -0.58561
 Alpha  occ. eigenvalues --   -0.58242  -0.57943  -0.57759  -0.56989  -0.56817
 Alpha  occ. eigenvalues --   -0.56598  -0.56556  -0.56017  -0.55877  -0.55838
 Alpha  occ. eigenvalues --   -0.55251  -0.55148  -0.54857  -0.54466  -0.54332
 Alpha  occ. eigenvalues --   -0.53747  -0.53732  -0.53613  -0.53526  -0.53457
 Alpha  occ. eigenvalues --   -0.53207  -0.52819  -0.52730  -0.52667  -0.52341
 Alpha  occ. eigenvalues --   -0.52275  -0.52214  -0.52063  -0.51816  -0.51632
 Alpha  occ. eigenvalues --   -0.51497  -0.51126  -0.51003  -0.50591  -0.50411
 Alpha  occ. eigenvalues --   -0.50336  -0.50209  -0.49994  -0.49729  -0.49650
 Alpha  occ. eigenvalues --   -0.49535  -0.49520  -0.49148  -0.49099  -0.48925
 Alpha  occ. eigenvalues --   -0.48866  -0.48719  -0.48627  -0.48150  -0.48080
 Alpha  occ. eigenvalues --   -0.47894  -0.47831  -0.47741  -0.47233  -0.47101
 Alpha  occ. eigenvalues --   -0.47044  -0.46852  -0.46654  -0.46522  -0.46305
 Alpha  occ. eigenvalues --   -0.46252  -0.46086  -0.45891  -0.45604  -0.45477
 Alpha  occ. eigenvalues --   -0.45094  -0.44972  -0.44919  -0.44817  -0.44592
 Alpha  occ. eigenvalues --   -0.44502  -0.44471  -0.44101  -0.44064  -0.43915
 Alpha  occ. eigenvalues --   -0.43819  -0.43716  -0.43666  -0.43546  -0.43449
 Alpha  occ. eigenvalues --   -0.43264  -0.43054  -0.42986  -0.42439  -0.42428
 Alpha  occ. eigenvalues --   -0.42297  -0.42232  -0.42143  -0.41960  -0.41570
 Alpha  occ. eigenvalues --   -0.41563  -0.41298  -0.41264  -0.41166  -0.41055
 Alpha  occ. eigenvalues --   -0.40968  -0.40903  -0.40703  -0.40552  -0.40391
 Alpha  occ. eigenvalues --   -0.40269  -0.40043  -0.39803  -0.39718  -0.39145
 Alpha  occ. eigenvalues --   -0.38859  -0.38210  -0.38019  -0.37768  -0.37726
 Alpha  occ. eigenvalues --   -0.37456  -0.37132  -0.36917  -0.36734  -0.36649
 Alpha  occ. eigenvalues --   -0.36045  -0.35060  -0.34835  -0.34682  -0.33872
 Alpha  occ. eigenvalues --   -0.33657  -0.32981  -0.32593  -0.31787  -0.31497
 Alpha  occ. eigenvalues --   -0.30986  -0.30560  -0.30513  -0.29900  -0.29756
 Alpha  occ. eigenvalues --   -0.29394  -0.28988  -0.28828  -0.24545  -0.23649
 Alpha  occ. eigenvalues --   -0.21560  -0.20766
 Alpha virt. eigenvalues --   -0.09218  -0.08428  -0.02197  -0.01342  -0.00511
 Alpha virt. eigenvalues --    0.00290   0.01729   0.01929   0.02636   0.03566
 Alpha virt. eigenvalues --    0.03961   0.04259   0.05096   0.05592   0.06264

 Mulliken charges:
               1
     1  Mg   0.829201
     2  C   -0.004013
     3  C   -0.093530
     4  C   -0.045731
     5  C   -0.062741
     6  N   -0.257583
     7  C   -0.053293
     8  C   -0.012930
     9  C   -0.087175
    10  C    0.046400
    11  C    0.104557
    12  C    0.046847
    13  C   -0.072856
    14  H    0.037031
    15  N   -0.433373
    16  C    0.167304
    17  C   -0.177802
    18  C   -0.004610
    19  C    0.147438
    20  C    0.110123
    21  C    0.010928
    22  O   -0.248925
    23  C    0.063077
    24  N   -0.340625
    25  C    0.041237
    26  C   -0.028243
    27  C   -0.024291
    28  C    0.074466
    29  C    0.075839
    30  C    0.034893
    31  C   -0.004977
    32  N   -0.311404
    33  C    0.080642
    34  C   -0.167308
    35  C    0.009905
    36  C    0.082602
    37  C    0.126663
    38  C    0.046224
    39  O   -0.186710
    40  C   -0.007378
    41  C    0.221409
    42  O   -0.254982
    43  O   -0.301491
    44  C    0.156652
    45  H   -0.016989
    46  H   -0.016279
    47  H   -0.039806
    48  H    0.001088
    49  H   -0.003465
    50  H    0.025853
    51  H    0.017029
    52  H    0.017674
    53  H    0.012991
    54  H    0.045262
    55  H    0.018717
    56  H    0.019031
    57  H    0.006551
    58  H    0.027847
    59  H    0.038547
    60  H    0.038511
    61  H    0.036291
    62  H    0.029390
    63  H    0.016644
    64  H    0.010571
    65  H    0.023958
    66  H    0.012820
    67  H    0.005675
    68  H    0.007495
    69  H    0.006200
    70  H    0.008650
    71  H    0.019915
    72  H    0.026878
    73  H    0.050423
    74  H    0.010374
    75  H    0.046672
    76  H    0.037506
    77  H    0.046932
    78  H    0.049323
    79  H    0.051207
    80  Mg   0.836585
    81  C   -0.015884
    82  C   -0.088137
    83  C   -0.046274
    84  C   -0.066203
    85  N   -0.254052
    86  C   -0.050209
    87  C   -0.015700
    88  C   -0.091181
    89  C    0.045230
    90  C    0.110076
    91  C    0.066195
    92  C   -0.087436
    93  H    0.045401
    94  N   -0.423316
    95  C    0.162212
    96  C   -0.175209
    97  C   -0.008698
    98  C    0.151881
    99  C    0.099829
   100  C    0.014974
   101  O   -0.254117
   102  C    0.061479
   103  N   -0.350346
   104  C    0.037192
   105  C   -0.019504
   106  C   -0.034792
   107  C    0.089416
   108  C    0.073984
   109  C    0.034940
   110  C   -0.007528
   111  N   -0.324240
   112  C    0.079023
   113  C   -0.164009
   114  C    0.003001
   115  C    0.095533
   116  C    0.131613
   117  C    0.041059
   118  O   -0.185839
   119  C    0.003763
   120  C    0.209799
   121  O   -0.257167
   122  O   -0.306846
   123  C    0.155800
   124  H   -0.020420
   125  H   -0.016623
   126  H   -0.041277
   127  H    0.002458
   128  H   -0.005575
   129  H    0.023383
   130  H    0.014395
   131  H    0.018679
   132  H    0.009751
   133  H    0.039232
   134  H    0.030271
   135  H    0.013870
   136  H    0.007409
   137  H    0.025364
   138  H    0.038026
   139  H    0.037768
   140  H    0.035426
   141  H    0.033147
   142  H    0.013742
   143  H    0.011836
   144  H    0.024356
   145  H    0.011519
   146  H    0.004981
   147  H    0.005560
   148  H    0.003337
   149  H    0.010560
   150  H    0.017368
   151  H    0.030609
   152  H    0.046190
   153  H    0.007678
   154  H    0.046389
   155  H    0.034422
   156  H    0.041947
   157  H    0.066792
   158  H    0.034180
 Sum of Mulliken charges =  -0.00000

 Dipole moment (field-independent basis, Debye):
    X=              5.1351    Y=              6.5267    Z=             -2.6195  Tot=              8.7080
 Quadrupole moment (field-independent basis, Debye-Ang):
   XX=           -491.9271   YY=           -556.9047   ZZ=           -467.6118
   XY=             21.1724   XZ=            -34.3704   YZ=            -10.6712

 Normal termination of Gaussian 16 at Fri Sep 10 19:34:41 2021.
