 Gaussian 16, Revision A.03,
 Gaussian 16:  ES64L-G16RevA.03 25-Dec-2016

 -----------------------------------
 #p cam-b3lyp/Def2SVP td=(nstates=5)
 -----------------------------------

 --------------------------------
 TDDFT excited states in gaussian
 --------------------------------
 Symbolic Z-matrix:
 Charge =  0 Multiplicity = 1

                         Standard orientation:
 ---------------------------------------------------------------------
 Center     Atomic      Atomic             Coordinates (Angstroms)
 Number     Number       Type             X           Y           Z
 ---------------------------------------------------------------------
      1         12           0        6.531261   -0.703675    0.231625
      2          6           0        6.795522    2.533119   -1.273549
      3          6           0        7.263187    0.786754    3.212559
      4          6           0        6.751432   -3.600885    1.502182
      5          6           0        6.946158   -2.056060   -2.953430
      6          7           0        6.953548    1.400897    0.773010
      7          6           0        6.964961    2.554556    0.112624
      8          6           0        7.098663    3.797444    1.042531
      9          6           0        7.795498    3.100397    2.295745
     10          6           0        7.279415    1.685116    2.104536
     11          6           0        9.318514    3.083034    2.214355
     12          6           0        5.707640    4.405805    1.425523
     13          6           0        5.755741    5.800750    2.055736
     14          1           0        4.690543    6.744024    1.750882
     15          7           0        6.464136   -1.283420    2.119014
     16          6           0        6.780709   -0.539912    3.206334
     17          6           0        6.568436   -1.418467    4.376703
     18          6           0        6.285311   -2.790226    3.870530
     19          6           0        6.517825   -2.616432    2.459463
     20          6           0        6.595197   -0.925775    5.791019
     21          6           0        5.881146   -4.059277    4.551919
     22          8           0        5.912876   -5.190560    3.957136
     23          6           0        5.526928   -3.954645    5.979022
     24          7           0        7.027568   -2.568947   -0.563404
     25          6           0        6.989860   -3.672783    0.190989
     26          6           0        7.104368   -4.911293   -0.647415
     27          6           0        6.984032   -4.430296   -2.165280
     28          6           0        6.898272   -2.903168   -1.922807
     29          6           0        8.395223   -5.722602   -0.469979
     30          6           0        5.888993   -5.102271   -3.031166
     31          6           0        4.519910   -4.703713   -2.527319
     32          7           0        6.644142    0.066187   -1.794607
     33          6           0        6.842148   -0.675179   -2.968423
     34          6           0        6.955708    0.291551   -4.075945
     35          6           0        6.831636    1.536933   -3.463186
     36          6           0        6.678241    1.360395   -2.058339
     37          6           0        7.206178   -0.028852   -5.439412
     38          6           0        6.817644    2.976646   -3.665392
     39          8           0        6.812494    3.713676   -4.652434
     40          6           0        6.915858    3.683539   -2.241845
     41          6           0        5.862360    4.756438   -2.193506
     42          8           0        4.649493    4.462641   -2.195612
     43          8           0        6.440385    5.934784   -1.914347
     44          6           0        5.446476    7.037469   -1.822777
     45          1           0        7.713307    1.103428    4.155454
     46          1           0        6.724293   -4.623487    1.884264
     47          1           0        6.991910   -2.407622   -3.985789
     48          1           0        7.738836    4.589412    0.653445
     49          1           0        7.437649    3.509867    3.240203
     50          1           0        9.669787    3.438158    1.245636
     51          1           0        9.606222    2.042427    2.365530
     52          1           0        9.757096    3.638676    3.043622
     53          1           0        5.284967    3.841236    2.256588
     54          1           0        5.043074    4.423483    0.561020
     55          1           0        6.731075    6.267791    1.916076
     56          1           0        5.660163    5.690956    3.136018
     57          1           0        6.990580    0.087214    5.854818
     58          1           0        7.322427   -1.535457    6.326868
     59          1           0        5.620696   -1.007735    6.272645
     60          1           0        6.377183   -3.555605    6.532541
     61          1           0        5.178557   -4.943330    6.275651
     62          1           0        4.720745   -3.228970    6.090437
     63          1           0        6.296211   -5.607934   -0.428327
     64          1           0        7.905469   -4.600664   -2.722599
     65          1           0        8.224193   -6.760120   -0.181866
     66          1           0        9.017015   -5.210405    0.263724
     67          1           0        9.051273   -5.733815   -1.339973
     68          1           0        5.956310   -6.186850   -2.953046
     69          1           0        5.955032   -4.841105   -4.087425
     70          1           0        4.346638   -5.405548   -1.712313
     71          1           0        3.774484   -4.826844   -3.313697
     72          1           0        4.529897   -3.701722   -2.097901
     73          1           0        6.532801    0.594267   -6.027846
     74          1           0        7.038116   -1.087735   -5.634667
     75          1           0        8.256634    0.249505   -5.522572
     76          1           0        7.922131    4.094092   -2.164488
     77          1           0        5.757841    7.809503   -2.526516
     78          1           0        5.381757    7.309600   -0.769135
     79          1           0        4.444453    6.815077   -2.191329
     80         12           0       -6.691120   -0.741176   -0.381712
     81          6           0       -6.548318    2.655827    0.766782
     82          6           0       -5.960299   -1.694060    2.810856
     83          6           0       -6.365174   -3.711518   -1.448589
     84          6           0       -6.274986    0.481832   -3.618494
     85          7           0       -6.324740    0.423208    1.462808
     86          6           0       -6.357716    1.705804    1.791745
     87          6           0       -6.256347    1.981714    3.315945
     88          6           0       -5.512622    0.628287    3.756373
     89          6           0       -5.985314   -0.288132    2.629688
     90          6           0       -3.997522    0.725019    3.689506
     91          6           0       -7.664982    2.110210    3.995102
     92          6           0       -7.645006    2.683341    5.413858
     93          1           0       -8.749931    3.540828    5.833762
     94          7           0       -6.716056   -2.467357    0.597191
     95          6           0       -6.413314   -2.670386    1.896586
     96          6           0       -6.564720   -4.115935    2.123839
     97          6           0       -6.821444   -4.772460    0.813202
     98          6           0       -6.619095   -3.654121   -0.085951
     99          6           0       -6.541435   -4.731242    3.492875
    100          6           0       -7.176190   -6.177614    0.431218
    101          8           0       -7.118845   -6.579811   -0.784422
    102          6           0       -7.502468   -7.094131    1.533498
    103          7           0       -6.156207   -1.524050   -2.231925
    104          6           0       -6.142791   -2.851898   -2.443024
    105          6           0       -5.998430   -3.169211   -3.912333
    106          6           0       -6.161341   -1.771265   -4.671792
    107          6           0       -6.288292   -0.833460   -3.451220
    108          6           0       -4.679444   -3.821875   -4.325493
    109          6           0       -7.247839   -1.694370   -5.779173
    110          6           0       -8.623039   -1.808260   -5.161730
    111          7           0       -6.637427    1.207560   -1.313160
    112          6           0       -6.426231    1.494295   -2.679638
    113          6           0       -6.359957    2.964265   -2.810859
    114          6           0       -6.515428    3.433750   -1.497885
    115          6           0       -6.647608    2.333431   -0.608328
    116          6           0       -6.129953    3.682141   -4.018283
    117          6           0       -6.587123    4.609689   -0.660787
    118          8           0       -6.622869    5.822061   -0.867191
    119          6           0       -6.484909    4.155200    0.858879
    120          6           0       -7.571154    4.856500    1.627494
    121          8           0       -8.768222    4.609801    1.397741
    122          8           0       -7.019504    5.536088    2.649367
    123          6           0       -8.058311    6.239576    3.447994
    124          1           0       -5.512910   -2.091869    3.722169
    125          1           0       -6.353861   -4.713266   -1.884305
    126          1           0       -6.245437    0.944258   -4.607420
    127          1           0       -5.653194    2.841202    3.582871
    128          1           0       -5.877120    0.271680    4.716231
    129          1           0       -3.672389    1.652660    3.242402
    130          1           0       -3.675133   -0.116899    3.090938
    131          1           0       -3.565802    0.571607    4.682685
    132          1           0       -8.054859    1.105620    4.203759
    133          1           0       -8.332273    2.684843    3.382603
    134          1           0       -6.682627    3.150250    5.656275
    135          1           0       -7.727994    1.856451    6.123352
    136          1           0       -6.170241   -4.024484    4.245283
    137          1           0       -5.788918   -5.526970    3.473058
    138          1           0       -7.503804   -5.161942    3.777516
    139          1           0       -6.658547   -7.152068    2.216795
    140          1           0       -7.815612   -8.024940    1.056631
    141          1           0       -8.339440   -6.673594    2.102037
    142          1           0       -6.781358   -3.841323   -4.241561
    143          1           0       -5.238355   -1.482143   -5.195579
    144          1           0       -4.814774   -4.792358   -4.839220
    145          1           0       -4.066357   -3.941477   -3.442107
    146          1           0       -4.044166   -3.213492   -4.966957
    147          1           0       -7.146372   -2.536299   -6.468388
    148          1           0       -7.198239   -0.786232   -6.370621
    149          1           0       -8.756633   -2.888872   -5.054391
    150          1           0       -9.375677   -1.381105   -5.821361
    151          1           0       -8.640221   -1.372482   -4.156025
    152          1           0       -6.824002    4.512059   -4.024106
    153          1           0       -6.262734    3.045699   -4.890682
    154          1           0       -5.085337    3.972055   -3.876846
    155          1           0       -5.490538    4.426251    1.215710
    156          1           0       -7.778493    7.297232    3.475259
    157          1           0       -8.103783    5.705449    4.415664
    158          1           0       -9.057478    6.295809    3.032126
 ---------------------------------------------------------------------

 SCF Done:  E(RCAM-B3LYP) =  -4069.81170415     A.U. after   19 cycles

 Excitation energies and oscillator strengths:

 Excited State   1:      Singlet-A      1.6682 eV  743.21 nm  f=0.1141  <S**2>=0.000
     309 -> 315       -0.10764
     310 -> 316        0.13420
     311 -> 313       -0.42820
     312 -> 314        0.53645
 This state for optimization and/or second-order correction.
 Total Energy, E(TD-HF/TD-DFT) =  -4069.75039789
 Copying the excited state density for this state as the 1-particle RhoCI density.

 Excited State   2:      Singlet-A      1.6859 eV  735.41 nm  f=0.6222  <S**2>=0.000
     309 -> 315        0.13826
     310 -> 316        0.11012
     311 -> 313        0.53556
     312 -> 314        0.42761

 Excited State   3:      Singlet-A      2.1854 eV  567.32 nm  f=0.0665  <S**2>=0.000
     309 -> 313       -0.15990
     310 -> 314        0.62252
     312 -> 316       -0.26432

 Excited State   4:      Singlet-A      2.1922 eV  565.57 nm  f=0.1278  <S**2>=0.000
     309 -> 313        0.62068
     310 -> 314        0.15871
     311 -> 315       -0.26934

 Excited State   5:      Singlet-A      2.6502 eV  467.84 nm  f=0.0000  <S**2>=0.000
     312 -> 313        0.70710

 The electronic state is 1-A.
 Alpha  occ. eigenvalues --  -46.87850 -46.87555 -19.26293 -19.26279 -19.19094
 Alpha  occ. eigenvalues --  -19.19024 -19.18895 -19.18621 -19.18207 -19.17948
 Alpha  occ. eigenvalues --  -14.42501 -14.42398 -14.41501 -14.41252 -14.39460
 Alpha  occ. eigenvalues --  -14.39248 -14.38638 -14.38491 -10.39086 -10.39021
 Alpha  occ. eigenvalues --  -10.35531 -10.35300 -10.34426 -10.34126 -10.31718
 Alpha  occ. eigenvalues --  -10.31652 -10.31450 -10.31210 -10.30960 -10.30934
 Alpha  occ. eigenvalues --  -10.30620 -10.30561 -10.30288 -10.30264 -10.30253
 Alpha  occ. eigenvalues --  -10.30033 -10.29969 -10.29781 -10.29687 -10.29331
 Alpha  occ. eigenvalues --  -10.29314 -10.29294 -10.28785 -10.28653 -10.28627
 Alpha  occ. eigenvalues --  -10.28553 -10.28418 -10.28303 -10.28157 -10.28071
 Alpha  occ. eigenvalues --  -10.27893 -10.27847 -10.27780 -10.27646 -10.27571
 Alpha  occ. eigenvalues --  -10.27564 -10.27549 -10.27497 -10.27451 -10.27400
 Alpha  occ. eigenvalues --  -10.27384 -10.27382 -10.27362 -10.27263 -10.27187
 Alpha  occ. eigenvalues --  -10.26957 -10.26735 -10.26642 -10.26520 -10.26335
 Alpha  occ. eigenvalues --  -10.26271 -10.26228 -10.26072 -10.26029 -10.25961
 Alpha  occ. eigenvalues --  -10.25889 -10.25821 -10.25697 -10.25479 -10.25279
 Alpha  occ. eigenvalues --  -10.24884 -10.24840 -10.24762 -10.24732 -10.24633
 Alpha  occ. eigenvalues --  -10.24584  -3.16593  -3.16305  -1.91475  -1.91187
 Alpha  occ. eigenvalues --   -1.91061  -1.90903  -1.90776  -1.90613  -1.16630
 Alpha  occ. eigenvalues --   -1.16584  -1.08661  -1.08557  -1.07298  -1.06878
 Alpha  occ. eigenvalues --   -1.06874  -1.06647  -1.04631  -1.04397  -1.03812
 Alpha  occ. eigenvalues --   -1.03559  -1.03288  -1.02930  -1.02464  -1.02004
 Alpha  occ. eigenvalues --   -0.92016  -0.91887  -0.89568  -0.89387  -0.89227
 Alpha  occ. eigenvalues --   -0.89078  -0.88335  -0.88112  -0.87920  -0.87722
 Alpha  occ. eigenvalues --   -0.87674  -0.87586  -0.87346  -0.87024  -0.85024
 Alpha  occ. eigenvalues --   -0.84921  -0.83981  -0.83771  -0.83045  -0.82839
 Alpha  occ. eigenvalues --   -0.82693  -0.82572  -0.81611  -0.81513  -0.80639
 Alpha  occ. eigenvalues --   -0.80353  -0.78860  -0.78533  -0.77266  -0.77055
 Alpha  occ. eigenvalues --   -0.76966  -0.76816  -0.75958  -0.75756  -0.74941
 Alpha  occ. eigenvalues --   -0.74700  -0.72825  -0.72592  -0.71717  -0.71484
 Alpha  occ. eigenvalues --   -0.69953  -0.69652  -0.68919  -0.68746  -0.67692
 Alpha  occ. eigenvalues --   -0.67505  -0.67267  -0.67127  -0.65326  -0.65192
 Alpha  occ. eigenvalues --   -0.64895  -0.64673  -0.64659  -0.64567  -0.64317
 Alpha  occ. eigenvalues --   -0.64100  -0.62317  -0.62197  -0.60506  -0.60239
 Alpha  occ. eigenvalues --   -0.59848  -0.59712  -0.59034  -0.58892  -0.58549
 Alpha  occ. eigenvalues --   -0.58328  -0.57615  -0.57463  -0.57355  -0.57135
 Alpha  occ. eigenvalues --   -0.56362  -0.56104  -0.55994  -0.55814  -0.55578
 Alpha  occ. eigenvalues --   -0.55375  -0.55364  -0.55149  -0.54551  -0.54397
 Alpha  occ. eigenvalues --   -0.53934  -0.53840  -0.53356  -0.53271  -0.53128
 Alpha  occ. eigenvalues --   -0.53057  -0.52952  -0.52819  -0.52819  -0.52585
 Alpha  occ. eigenvalues --   -0.52483  -0.52298  -0.51961  -0.51751  -0.51663
 Alpha  occ. eigenvalues --   -0.51583  -0.51236  -0.51104  -0.50657  -0.50387
 Alpha  occ. eigenvalues --   -0.50082  -0.49983  -0.49894  -0.49764  -0.49566
 Alpha  occ. eigenvalues --   -0.49402  -0.49263  -0.49135  -0.49113  -0.49017
 Alpha  occ. eigenvalues --   -0.48628  -0.48524  -0.48490  -0.48471  -0.48271
 Alpha  occ. eigenvalues --   -0.48248  -0.47744  -0.47507  -0.47349  -0.47023
 Alpha  occ. eigenvalues --   -0.46843  -0.46613  -0.46595  -0.46478  -0.46408
 Alpha  occ. eigenvalues --   -0.46202  -0.46169  -0.45979  -0.45852  -0.45725
 Alpha  occ. eigenvalues --   -0.45249  -0.45104  -0.44617  -0.44564  -0.44428
 Alpha  occ. eigenvalues --   -0.44387  -0.44196  -0.44131  -0.44065  -0.44040
 Alpha  occ. eigenvalues --   -0.43982  -0.43850  -0.43523  -0.43472  -0.43431
 Alpha  occ. eigenvalues --   -0.43296  -0.43071  -0.42853  -0.42804  -0.42732
 Alpha  occ. eigenvalues --   -0.42674  -0.42451  -0.42051  -0.41873  -0.41748
 Alpha  occ. eigenvalues --   -0.41574  -0.41572  -0.41378  -0.41186  -0.40917
 Alpha  occ. eigenvalues --   -0.40898  -0.40889  -0.40642  -0.40618  -0.40616
 Alpha  occ. eigenvalues --   -0.40392  -0.40271  -0.40166  -0.39487  -0.39320
 Alpha  occ. eigenvalues --   -0.38514  -0.38250  -0.37783  -0.37587  -0.37368
 Alpha  occ. eigenvalues --   -0.37305  -0.37164  -0.37113  -0.36731  -0.36698
 Alpha  occ. eigenvalues --   -0.36223  -0.36123  -0.34336  -0.34151  -0.33788
 Alpha  occ. eigenvalues --   -0.33784  -0.33235  -0.33071  -0.31423  -0.31180
 Alpha  occ. eigenvalues --   -0.31086  -0.30872  -0.30065  -0.29853  -0.29510
 Alpha  occ. eigenvalues --   -0.29374  -0.29223  -0.29099  -0.24131  -0.23931
 Alpha  occ. eigenvalues --   -0.21181  -0.21012
 Alpha virt. eigenvalues --   -0.08830  -0.08686  -0.01804  -0.01580  -0.00122
 Alpha virt. eigenvalues --    0.00067   0.02153   0.02316   0.03060   0.03320
 Alpha virt. eigenvalues --    0.04676   0.04820   0.05087   0.05237   0.06154

 Mulliken charges:
               1
     1  Mg   0.838588
     2  C   -0.002892
     3  C   -0.094281
     4  C   -0.045954
     5  C   -0.063991
     6  N   -0.256791
     7  C   -0.052377
     8  C   -0.013973
     9  C   -0.086967
    10  C    0.046273
    11  C    0.104805
    12  C    0.053524
    13  C   -0.072068
    14  H    0.036953
    15  N   -0.433096
    16  C    0.168238
    17  C   -0.177396
    18  C   -0.004258
    19  C    0.148627
    20  C    0.110219
    21  C    0.011971
    22  O   -0.249648
    23  C    0.062677
    24  N   -0.341164
    25  C    0.041245
    26  C   -0.028194
    27  C   -0.024013
    28  C    0.074944
    29  C    0.076148
    30  C    0.035095
    31  C   -0.004474
    32  N   -0.310539
    33  C    0.080556
    34  C   -0.169692
    35  C    0.008492
    36  C    0.083035
    37  C    0.127296
    38  C    0.046218
    39  O   -0.188023
    40  C   -0.005318
    41  C    0.212924
    42  O   -0.256965
    43  O   -0.304884
    44  C    0.157457
    45  H   -0.017637
    46  H   -0.016901
    47  H   -0.041389
    48  H    0.001165
    49  H   -0.004121
    50  H    0.025587
    51  H    0.016393
    52  H    0.016712
    53  H    0.010765
    54  H    0.044343
    55  H    0.017984
    56  H    0.017671
    57  H    0.005930
    58  H    0.026841
    59  H    0.038756
    60  H    0.037534
    61  H    0.035296
    62  H    0.030692
    63  H    0.016519
    64  H    0.009575
    65  H    0.023235
    66  H    0.012539
    67  H    0.004853
    68  H    0.006541
    69  H    0.004765
    70  H    0.008833
    71  H    0.018221
    72  H    0.028812
    73  H    0.047664
    74  H    0.009118
    75  H    0.046187
    76  H    0.035274
    77  H    0.043219
    78  H    0.046457
    79  H    0.054240
    80  Mg   0.838162
    81  C   -0.016827
    82  C   -0.087909
    83  C   -0.045425
    84  C   -0.064131
    85  N   -0.254525
    86  C   -0.049706
    87  C   -0.015084
    88  C   -0.090575
    89  C    0.045805
    90  C    0.114447
    91  C    0.062613
    92  C   -0.077638
    93  H    0.034592
    94  N   -0.423491
    95  C    0.162846
    96  C   -0.174713
    97  C   -0.007874
    98  C    0.152068
    99  C    0.099408
   100  C    0.015510
   101  O   -0.253328
   102  C    0.061239
   103  N   -0.349948
   104  C    0.037610
   105  C   -0.019906
   106  C   -0.034978
   107  C    0.088941
   108  C    0.073579
   109  C    0.034719
   110  C   -0.007627
   111  N   -0.324233
   112  C    0.078533
   113  C   -0.162501
   114  C    0.002440
   115  C    0.096313
   116  C    0.131339
   117  C    0.042757
   118  O   -0.187888
   119  C    0.000765
   120  C    0.211151
   121  O   -0.251115
   122  O   -0.305668
   123  C    0.152126
   124  H   -0.020104
   125  H   -0.015682
   126  H   -0.039967
   127  H   -0.000926
   128  H   -0.004818
   129  H    0.022811
   130  H    0.014930
   131  H    0.015162
   132  H    0.013902
   133  H    0.037698
   134  H    0.020404
   135  H    0.019349
   136  H    0.008387
   137  H    0.026163
   138  H    0.039464
   139  H    0.038292
   140  H    0.036184
   141  H    0.033696
   142  H    0.014147
   143  H    0.013206
   144  H    0.024701
   145  H    0.011852
   146  H    0.006168
   147  H    0.006147
   148  H    0.003890
   149  H    0.010755
   150  H    0.017784
   151  H    0.030029
   152  H    0.045689
   153  H    0.008583
   154  H    0.048559
   155  H    0.035263
   156  H    0.043657
   157  H    0.049214
   158  H    0.053536
 Sum of Mulliken charges =  -0.00000

 Dipole moment (field-independent basis, Debye):
    X=              3.7214    Y=             -2.1166    Z=              7.2089  Tot=              8.3843
 Quadrupole moment (field-independent basis, Debye-Ang):
   XX=           -518.2993   YY=           -537.2220   ZZ=           -461.8354
   XY=             22.2343   XZ=              3.7398   YZ=             35.0477

 Normal termination of Gaussian 16 at Sat Sep  4 10:18:13 2021.
