 Gaussian 16, Revision A.03,
 Gaussian 16:  ES64L-G16RevA.03 25-Dec-2016

 -----------------------------------
 #p cam-b3lyp/Def2SVP td=(nstates=5)
 -----------------------------------

 --------------------------------
 TDDFT excited states in gaussian
 --------------------------------
 Symbolic Z-matrix:
 Charge =  0 Multiplicity = 1

                         Standard orientation:
 ---------------------------------------------------------------------
 Center     Atomic      Atomic             Coordinates (Angstroms)
 Number     Number       Type             X           Y           Z
 ---------------------------------------------------------------------
      1         12           0        7.984202   -0.618736    0.623778
      2          6           0        8.358702    2.143711   -1.621406
      3          6           0        8.649716    1.552831    3.170237
      4          6           0        8.107822   -3.115267    2.575360
      5          6           0        8.473874   -2.719389   -2.113581
      6          7           0        8.429690    1.549611    0.645158
      7          6           0        8.484389    2.504543   -0.278034
      8          6           0        8.612483    3.936862    0.321492
      9          6           0        9.255532    3.562904    1.731684
     10          6           0        8.718515    2.149904    1.876482
     11          6           0       10.779744    3.509391    1.711287
     12          6           0        7.222016    4.636029    0.493240
     13          6           0        7.277031    6.142710    0.762015
     14          1           0        6.240498    6.993208    0.196682
     15          7           0        7.845937   -0.714267    2.592180
     16          6           0        8.142116    0.270963    3.473592
     17          6           0        7.875809   -0.289400    4.815887
     18          6           0        7.582439   -1.740454    4.653189
     19          6           0        7.862994   -1.922624    3.251946
     20          6           0        7.867136    0.536594    6.065449
     21          6           0        7.132362   -2.797742    5.611158
     22          8           0        7.161094   -4.041055    5.314641
     23          6           0        6.735062   -2.340483    6.955073
     24          7           0        8.469362   -2.627775    0.330491
     25          6           0        8.386361   -3.510952    1.331537
     26          6           0        8.503484   -4.919166    0.828391
     27          6           0        8.440766   -4.826136   -0.764457
     28          6           0        8.376890   -3.285542   -0.908536
     29          6           0        9.772118   -5.675673    1.245853
     30          6           0        7.361006   -5.678938   -1.476684
     31          6           0        5.984567   -5.153509   -1.135456
     32          7           0        8.176281   -0.373719   -1.524272
     33          6           0        8.397116   -1.383822   -2.471689
     34          6           0        8.564485   -0.721435   -3.778325
     35          6           0        8.445109    0.637887   -3.495765
     36          6           0        8.243763    0.815000   -2.097058
     37          6           0        8.851913   -1.370956   -5.011184
     38          6           0        8.465392    1.983307   -4.046484
     39          8           0        8.505864    2.454117   -5.184109
     40          6           0        8.531971    3.018369   -2.838162
     41          6           0        7.498412    4.081468   -3.092888
     42          8           0        6.280771    3.809477   -3.065747
     43          8           0        8.089952    5.285886   -3.091979
     44          6           0        7.115144    6.387861   -3.310044
     45          1           0        9.075685    2.087361    4.021571
     46          1           0        8.048786   -4.011673    3.196174
     47          1           0        8.545602   -3.315203   -3.025346
     48          1           0        9.279891    4.601359   -0.227538
     49          1           0        8.875836    4.196557    2.532956
     50          1           0       11.168426    3.610749    0.698087
     51          1           0       11.042327    2.535149    2.124077
     52          1           0       11.202416    4.247590    2.393334
     53          1           0        6.762308    4.298535    1.422125
     54          1           0        6.585723    4.447175   -0.372088
     55          1           0        8.265159    6.550206    0.546473
     56          1           0        7.145067    6.303815    1.831983
     57          1           0        8.279806    1.529647    5.891970
     58          1           0        8.565045    0.070025    6.760392
     59          1           0        6.876420    0.586598    6.517461
     60          1           0        7.574855   -1.826543    7.423221
     61          1           0        6.358388   -3.221595    7.473347
     62          1           0        5.939929   -1.600998    6.855701
     63          1           0        7.675453   -5.531386    1.183324
     64          1           0        9.375980   -5.138746   -1.229563
     65          1           0        9.571988   -6.608142    1.774204
     66          1           0       10.380069   -5.005144    1.852547
     67          1           0       10.455144   -5.908284    0.429284
     68          1           0        7.404821   -6.711406   -1.131669
     69          1           0        7.465615   -5.687109   -2.561691
     70          1           0        5.771944   -5.630701   -0.179469
     71          1           0        5.262265   -5.458661   -1.893330
     72          1           0        6.000277   -4.076728   -0.965802
     73          1           0        8.209751   -0.904923   -5.758452
     74          1           0        8.669697   -2.443386   -4.945650
     75          1           0        9.909667   -1.133187   -5.122888
     76          1           0        9.543028    3.424316   -2.828501
     77          1           0        7.463585    6.959018   -4.170627
     78          1           0        7.022250    6.912160   -2.358789
     79          1           0        6.121226    6.092378   -3.647914
     80         12           0       -7.831717   -0.666115   -0.650350
     81          6           0       -9.073266    1.742323    1.702750
     82          6           0       -7.689339    1.861950   -2.935786
     83          6           0       -7.167973   -2.839126   -2.865043
     84          6           0       -9.132324   -3.151258    1.418038
     85          7           0       -8.341555    1.481872   -0.514410
     86          6           0       -8.745623    2.297167    0.448065
     87          6           0       -8.725031    3.801863    0.067239
     88          6           0       -8.835932    3.647857   -1.527396
     89          6           0       -8.219559    2.259056   -1.682288
     90          6           0      -10.269553    3.592742   -2.028427
     91          6           0       -7.386268    4.505797    0.484605
     92          6           0       -7.417623    6.034573    0.424400
     93          1           0       -6.667381    6.786141    1.426774
     94          7           0       -7.022079   -0.459395   -2.450435
     95          6           0       -7.038283    0.643358   -3.228218
     96          6           0       -6.325045    0.276415   -4.461427
     97          6           0       -6.030168   -1.181580   -4.416616
     98          6           0       -6.762966   -1.562251   -3.225744
     99          6           0       -5.920714    1.284044   -5.498076
    100          6           0       -5.232529   -2.086171   -5.306380
    101          8           0       -5.307208   -3.362109   -5.210302
    102          6           0       -4.432986   -1.435969   -6.354940
    103          7           0       -8.291386   -2.686041   -0.826217
    104          6           0       -7.835649   -3.411052   -1.862834
    105          6           0       -8.057982   -4.887308   -1.635638
    106          6           0       -8.541210   -5.020268   -0.116955
    107          6           0       -8.602975   -3.523998    0.260873
    108          6           0       -9.080160   -5.555345   -2.555014
    109          6           0       -7.732440   -5.980737    0.797409
    110          6           0       -6.342164   -5.431053    1.021826
    111          7           0       -8.744440   -0.740917    1.306539
    112          6           0       -9.239927   -1.882705    1.973547
    113          6           0       -9.870688   -1.416172    3.225306
    114          6           0       -9.717514   -0.022023    3.188361
    115          6           0       -9.057094    0.355558    1.988034
    116          6           0      -10.522493   -2.240119    4.185721
    117          6           0       -9.973780    1.217007    3.886814
    118          8           0      -10.425168    1.513772    4.992214
    119          6           0       -9.680637    2.425279    2.896599
    120          6           0       -8.839305    3.433456    3.630260
    121          8           0       -7.682963    3.149964    3.989604
    122          8           0       -9.454080    4.629758    3.594757
    123          6           0       -8.652744    5.665274    4.300007
    124          1           0       -7.820227    2.528105   -3.789013
    125          1           0       -6.864599   -3.639415   -3.544005
    126          1           0       -9.473594   -3.872911    2.163290
    127          1           0       -9.561920    4.377369    0.444307
    128          1           0       -8.231679    4.392431   -2.039103
    129          1           0      -10.978975    3.547287   -1.215530
    130          1           0      -10.334253    2.700526   -2.637367
    131          1           0      -10.466111    4.432028   -2.701693
    132          1           0       -6.622620    4.303386   -0.277381
    133          1           0       -7.077745    4.188894    1.461856
    134          1           0       -8.439788    6.422823    0.338481
    135          1           0       -6.930454    6.355536   -0.499543
    136          1           0       -6.418753    2.248210   -5.337644
    137          1           0       -6.314368    0.931310   -6.457492
    138          1           0       -4.837127    1.393168   -5.579300
    139          1           0       -5.087034   -0.851251   -6.997423
    140          1           0       -3.864881   -2.238598   -6.829185
    141          1           0       -3.743147   -0.728811   -5.880953
    142          1           0       -7.135574   -5.441064   -1.760670
    143          1           0       -9.569663   -5.404312   -0.048747
    144          1           0       -8.665297   -6.411442   -3.119876
    145          1           0       -9.471152   -4.807024   -3.231532
    146          1           0       -9.981576   -5.913280   -2.060520
    147          1           0       -7.607678   -6.951272    0.310930
    148          1           0       -8.202683   -6.160322    1.758456
    149          1           0       -5.799190   -5.762225    0.131551
    150          1           0       -5.906856   -5.848315    1.927600
    151          1           0       -6.346735   -4.334876    1.016375
    152          1           0      -10.198872   -1.898456    5.159899
    153          1           0      -10.286310   -3.291221    4.033507
    154          1           0      -11.567972   -2.016976    3.956673
    155          1           0      -10.642364    2.839294    2.591224
    156          1           0       -9.301905    6.107450    5.062091
    157          1           0       -8.273026    6.339123    3.509129
    158          1           0       -7.817793    5.328237    4.903078
 ---------------------------------------------------------------------

 SCF Done:  E(RCAM-B3LYP) =  -4069.81191412     A.U. after   19 cycles

 Excitation energies and oscillator strengths:

 Excited State   1:      Singlet-A      1.6701 eV  742.37 nm  f=0.0410  <S**2>=0.000
     309 -> 315        0.10483
     310 -> 316        0.13727
     311 -> 313        0.41532
     312 -> 314        0.54643
 This state for optimization and/or second-order correction.
 Total Energy, E(TD-HF/TD-DFT) =  -4069.75053833
 Copying the excited state density for this state as the 1-particle RhoCI density.

 Excited State   2:      Singlet-A      1.6855 eV  735.61 nm  f=0.7184  <S**2>=0.000
     309 -> 315        0.14096
     310 -> 316       -0.10664
     311 -> 313        0.54563
     312 -> 314       -0.41482

 Excited State   3:      Singlet-A      2.1865 eV  567.04 nm  f=0.0588  <S**2>=0.000
     309 -> 313        0.13785
     310 -> 314        0.62762
     312 -> 316       -0.26693

 Excited State   4:      Singlet-A      2.1932 eV  565.31 nm  f=0.1347  <S**2>=0.000
     309 -> 313        0.62581
     310 -> 314       -0.13694
     311 -> 315       -0.27216

 Excited State   5:      Singlet-A      2.8065 eV  441.78 nm  f=0.0000  <S**2>=0.000
     312 -> 313        0.70709

 The electronic state is 1-A.
 Alpha  occ. eigenvalues --  -46.87748 -46.87589 -19.26320 -19.26289 -19.19125
 Alpha  occ. eigenvalues --  -19.19020 -19.18748 -19.18612 -19.18143 -19.17995
 Alpha  occ. eigenvalues --  -14.42427 -14.42403 -14.41400 -14.41290 -14.39352
 Alpha  occ. eigenvalues --  -14.39277 -14.38541 -14.38531 -10.39077 -10.39053
 Alpha  occ. eigenvalues --  -10.35379 -10.35286 -10.34364 -10.34174 -10.31739
 Alpha  occ. eigenvalues --  -10.31699 -10.31364 -10.31245 -10.30949 -10.30863
 Alpha  occ. eigenvalues --  -10.30526 -10.30460 -10.30327 -10.30293 -10.30151
 Alpha  occ. eigenvalues --  -10.30065 -10.29874 -10.29831 -10.29582 -10.29358
 Alpha  occ. eigenvalues --  -10.29325 -10.29202 -10.28715 -10.28658 -10.28605
 Alpha  occ. eigenvalues --  -10.28518 -10.28332 -10.28319 -10.28079 -10.28078
 Alpha  occ. eigenvalues --  -10.27929 -10.27748 -10.27680 -10.27597 -10.27532
 Alpha  occ. eigenvalues --  -10.27455 -10.27443 -10.27415 -10.27414 -10.27394
 Alpha  occ. eigenvalues --  -10.27385 -10.27361 -10.27351 -10.27314 -10.27135
 Alpha  occ. eigenvalues --  -10.26999 -10.26675 -10.26632 -10.26324 -10.26272
 Alpha  occ. eigenvalues --  -10.26199 -10.26117 -10.26076 -10.25969 -10.25969
 Alpha  occ. eigenvalues --  -10.25865 -10.25811 -10.25800 -10.25383 -10.25342
 Alpha  occ. eigenvalues --  -10.24804 -10.24790 -10.24738 -10.24664 -10.24620
 Alpha  occ. eigenvalues --  -10.24610  -3.16490  -3.16339  -1.91372  -1.91221
 Alpha  occ. eigenvalues --   -1.90958  -1.90809  -1.90801  -1.90646  -1.16637
 Alpha  occ. eigenvalues --   -1.16612  -1.08606  -1.08604  -1.07148  -1.06909
 Alpha  occ. eigenvalues --   -1.06864  -1.06643  -1.04536  -1.04425  -1.03712
 Alpha  occ. eigenvalues --   -1.03592  -1.03186  -1.02968  -1.02363  -1.02041
 Alpha  occ. eigenvalues --   -0.91934  -0.91923  -0.89466  -0.89428  -0.89151
 Alpha  occ. eigenvalues --   -0.89089  -0.88233  -0.88155  -0.87829  -0.87730
 Alpha  occ. eigenvalues --   -0.87628  -0.87615  -0.87214  -0.87023  -0.84942
 Alpha  occ. eigenvalues --   -0.84934  -0.83884  -0.83814  -0.82901  -0.82833
 Alpha  occ. eigenvalues --   -0.82606  -0.82578  -0.81562  -0.81545  -0.80558
 Alpha  occ. eigenvalues --   -0.80378  -0.78744  -0.78553  -0.77172  -0.77076
 Alpha  occ. eigenvalues --   -0.76901  -0.76842  -0.75891  -0.75779  -0.74851
 Alpha  occ. eigenvalues --   -0.74741  -0.72728  -0.72631  -0.71630  -0.71517
 Alpha  occ. eigenvalues --   -0.69848  -0.69693  -0.68831  -0.68760  -0.67596
 Alpha  occ. eigenvalues --   -0.67532  -0.67177  -0.67124  -0.65250  -0.65210
 Alpha  occ. eigenvalues --   -0.64816  -0.64707  -0.64593  -0.64581  -0.64218
 Alpha  occ. eigenvalues --   -0.64139  -0.62278  -0.62230  -0.60385  -0.60254
 Alpha  occ. eigenvalues --   -0.59764  -0.59731  -0.58944  -0.58928  -0.58462
 Alpha  occ. eigenvalues --   -0.58361  -0.57560  -0.57503  -0.57263  -0.57166
 Alpha  occ. eigenvalues --   -0.56266  -0.56134  -0.55963  -0.55835  -0.55470
 Alpha  occ. eigenvalues --   -0.55376  -0.55299  -0.55190  -0.54491  -0.54434
 Alpha  occ. eigenvalues --   -0.53858  -0.53849  -0.53250  -0.53178  -0.53156
 Alpha  occ. eigenvalues --   -0.53070  -0.52881  -0.52841  -0.52700  -0.52569
 Alpha  occ. eigenvalues --   -0.52379  -0.52337  -0.51879  -0.51829  -0.51585
 Alpha  occ. eigenvalues --   -0.51575  -0.51158  -0.51141  -0.50502  -0.50367
 Alpha  occ. eigenvalues --   -0.49975  -0.49902  -0.49863  -0.49795  -0.49469
 Alpha  occ. eigenvalues --   -0.49406  -0.49174  -0.49132  -0.49061  -0.49044
 Alpha  occ. eigenvalues --   -0.48562  -0.48500  -0.48415  -0.48393  -0.48316
 Alpha  occ. eigenvalues --   -0.48248  -0.47649  -0.47523  -0.47249  -0.47042
 Alpha  occ. eigenvalues --   -0.46751  -0.46644  -0.46518  -0.46487  -0.46314
 Alpha  occ. eigenvalues --   -0.46201  -0.46123  -0.46026  -0.45795  -0.45771
 Alpha  occ. eigenvalues --   -0.45150  -0.45145  -0.44545  -0.44455  -0.44453
 Alpha  occ. eigenvalues --   -0.44408  -0.44095  -0.44062  -0.44048  -0.44008
 Alpha  occ. eigenvalues --   -0.43976  -0.43855  -0.43504  -0.43469  -0.43341
 Alpha  occ. eigenvalues --   -0.43323  -0.42985  -0.42882  -0.42842  -0.42685
 Alpha  occ. eigenvalues --   -0.42606  -0.42483  -0.41962  -0.41901  -0.41664
 Alpha  occ. eigenvalues --   -0.41607  -0.41494  -0.41394  -0.41098  -0.40925
 Alpha  occ. eigenvalues --   -0.40825  -0.40762  -0.40650  -0.40614  -0.40521
 Alpha  occ. eigenvalues --   -0.40431  -0.40197  -0.40156  -0.39379  -0.39360
 Alpha  occ. eigenvalues --   -0.38418  -0.38287  -0.37714  -0.37593  -0.37269
 Alpha  occ. eigenvalues --   -0.37225  -0.37200  -0.37133  -0.36730  -0.36697
 Alpha  occ. eigenvalues --   -0.36159  -0.36159  -0.34241  -0.34186  -0.33820
 Alpha  occ. eigenvalues --   -0.33762  -0.33142  -0.33107  -0.31278  -0.31174
 Alpha  occ. eigenvalues --   -0.30989  -0.30902  -0.30004  -0.29902  -0.29398
 Alpha  occ. eigenvalues --   -0.29278  -0.29247  -0.29142  -0.24034  -0.23967
 Alpha  occ. eigenvalues --   -0.21080  -0.21045
 Alpha virt. eigenvalues --   -0.08726  -0.08718  -0.01699  -0.01611  -0.00004
 Alpha virt. eigenvalues --    0.00056   0.02240   0.02271   0.03180   0.03308
 Alpha virt. eigenvalues --    0.04759   0.04793   0.05105   0.05205   0.06204

 Mulliken charges:
               1
     1  Mg   0.838907
     2  C   -0.003050
     3  C   -0.094064
     4  C   -0.045768
     5  C   -0.063893
     6  N   -0.256794
     7  C   -0.052563
     8  C   -0.014028
     9  C   -0.087030
    10  C    0.046396
    11  C    0.104810
    12  C    0.053440
    13  C   -0.071691
    14  H    0.035660
    15  N   -0.433183
    16  C    0.168584
    17  C   -0.176989
    18  C   -0.003805
    19  C    0.148816
    20  C    0.110147
    21  C    0.012516
    22  O   -0.249510
    23  C    0.062345
    24  N   -0.341143
    25  C    0.041299
    26  C   -0.028197
    27  C   -0.023949
    28  C    0.074819
    29  C    0.076184
    30  C    0.035111
    31  C   -0.004553
    32  N   -0.310386
    33  C    0.080298
    34  C   -0.169850
    35  C    0.008159
    36  C    0.082930
    37  C    0.127363
    38  C    0.045886
    39  O   -0.188979
    40  C   -0.005281
    41  C    0.212794
    42  O   -0.257373
    43  O   -0.304694
    44  C    0.157890
    45  H   -0.017564
    46  H   -0.016710
    47  H   -0.041542
    48  H    0.000755
    49  H   -0.003956
    50  H    0.025378
    51  H    0.016500
    52  H    0.016640
    53  H    0.011506
    54  H    0.043911
    55  H    0.017786
    56  H    0.018166
    57  H    0.005855
    58  H    0.026855
    59  H    0.040084
    60  H    0.037252
    61  H    0.035895
    62  H    0.031989
    63  H    0.016744
    64  H    0.009343
    65  H    0.023272
    66  H    0.012485
    67  H    0.004685
    68  H    0.006388
    69  H    0.004649
    70  H    0.008940
    71  H    0.018455
    72  H    0.028927
    73  H    0.047222
    74  H    0.009171
    75  H    0.045882
    76  H    0.035063
    77  H    0.042705
    78  H    0.046489
    79  H    0.053195
    80  Mg   0.838012
    81  C   -0.016865
    82  C   -0.087575
    83  C   -0.045443
    84  C   -0.064894
    85  N   -0.254555
    86  C   -0.049969
    87  C   -0.015137
    88  C   -0.090556
    89  C    0.045834
    90  C    0.114385
    91  C    0.062455
    92  C   -0.077778
    93  H    0.034448
    94  N   -0.423554
    95  C    0.163127
    96  C   -0.174320
    97  C   -0.007509
    98  C    0.152199
    99  C    0.099271
   100  C    0.015842
   101  O   -0.253277
   102  C    0.060977
   103  N   -0.350044
   104  C    0.037569
   105  C   -0.019851
   106  C   -0.034722
   107  C    0.088780
   108  C    0.073708
   109  C    0.034754
   110  C   -0.007663
   111  N   -0.324033
   112  C    0.078270
   113  C   -0.163339
   114  C    0.002059
   115  C    0.096108
   116  C    0.131538
   117  C    0.042194
   118  O   -0.188363
   119  C    0.000973
   120  C    0.211179
   121  O   -0.251121
   122  O   -0.305597
   123  C    0.152160
   124  H   -0.019548
   125  H   -0.015525
   126  H   -0.040676
   127  H   -0.000866
   128  H   -0.004159
   129  H    0.022321
   130  H    0.014439
   131  H    0.016249
   132  H    0.014343
   133  H    0.037545
   134  H    0.020623
   135  H    0.019834
   136  H    0.008746
   137  H    0.026166
   138  H    0.041025
   139  H    0.038156
   140  H    0.036679
   141  H    0.035047
   142  H    0.014483
   143  H    0.012226
   144  H    0.025105
   145  H    0.011622
   146  H    0.005525
   147  H    0.006137
   148  H    0.003477
   149  H    0.011037
   150  H    0.017879
   151  H    0.030218
   152  H    0.045729
   153  H    0.008403
   154  H    0.046728
   155  H    0.034860
   156  H    0.043667
   157  H    0.049512
   158  H    0.053320
 Sum of Mulliken charges =  -0.00000

 Dipole moment (field-independent basis, Debye):
    X=              1.4950    Y=              3.1097    Z=              0.0505  Tot=              3.4508
 Quadrupole moment (field-independent basis, Debye-Ang):
   XX=           -487.8369   YY=           -460.9440   ZZ=           -534.0545
   XY=              4.2590   XZ=             70.1056   YZ=              7.9145

 Normal termination of Gaussian 16 at Sat Sep 11 21:28:52 2021.
