 Gaussian 16, Revision A.03,
 Gaussian 16:  ES64L-G16RevA.03 25-Dec-2016

 -----------------------------------
 #p cam-b3lyp/Def2SVP td=(nstates=5)
 -----------------------------------

 --------------------------------
 TDDFT excited states in gaussian
 --------------------------------
 Symbolic Z-matrix:
 Charge =  0 Multiplicity = 1

                         Standard orientation:
 ---------------------------------------------------------------------
 Center     Atomic      Atomic             Coordinates (Angstroms)
 Number     Number       Type             X           Y           Z
 ---------------------------------------------------------------------
      1         12           0        3.282205   -1.794930    0.667809
      2          6           0        4.676731    1.273447   -0.537420
      3          6           0        4.001027   -0.709711    3.821958
      4          6           0        2.477061   -4.674345    1.724848
      5          6           0        3.717587   -3.081874   -2.541534
      6          7           0        4.218753    0.065172    1.418503
      7          6           0        4.654291    1.188376    0.856461
      8          6           0        5.014537    2.297099    1.890062
      9          6           0        5.301416    1.374966    3.158670
     10          6           0        4.428162    0.186334    2.797415
     11          6           0        6.750140    0.908116    3.257429
     12          6           0        3.821101    3.276364    2.151754
     13          6           0        4.185261    4.567516    2.890446
     14          1           0        3.491460    5.796522    2.536141
     15          7           0        2.792920   -2.402880    2.482704
     16          6           0        3.160064   -1.831177    3.654731
     17          6           0        2.544465   -2.652429    4.719280
     18          6           0        1.947480   -3.856408    4.077301
     19          6           0        2.410686   -3.703829    2.721743
     20          6           0        2.519720   -2.246646    6.160973
     21          6           0        1.103579   -4.973554    4.604507
     22          8           0        0.886675   -6.038403    3.930990
     23          6           0        0.603658   -4.824965    5.983290
     24          7           0        3.319802   -3.690252   -0.206250
     25          6           0        2.860978   -4.761837    0.449623
     26          6           0        2.724630   -5.943932   -0.463613
     27          6           0        2.957280   -5.389026   -1.942702
     28          6           0        3.285892   -3.916532   -1.593350
     29          6           0        3.687843   -7.109203   -0.198333
     30          6           0        1.843276   -5.669484   -2.982297
     31          6           0        0.593278   -4.901666   -2.614794
     32          7           0        3.888921   -1.013756   -1.264213
     33          6           0        4.021629   -1.733212   -2.460643
     34          6           0        4.560722   -0.800959   -3.467794
     35          6           0        4.720796    0.399502   -2.778508
     36          6           0        4.332587    0.220992   -1.419935
     37          6           0        4.891102   -1.126986   -4.812780
     38          6           0        5.152715    1.784910   -2.867647
     39          8           0        5.496300    2.528637   -3.787599
     40          6           0        5.256522    2.373356   -1.391577
     41          6           0        4.563204    3.708486   -1.384742
     42          8           0        3.329409    3.789511   -1.553707
     43          8           0        5.414408    4.649189   -0.947624
     44          6           0        4.780275    5.993267   -0.888597
     45          1           0        4.390579   -0.579157    4.833465
     46          1           0        2.102615   -5.656807    2.019802
     47          1           0        3.799831   -3.389813   -3.585499
     48          1           0        5.903731    2.877311    1.642851
     49          1           0        4.952334    1.834566    4.083133
     50          1           0        7.318070    1.180713    2.368010
     51          1           0        6.700216   -0.176102    3.359762
     52          1           0        7.213580    1.274549    4.173795
     53          1           0        3.143574    2.830724    2.880055
     54          1           0        3.314698    3.525460    1.218569
     55          1           0        5.263652    4.728097    2.904463
     56          1           0        3.915467    4.448343    3.939831
     57          1           0        3.179347   -1.400720    6.350308
     58          1           0        2.958622   -3.066004    6.729942
     59          1           0        1.507146   -2.053765    6.515686
     60          1           0        1.449256   -4.719533    6.663289
     61          1           0       -0.053571   -5.676026    6.158204
     62          1           0        0.035288   -3.897171    6.054725
     63          1           0        1.727162   -6.376443   -0.397144
     64          1           0        3.856733   -5.803770   -2.398383
     65          1           0        3.185596   -8.059311   -0.014632
     66          1           0        4.325266   -6.834967    0.641773
     67          1           0        4.424743   -7.280698   -0.982543
     68          1           0        1.581805   -6.727113   -2.981865
     69          1           0        2.125716   -5.398090   -3.999560
     70          1           0        0.114371   -5.551860   -1.883543
     71          1           0       -0.041220   -4.765900   -3.491258
     72          1           0        0.834762   -3.965991   -2.110132
     73          1           0        4.514285   -0.308758   -5.426361
     74          1           0        4.451429   -2.079156   -5.108861
     75          1           0        5.978214   -1.170987   -4.748692
     76          1           0        6.318221    2.462225   -1.163496
     77          1           0        5.395166    6.664875   -1.487834
     78          1           0        4.654123    6.230246    0.167969
     79          1           0        3.816913    6.094169   -1.389688
     80         12           0       -4.188598    0.568901   -0.644836
     81          6           0       -1.334720    2.743559   -0.571951
     82          6           0       -5.416622    2.337399    2.000727
     83          6           0       -6.492177   -1.598460   -0.392838
     84          6           0       -2.254991   -1.678926   -2.476255
     85          7           0       -3.387151    2.296503    0.480042
     86          6           0       -2.322248    3.077483    0.378155
     87          6           0       -2.353356    4.330228    1.294260
     88          6           0       -3.360192    3.781143    2.418381
     89          6           0       -4.131881    2.764365    1.579727
     90          6           0       -2.658886    3.038365    3.543452
     91          6           0       -2.938825    5.589914    0.564589
     92          6           0       -2.714504    6.917007    1.292784
     93          1           0       -2.473753    8.116447    0.495379
     94          7           0       -5.945853    0.663178    0.272623
     95          6           0       -6.278363    1.453578    1.314730
     96          6           0       -7.678092    1.131839    1.633152
     97          6           0       -8.093422   -0.029823    0.800836
     98          6           0       -6.825834   -0.387704    0.196491
     99          6           0       -8.504529    1.947918    2.584170
    100          6           0       -9.410594   -0.714327    0.594152
    101          8           0       -9.493810   -1.852046    0.009780
    102          6           0      -10.589291   -0.058024    1.178476
    103          7           0       -4.290337   -1.445641   -1.148409
    104          6           0       -5.428040   -2.142952   -0.983150
    105          6           0       -5.347948   -3.487346   -1.666205
    106          6           0       -4.004395   -3.449573   -2.532818
    107          6           0       -3.470999   -2.062445   -2.112395
    108          6           0       -5.322107   -4.703383   -0.740476
    109          6           0       -4.135542   -3.762734   -4.048542
    110          6           0       -4.911574   -2.663364   -4.737430
    111          7           0       -2.230878    0.586022   -1.558649
    112          6           0       -1.605713   -0.470925   -2.255868
    113          6           0       -0.237945   -0.023448   -2.589606
    114          6           0       -0.153789    1.264256   -2.038949
    115          6           0       -1.375450    1.588026   -1.389163
    116          6           0        0.746924   -0.794324   -3.269242
    117          6           0        0.694402    2.419128   -1.850414
    118          8           0        1.807114    2.754882   -2.253987
    119          6           0        0.011615    3.378740   -0.783007
    120          6           0        0.047410    4.780127   -1.328309
    121          8           0       -0.599956    5.078528   -2.347373
    122          8           0        0.660553    5.583173   -0.439751
    123          6           0        0.710859    6.986081   -0.930810
    124          1           0       -5.784926    2.677549    2.968999
    125          1           0       -7.292324   -2.341359   -0.429521
    126          1           0       -1.623573   -2.283609   -3.130735
    127          1           0       -1.401461    4.589193    1.742162
    128          1           0       -4.023792    4.566110    2.771702
    129          1           0       -1.607371    2.899520    3.340504
    130          1           0       -3.158807    2.081745    3.620849
    131          1           0       -2.832004    3.546851    4.496234
    132          1           0       -4.035056    5.542925    0.593087
    133          1           0       -2.561993    5.659292   -0.437312
    134          1           0       -1.965988    6.828588    2.089554
    135          1           0       -3.634646    7.184525    1.817941
    136          1           0       -7.882455    2.637737    3.167758
    137          1           0       -8.913309    1.255397    3.327930
    138          1           0       -9.330621    2.462944    2.089210
    139          1           0      -10.448931    0.047599    2.251600
    140          1           0      -11.446122   -0.648958    0.849055
    141          1           0      -10.663890    0.955792    0.769553
    142          1           0       -6.190633   -3.634394   -2.330569
    143          1           0       -3.270600   -4.188779   -2.179325
    144          1           0       -6.136196   -5.424378   -0.944159
    145          1           0       -5.370172   -4.354627    0.282565
    146          1           0       -4.392455   -5.269859   -0.748006
    147          1           0       -4.704185   -4.683996   -4.197097
    148          1           0       -3.180636   -3.889675   -4.547572
    149          1           0       -5.952986   -2.942990   -4.552069
    150          1           0       -4.690592   -2.648188   -5.802778
    151          1           0       -4.738623   -1.695880   -4.251939
    152          1           0        1.214807   -0.136449   -3.989505
    153          1           0        0.307291   -1.664853   -3.751607
    154          1           0        1.390890   -1.071369   -2.430297
    155          1           0        0.573857    3.286873    0.147059
    156          1           0        1.761668    7.291579   -0.918008
    157          1           0        0.013470    7.553415   -0.286198
    158          1           0        0.451608    7.163659   -1.967970
 ---------------------------------------------------------------------

 SCF Done:  E(RCAM-B3LYP) =  -4069.76581156     A.U. after   19 cycles

 Excitation energies and oscillator strengths:

 Excited State   1:      Singlet-A      1.6229 eV  763.97 nm  f=0.1951  <S**2>=0.000
     309 -> 315        0.11320
     310 -> 316       -0.11385
     311 -> 313        0.47767
     312 -> 313       -0.10320
     312 -> 314        0.48044
 This state for optimization and/or second-order correction.
 Total Energy, E(TD-HF/TD-DFT) =  -4069.70617117
 Copying the excited state density for this state as the 1-particle RhoCI density.

 Excited State   2:      Singlet-A      1.7157 eV  722.64 nm  f=0.5516  <S**2>=0.000
     309 -> 315       -0.13133
     310 -> 316       -0.12892
     311 -> 313       -0.48022
     312 -> 314        0.48291

 Excited State   3:      Singlet-A      2.1655 eV  572.54 nm  f=0.0054  <S**2>=0.000
     309 -> 313        0.34616
     310 -> 314        0.19145
     311 -> 315       -0.14441
     312 -> 313        0.54914

 Excited State   4:      Singlet-A      2.1849 eV  567.47 nm  f=0.0010  <S**2>=0.000
     309 -> 313       -0.34648
     310 -> 314       -0.38860
     311 -> 315        0.14039
     312 -> 313        0.41286
     312 -> 316       -0.16399

 Excited State   5:      Singlet-A      2.2059 eV  562.06 nm  f=0.1502  <S**2>=0.000
     309 -> 313       -0.41003
     310 -> 314        0.46618
     311 -> 315        0.18845
     312 -> 313        0.11582
     312 -> 316        0.21323

 The electronic state is 1-A.
 Alpha  occ. eigenvalues --  -46.87671 -46.87122 -19.25860 -19.25311 -19.18689
 Alpha  occ. eigenvalues --  -19.18504 -19.18199 -19.17700 -19.16928 -19.16034
 Alpha  occ. eigenvalues --  -14.42329 -14.42013 -14.41356 -14.40813 -14.39259
 Alpha  occ. eigenvalues --  -14.38786 -14.38505 -14.38001 -10.38454 -10.37571
 Alpha  occ. eigenvalues --  -10.35327 -10.34889 -10.33916 -10.32449 -10.31610
 Alpha  occ. eigenvalues --  -10.31284 -10.31233 -10.30753 -10.30723 -10.30572
 Alpha  occ. eigenvalues --  -10.30386 -10.30345 -10.30166 -10.29795 -10.29762
 Alpha  occ. eigenvalues --  -10.29722 -10.29689 -10.29457 -10.29291 -10.29152
 Alpha  occ. eigenvalues --  -10.28977 -10.28745 -10.28610 -10.28477 -10.28460
 Alpha  occ. eigenvalues --  -10.28377 -10.28184 -10.27990 -10.27800 -10.27787
 Alpha  occ. eigenvalues --  -10.27600 -10.27578 -10.27548 -10.27446 -10.27421
 Alpha  occ. eigenvalues --  -10.27388 -10.27276 -10.27183 -10.27160 -10.27112
 Alpha  occ. eigenvalues --  -10.27006 -10.26942 -10.26923 -10.26841 -10.26631
 Alpha  occ. eigenvalues --  -10.26603 -10.26388 -10.26379 -10.26319 -10.26221
 Alpha  occ. eigenvalues --  -10.26113 -10.26009 -10.25938 -10.25843 -10.25799
 Alpha  occ. eigenvalues --  -10.25667 -10.25425 -10.25414 -10.25069 -10.25001
 Alpha  occ. eigenvalues --  -10.24957 -10.24654 -10.24596 -10.24428 -10.24161
 Alpha  occ. eigenvalues --  -10.24106  -3.16428  -3.15873  -1.91310  -1.90895
 Alpha  occ. eigenvalues --   -1.90756  -1.90738  -1.90345  -1.90179  -1.16083
 Alpha  occ. eigenvalues --   -1.15634  -1.08126  -1.07667  -1.07094  -1.06463
 Alpha  occ. eigenvalues --   -1.06335  -1.05035  -1.04437  -1.03974  -1.03646
 Alpha  occ. eigenvalues --   -1.03109  -1.03103  -1.02473  -1.02289  -1.01539
 Alpha  occ. eigenvalues --   -0.91687  -0.91332  -0.89490  -0.89056  -0.88995
 Alpha  occ. eigenvalues --   -0.88782  -0.88244  -0.87743  -0.87695  -0.87555
 Alpha  occ. eigenvalues --   -0.87205  -0.87139  -0.87095  -0.86578  -0.84850
 Alpha  occ. eigenvalues --   -0.84577  -0.83934  -0.83428  -0.82873  -0.82478
 Alpha  occ. eigenvalues --   -0.82460  -0.82214  -0.81249  -0.81092  -0.80362
 Alpha  occ. eigenvalues --   -0.79934  -0.78647  -0.78056  -0.77145  -0.76789
 Alpha  occ. eigenvalues --   -0.76702  -0.76478  -0.75693  -0.75369  -0.74801
 Alpha  occ. eigenvalues --   -0.74327  -0.72638  -0.72134  -0.71514  -0.71086
 Alpha  occ. eigenvalues --   -0.69989  -0.69355  -0.68734  -0.68387  -0.67465
 Alpha  occ. eigenvalues --   -0.67103  -0.67053  -0.66773  -0.65145  -0.64872
 Alpha  occ. eigenvalues --   -0.64703  -0.64438  -0.64270  -0.64190  -0.64178
 Alpha  occ. eigenvalues --   -0.63739  -0.61962  -0.61760  -0.60327  -0.59815
 Alpha  occ. eigenvalues --   -0.59663  -0.59380  -0.58826  -0.58467  -0.58303
 Alpha  occ. eigenvalues --   -0.57879  -0.57305  -0.57226  -0.56915  -0.56758
 Alpha  occ. eigenvalues --   -0.56145  -0.55791  -0.55623  -0.55438  -0.55383
 Alpha  occ. eigenvalues --   -0.55275  -0.55117  -0.54887  -0.54373  -0.54009
 Alpha  occ. eigenvalues --   -0.53772  -0.53517  -0.53387  -0.53152  -0.53016
 Alpha  occ. eigenvalues --   -0.52746  -0.52700  -0.52647  -0.52445  -0.52402
 Alpha  occ. eigenvalues --   -0.52229  -0.51984  -0.51670  -0.51466  -0.51236
 Alpha  occ. eigenvalues --   -0.51174  -0.50971  -0.50610  -0.50494  -0.50079
 Alpha  occ. eigenvalues --   -0.50024  -0.49853  -0.49768  -0.49528  -0.49378
 Alpha  occ. eigenvalues --   -0.49271  -0.49020  -0.48940  -0.48734  -0.48632
 Alpha  occ. eigenvalues --   -0.48506  -0.48349  -0.48207  -0.48040  -0.47869
 Alpha  occ. eigenvalues --   -0.47533  -0.47288  -0.47127  -0.46939  -0.46704
 Alpha  occ. eigenvalues --   -0.46630  -0.46374  -0.46243  -0.46193  -0.46172
 Alpha  occ. eigenvalues --   -0.45818  -0.45726  -0.45523  -0.45460  -0.45161
 Alpha  occ. eigenvalues --   -0.44898  -0.44642  -0.44453  -0.44272  -0.44115
 Alpha  occ. eigenvalues --   -0.44019  -0.43964  -0.43775  -0.43708  -0.43621
 Alpha  occ. eigenvalues --   -0.43507  -0.43422  -0.43284  -0.43126  -0.43063
 Alpha  occ. eigenvalues --   -0.42886  -0.42797  -0.42700  -0.42436  -0.42275
 Alpha  occ. eigenvalues --   -0.42091  -0.41918  -0.41561  -0.41488  -0.41409
 Alpha  occ. eigenvalues --   -0.41189  -0.41033  -0.40953  -0.40857  -0.40732
 Alpha  occ. eigenvalues --   -0.40490  -0.40447  -0.40334  -0.40282  -0.40163
 Alpha  occ. eigenvalues --   -0.40078  -0.39876  -0.39778  -0.39556  -0.39020
 Alpha  occ. eigenvalues --   -0.38447  -0.37924  -0.37630  -0.37307  -0.37238
 Alpha  occ. eigenvalues --   -0.37113  -0.36805  -0.36698  -0.36320  -0.36201
 Alpha  occ. eigenvalues --   -0.35754  -0.35152  -0.34153  -0.33696  -0.33236
 Alpha  occ. eigenvalues --   -0.33137  -0.32718  -0.31685  -0.31193  -0.30770
 Alpha  occ. eigenvalues --   -0.30623  -0.30408  -0.29550  -0.29287  -0.29113
 Alpha  occ. eigenvalues --   -0.28736  -0.28383  -0.26935  -0.23915  -0.23488
 Alpha  occ. eigenvalues --   -0.20991  -0.20529
 Alpha virt. eigenvalues --   -0.08602  -0.08157  -0.01649  -0.01193   0.00111
 Alpha virt. eigenvalues --    0.00558   0.02486   0.02667   0.03329   0.03820
 Alpha virt. eigenvalues --    0.04781   0.05128   0.05775   0.06036   0.06251

 Mulliken charges:
               1
     1  Mg   0.831375
     2  C   -0.003087
     3  C   -0.094121
     4  C   -0.046900
     5  C   -0.063778
     6  N   -0.255543
     7  C   -0.057883
     8  C   -0.010182
     9  C   -0.086619
    10  C    0.045244
    11  C    0.105002
    12  C    0.041661
    13  C   -0.070154
    14  H    0.035383
    15  N   -0.429817
    16  C    0.166339
    17  C   -0.177825
    18  C   -0.004523
    19  C    0.149440
    20  C    0.110365
    21  C    0.012238
    22  O   -0.250434
    23  C    0.062624
    24  N   -0.340235
    25  C    0.041265
    26  C   -0.027941
    27  C   -0.023126
    28  C    0.073078
    29  C    0.076369
    30  C    0.039595
    31  C   -0.014905
    32  N   -0.315326
    33  C    0.066139
    34  C   -0.167639
    35  C    0.015966
    36  C    0.091963
    37  C    0.126539
    38  C    0.058221
    39  O   -0.185636
    40  C   -0.011235
    41  C    0.215163
    42  O   -0.210149
    43  O   -0.310092
    44  C    0.159082
    45  H   -0.018359
    46  H   -0.017709
    47  H   -0.043073
    48  H    0.001636
    49  H   -0.005220
    50  H    0.025828
    51  H    0.016263
    52  H    0.015941
    53  H    0.007909
    54  H    0.055918
    55  H    0.018272
    56  H    0.015868
    57  H    0.005098
    58  H    0.026382
    59  H    0.038334
    60  H    0.037017
    61  H    0.035316
    62  H    0.031113
    63  H    0.015479
    64  H    0.009987
    65  H    0.022847
    66  H    0.013120
    67  H    0.004544
    68  H    0.006353
    69  H    0.004001
    70  H    0.010532
    71  H    0.018642
    72  H    0.028314
    73  H    0.049044
    74  H    0.007125
    75  H    0.045774
    76  H    0.031787
    77  H    0.038772
    78  H    0.042821
    79  H    0.048642
    80  Mg   0.834059
    81  C   -0.019321
    82  C   -0.088223
    83  C   -0.046375
    84  C   -0.067104
    85  N   -0.253426
    86  C   -0.051314
    87  C   -0.013563
    88  C   -0.090070
    89  C    0.043738
    90  C    0.115015
    91  C    0.062925
    92  C   -0.076692
    93  H    0.033365
    94  N   -0.422976
    95  C    0.160806
    96  C   -0.176412
    97  C   -0.009303
    98  C    0.150860
    99  C    0.100074
   100  C    0.014374
   101  O   -0.255045
   102  C    0.061696
   103  N   -0.350472
   104  C    0.037044
   105  C   -0.019849
   106  C   -0.034578
   107  C    0.089791
   108  C    0.073867
   109  C    0.034359
   110  C   -0.007354
   111  N   -0.324293
   112  C    0.079517
   113  C   -0.181900
   114  C    0.011409
   115  C    0.093698
   116  C    0.137312
   117  C    0.045772
   118  O   -0.136519
   119  C   -0.011182
   120  C    0.223967
   121  O   -0.252408
   122  O   -0.307545
   123  C    0.157998
   124  H   -0.022174
   125  H   -0.017120
   126  H   -0.043857
   127  H   -0.003205
   128  H   -0.005749
   129  H    0.019826
   130  H    0.014096
   131  H    0.013543
   132  H    0.014050
   133  H    0.038336
   134  H    0.018633
   135  H    0.019012
   136  H    0.006878
   137  H    0.024018
   138  H    0.037929
   139  H    0.037341
   140  H    0.034794
   141  H    0.033150
   142  H    0.013131
   143  H    0.013623
   144  H    0.023634
   145  H    0.012006
   146  H    0.005526
   147  H    0.005130
   148  H    0.001613
   149  H    0.010847
   150  H    0.016443
   151  H    0.031214
   152  H    0.042881
   153  H   -0.000426
   154  H    0.066778
   155  H    0.034038
   156  H    0.026058
   157  H    0.047715
   158  H    0.054348
 Sum of Mulliken charges =  -0.00000

 Dipole moment (field-independent basis, Debye):
    X=              1.0291    Y=              1.1668    Z=              7.0584  Tot=              7.2278
 Quadrupole moment (field-independent basis, Debye-Ang):
   XX=           -518.6657   YY=           -493.8710   ZZ=           -489.9717
   XY=            -26.0291   XZ=              9.1554   YZ=             52.1871

 Normal termination of Gaussian 16 at Thu Sep  9 04:17:20 2021.
