 Gaussian 16, Revision A.03,
 Gaussian 16:  ES64L-G16RevA.03 25-Dec-2016

 -----------------------------------
 #p cam-b3lyp/Def2SVP td=(nstates=5)
 -----------------------------------

 --------------------------------
 TDDFT excited states in gaussian
 --------------------------------
 Symbolic Z-matrix:
 Charge =  0 Multiplicity = 1

                         Standard orientation:
 ---------------------------------------------------------------------
 Center     Atomic      Atomic             Coordinates (Angstroms)
 Number     Number       Type             X           Y           Z
 ---------------------------------------------------------------------
      1         12           0        8.113829    0.374472    0.087314
      2          6           0        8.164105   -3.141269   -0.582951
      3          6           0        8.957324    0.859081   -3.183272
      4          6           0        8.520012    3.446730    0.760267
      5          6           0        8.397218   -0.416018    3.469692
      6          7           0        8.483913   -1.041063   -1.573994
      7          6           0        8.412121   -2.361019   -1.714473
      8          6           0        8.550415   -2.833434   -3.192672
      9          6           0        9.345007   -1.583618   -3.783078
     10          6           0        8.874548   -0.515664   -2.811447
     11          6           0       10.860319   -1.716705   -3.670736
     12          6           0        7.161017   -3.011472   -3.892392
     13          6           0        7.190707   -3.776225   -5.218901
     14          1           0        6.073625   -4.647998   -5.549792
     15          7           0        8.178248    1.949295   -1.103748
     16          6           0        8.527574    1.961018   -2.412610
     17          6           0        8.417597    3.368930   -2.851211
     18          6           0        8.159689    4.202657   -1.644365
     19          6           0        8.303576    3.223534   -0.597469
     20          6           0        8.506462    3.793433   -4.284965
     21          6           0        7.845407    5.653980   -1.462653
     22          8           0        7.887076    6.220733   -0.317389
     23          6           0        7.570139    6.425024   -2.688524
     24          7           0        8.636140    1.388200    1.835794
     25          6           0        8.685164    2.724384    1.870306
     26          6           0        8.799578    3.230398    3.277714
     27          6           0        8.573299    1.963362    4.222792
     28          6           0        8.441950    0.874152    3.129797
     29          6           0       10.129266    3.906237    3.639903
     30          6           0        7.457347    2.073854    5.291840
     31          6           0        6.105006    2.134734    4.617626
     32          7           0        8.079621   -1.438254    1.280587
     33          6           0        8.238560   -1.535844    2.670511
     34          6           0        8.250232   -2.972014    3.004199
     35          6           0        8.113015   -3.614606    1.775341
     36          6           0        8.047804   -2.642066    0.736974
     37          6           0        8.434112   -3.524468    4.302435
     38          6           0        8.031072   -4.897170    1.095509
     39          8           0        7.940251   -6.069332    1.463314
     40          6           0        8.183367   -4.645363   -0.469491
     41          6           0        7.093224   -5.416786   -1.162170
     42          8           0        5.894676   -5.100809   -1.017227
     43          8           0        7.639811   -6.245674   -2.064794
     44          6           0        6.610437   -7.019888   -2.808524
     45          1           0        9.448260    1.123350   -4.121933
     46          1           0        8.554959    4.499255    1.049071
     47          1           0        8.397164   -0.736683    4.513065
     48          1           0        9.135635   -3.743452   -3.326123
     49          1           0        9.026393   -1.340691   -4.796583
     50          1           0       11.141056   -2.592328   -3.085594
     51          1           0       11.196756   -0.804917   -3.176827
     52          1           0       11.323850   -1.711427   -4.657594
     53          1           0        6.809322   -2.041927   -4.245031
     54          1           0        6.447586   -3.486646   -3.218188
     55          1           0        8.137355   -4.299615   -5.356122
     56          1           0        7.161869   -3.050852   -6.032044
     57          1           0        8.864919    2.984720   -4.920604
     58          1           0        9.286644    4.552025   -4.344655
     59          1           0        7.565270    4.204530   -4.650326
     60          1           0        8.434592    6.369269   -3.350462
     61          1           0        7.278386    7.421259   -2.358000
     62          1           0        6.743932    5.955310   -3.223031
     63          1           0        8.033260    3.975058    3.489054
     64          1           0        9.467070    1.715848    4.796015
     65          1           0       10.015844    4.925432    4.010149
     66          1           0       10.771759    3.878945    2.760273
     67          1           0       10.734061    3.364832    4.366897
     68          1           0        7.571442    2.993040    5.865447
     69          1           0        7.452177    1.241887    5.996152
     70          1           0        6.006555    3.189713    4.364333
     71          1           0        5.320921    1.824419    5.309092
     72          1           0        6.100489    1.573445    3.683056
     73          1           0        7.704098   -4.328141    4.398137
     74          1           0        8.296650   -2.770168    5.076863
     75          1           0        9.466337   -3.867064    4.231750
     76          1           0        9.175586   -4.998440   -0.748704
     77          1           0        6.850307   -8.075820   -2.683208
     78          1           0        6.595904   -6.621262   -3.823064
     79          1           0        5.598324   -6.989297   -2.403517
     80         12           0       -7.756440    1.017308    0.337930
     81          6           0       -9.513625   -2.106656    0.158593
     82          6           0       -8.780416    1.606029   -2.861990
     83          6           0       -5.854901    3.557057    0.302157
     84          6           0       -5.965777   -0.302858    3.020542
     85          7           0       -8.985467   -0.171862   -1.064787
     86          6           0       -9.650261   -1.315698   -1.001206
     87          6           0      -10.573568   -1.591495   -2.218166
     88          6           0       -9.821795   -0.676306   -3.302670
     89          6           0       -9.180777    0.341424   -2.361402
     90          6           0       -8.713525   -1.407097   -4.042279
     91          6           0      -12.044716   -1.102968   -1.975141
     92          6           0      -13.068349   -1.614593   -2.991095
     93          1           0      -14.418949   -1.917903   -2.525946
     94          7           0       -7.752565    2.602024   -0.856750
     95          6           0       -8.229792    2.672039   -2.117154
     96          6           0       -7.971252    4.047826   -2.569394
     97          6           0       -7.154775    4.736583   -1.533191
     98          6           0       -6.865182    3.627988   -0.645926
     99          6           0       -8.549523    4.610478   -3.835275
    100          6           0       -6.698091    6.155208   -1.374648
    101          8           0       -5.797761    6.481526   -0.522738
    102          6           0       -7.268183    7.135861   -2.309959
    103          7           0       -6.000997    1.478761    1.351761
    104          6           0       -5.404364    2.673188    1.192712
    105          6           0       -4.320294    2.882902    2.222865
    106          6           0       -4.476341    1.677543    3.262253
    107          6           0       -5.616620    0.895762    2.573802
    108          6           0       -2.889215    2.910034    1.686526
    109          6           0       -4.639001    2.056231    4.759846
    110          6           0       -5.964994    2.749397    4.975838
    111          7           0       -7.844879   -0.780602    1.532802
    112          6           0       -6.983168   -1.145086    2.590495
    113          6           0       -7.368925   -2.505839    3.017105
    114          6           0       -8.421603   -2.850397    2.155934
    115          6           0       -8.660756   -1.787964    1.242940
    116          6           0       -6.737602   -3.266958    4.040941
    117          6           0       -9.377861   -3.875533    1.804699
    118          8           0       -9.703753   -4.960587    2.284482
    119          6           0      -10.043710   -3.490313    0.413788
    120          6           0      -11.532507   -3.656209    0.549751
    121          8           0      -12.181829   -2.927777    1.320712
    122          8           0      -11.971695   -4.494124   -0.407004
    123          6           0      -13.444482   -4.681771   -0.320291
    124          1           0       -8.855190    1.786747   -3.934666
    125          1           0       -5.240477    4.454555    0.404488
    126          1           0       -5.520579   -0.745206    3.914294
    127          1           0      -10.591599   -2.622606   -2.550233
    128          1           0      -10.530357   -0.188073   -3.966707
    129          1           0       -8.535461   -2.390019   -3.632039
    130          1           0       -7.832119   -0.788063   -3.937593
    131          1           0       -8.933147   -1.440123   -5.113258
    132          1           0      -12.102164   -0.025577   -2.176829
    133          1           0      -12.368132   -1.347239   -0.981980
    134          1           0      -12.673903   -2.442787   -3.592306
    135          1           0      -13.260405   -0.822663   -3.719090
    136          1           0       -8.970170    3.821462   -4.470818
    137          1           0       -7.713351    5.011769   -4.418074
    138          1           0       -9.268132    5.411763   -3.650345
    139          1           0       -7.037911    6.838118   -3.330143
    140          1           0       -6.890207    8.106244   -1.982266
    141          1           0       -8.359619    7.116292   -2.215150
    142          1           0       -4.461443    3.819861    2.747543
    143          1           0       -3.595735    1.018484    3.257091
    144          1           0       -2.346256    3.840519    1.938425
    145          1           0       -2.923727    2.768252    0.614491
    146          1           0       -2.259468    2.082537    2.008842
    147          1           0       -3.864746    2.767932    5.056774
    148          1           0       -4.569302    1.206199    5.430352
    149          1           0       -5.749604    3.785821    4.699231
    150          1           0       -6.271336    2.674344    6.017270
    151          1           0       -6.723689    2.373300    4.279719
    152          1           0       -7.527961   -3.724284    4.621178
    153          1           0       -6.097003   -2.644057    4.661750
    154          1           0       -6.162019   -3.970860    3.433900
    155          1           0       -9.625451   -4.153427   -0.344452
    156          1           0      -13.625060   -5.757909   -0.236646
    157          1           0      -13.863747   -4.167983   -1.205712
    158          1           0      -13.945219   -4.313665    0.567521
 ---------------------------------------------------------------------

 SCF Done:  E(RCAM-B3LYP) =  -4069.81174739     A.U. after   19 cycles

 Excitation energies and oscillator strengths:

 Excited State   1:      Singlet-A      1.6697 eV  742.56 nm  f=0.0181  <S**2>=0.000
     309 -> 315       -0.10256
     310 -> 316        0.13863
     311 -> 313       -0.40687
     312 -> 314        0.55277
 This state for optimization and/or second-order correction.
 Total Energy, E(TD-HF/TD-DFT) =  -4069.75038756
 Copying the excited state density for this state as the 1-particle RhoCI density.

 Excited State   2:      Singlet-A      1.6854 eV  735.64 nm  f=0.7383  <S**2>=0.000
     309 -> 315        0.14256
     310 -> 316        0.10440
     311 -> 313        0.55194
     312 -> 314        0.40633

 Excited State   3:      Singlet-A      2.1855 eV  567.31 nm  f=0.0784  <S**2>=0.000
     309 -> 313       -0.10786
     310 -> 314        0.63359
     312 -> 316       -0.26889

 Excited State   4:      Singlet-A      2.1930 eV  565.35 nm  f=0.1187  <S**2>=0.000
     309 -> 313        0.63164
     310 -> 314        0.10693
     311 -> 315       -0.27460

 Excited State   5:      Singlet-A      2.7702 eV  447.57 nm  f=0.0000  <S**2>=0.000
     312 -> 313        0.70704

 The electronic state is 1-A.
 Alpha  occ. eigenvalues --  -46.87811 -46.87586 -19.26293 -19.26291 -19.19100
 Alpha  occ. eigenvalues --  -19.19031 -19.18817 -19.18654 -19.18179 -19.17977
 Alpha  occ. eigenvalues --  -14.42464 -14.42425 -14.41464 -14.41281 -14.39416
 Alpha  occ. eigenvalues --  -14.39280 -14.38601 -14.38524 -10.39091 -10.39028
 Alpha  occ. eigenvalues --  -10.35449 -10.35333 -10.34399 -10.34154 -10.31704
 Alpha  occ. eigenvalues --  -10.31686 -10.31420 -10.31236 -10.30958 -10.30921
 Alpha  occ. eigenvalues --  -10.30584 -10.30521 -10.30321 -10.30285 -10.30221
 Alpha  occ. eigenvalues --  -10.30063 -10.29936 -10.29810 -10.29643 -10.29364
 Alpha  occ. eigenvalues --  -10.29328 -10.29266 -10.28763 -10.28660 -10.28610
 Alpha  occ. eigenvalues --  -10.28556 -10.28377 -10.28334 -10.28130 -10.28080
 Alpha  occ. eigenvalues --  -10.27926 -10.27805 -10.27741 -10.27599 -10.27595
 Alpha  occ. eigenvalues --  -10.27520 -10.27490 -10.27465 -10.27423 -10.27417
 Alpha  occ. eigenvalues --  -10.27416 -10.27411 -10.27396 -10.27281 -10.27169
 Alpha  occ. eigenvalues --  -10.26980 -10.26721 -10.26641 -10.26403 -10.26372
 Alpha  occ. eigenvalues --  -10.26246 -10.26214 -10.26050 -10.26035 -10.25966
 Alpha  occ. eigenvalues --  -10.25856 -10.25853 -10.25747 -10.25446 -10.25285
 Alpha  occ. eigenvalues --  -10.24845 -10.24801 -10.24797 -10.24730 -10.24654
 Alpha  occ. eigenvalues --  -10.24613  -3.16554  -3.16336  -1.91436  -1.91218
 Alpha  occ. eigenvalues --   -1.91022  -1.90864  -1.90807  -1.90644  -1.16642
 Alpha  occ. eigenvalues --   -1.16584  -1.08637  -1.08584  -1.07217  -1.06908
 Alpha  occ. eigenvalues --   -1.06884  -1.06653  -1.04595  -1.04424  -1.03775
 Alpha  occ. eigenvalues --   -1.03589  -1.03247  -1.02961  -1.02425  -1.02035
 Alpha  occ. eigenvalues --   -0.91985  -0.91914  -0.89538  -0.89414  -0.89202
 Alpha  occ. eigenvalues --   -0.89089  -0.88304  -0.88135  -0.87883  -0.87710
 Alpha  occ. eigenvalues --   -0.87687  -0.87611  -0.87282  -0.87058  -0.84995
 Alpha  occ. eigenvalues --   -0.84936  -0.83956  -0.83792  -0.82974  -0.82870
 Alpha  occ. eigenvalues --   -0.82660  -0.82590  -0.81597  -0.81528  -0.80608
 Alpha  occ. eigenvalues --   -0.80375  -0.78807  -0.78566  -0.77234  -0.77075
 Alpha  occ. eigenvalues --   -0.76949  -0.76829  -0.75936  -0.75773  -0.74913
 Alpha  occ. eigenvalues --   -0.74718  -0.72788  -0.72622  -0.71685  -0.71505
 Alpha  occ. eigenvalues --   -0.69931  -0.69673  -0.68886  -0.68763  -0.67652
 Alpha  occ. eigenvalues --   -0.67530  -0.67231  -0.67142  -0.65300  -0.65207
 Alpha  occ. eigenvalues --   -0.64867  -0.64697  -0.64635  -0.64585  -0.64287
 Alpha  occ. eigenvalues --   -0.64123  -0.62309  -0.62210  -0.60452  -0.60270
 Alpha  occ. eigenvalues --   -0.59817  -0.59731  -0.59001  -0.58917  -0.58517
 Alpha  occ. eigenvalues --   -0.58352  -0.57596  -0.57484  -0.57322  -0.57161
 Alpha  occ. eigenvalues --   -0.56321  -0.56132  -0.55989  -0.55824  -0.55529
 Alpha  occ. eigenvalues --   -0.55388  -0.55355  -0.55167  -0.54539  -0.54412
 Alpha  occ. eigenvalues --   -0.53909  -0.53851  -0.53310  -0.53232  -0.53156
 Alpha  occ. eigenvalues --   -0.53077  -0.52928  -0.52836  -0.52764  -0.52613
 Alpha  occ. eigenvalues --   -0.52463  -0.52320  -0.51928  -0.51794  -0.51627
 Alpha  occ. eigenvalues --   -0.51599  -0.51210  -0.51128  -0.50577  -0.50419
 Alpha  occ. eigenvalues --   -0.50049  -0.49927  -0.49915  -0.49786  -0.49524
 Alpha  occ. eigenvalues --   -0.49426  -0.49225  -0.49136  -0.49108  -0.49035
 Alpha  occ. eigenvalues --   -0.48605  -0.48490  -0.48474  -0.48452  -0.48290
 Alpha  occ. eigenvalues --   -0.48277  -0.47707  -0.47528  -0.47308  -0.47047
 Alpha  occ. eigenvalues --   -0.46813  -0.46634  -0.46568  -0.46491  -0.46373
 Alpha  occ. eigenvalues --   -0.46196  -0.46176  -0.46003  -0.45834  -0.45746
 Alpha  occ. eigenvalues --   -0.45217  -0.45124  -0.44589  -0.44519  -0.44446
 Alpha  occ. eigenvalues --   -0.44407  -0.44160  -0.44101  -0.44061  -0.44028
 Alpha  occ. eigenvalues --   -0.44005  -0.43876  -0.43507  -0.43484  -0.43400
 Alpha  occ. eigenvalues --   -0.43315  -0.43040  -0.42865  -0.42826  -0.42712
 Alpha  occ. eigenvalues --   -0.42673  -0.42475  -0.42029  -0.41891  -0.41717
 Alpha  occ. eigenvalues --   -0.41596  -0.41548  -0.41393  -0.41154  -0.40917
 Alpha  occ. eigenvalues --   -0.40885  -0.40829  -0.40663  -0.40635  -0.40589
 Alpha  occ. eigenvalues --   -0.40412  -0.40248  -0.40173  -0.39467  -0.39342
 Alpha  occ. eigenvalues --   -0.38486  -0.38268  -0.37763  -0.37594  -0.37337
 Alpha  occ. eigenvalues --   -0.37277  -0.37187  -0.37133  -0.36726  -0.36705
 Alpha  occ. eigenvalues --   -0.36207  -0.36141  -0.34300  -0.34179  -0.33798
 Alpha  occ. eigenvalues --   -0.33782  -0.33200  -0.33101  -0.31347  -0.31213
 Alpha  occ. eigenvalues --   -0.31048  -0.30900  -0.30039  -0.29881  -0.29460
 Alpha  occ. eigenvalues --   -0.29334  -0.29257  -0.29135  -0.24094  -0.23961
 Alpha  occ. eigenvalues --   -0.21141  -0.21042
 Alpha virt. eigenvalues --   -0.08786  -0.08719  -0.01763  -0.01609  -0.00066
 Alpha virt. eigenvalues --    0.00036   0.02189   0.02284   0.03098   0.03294
 Alpha virt. eigenvalues --    0.04703   0.04799   0.05087   0.05228   0.06161

 Mulliken charges:
               1
     1  Mg   0.838512
     2  C   -0.002984
     3  C   -0.094111
     4  C   -0.045837
     5  C   -0.064028
     6  N   -0.256762
     7  C   -0.052507
     8  C   -0.013981
     9  C   -0.087012
    10  C    0.046313
    11  C    0.104804
    12  C    0.053476
    13  C   -0.071774
    14  H    0.036068
    15  N   -0.433159
    16  C    0.168442
    17  C   -0.177108
    18  C   -0.003928
    19  C    0.148691
    20  C    0.110177
    21  C    0.012395
    22  O   -0.249492
    23  C    0.062425
    24  N   -0.341085
    25  C    0.041191
    26  C   -0.028224
    27  C   -0.023957
    28  C    0.074749
    29  C    0.076138
    30  C    0.035156
    31  C   -0.004498
    32  N   -0.310438
    33  C    0.080274
    34  C   -0.169830
    35  C    0.008392
    36  C    0.082867
    37  C    0.127334
    38  C    0.046077
    39  O   -0.188343
    40  C   -0.005324
    41  C    0.212933
    42  O   -0.257208
    43  O   -0.304782
    44  C    0.157663
    45  H   -0.017574
    46  H   -0.016744
    47  H   -0.041546
    48  H    0.000982
    49  H   -0.004059
    50  H    0.025515
    51  H    0.016476
    52  H    0.016674
    53  H    0.011147
    54  H    0.044085
    55  H    0.017929
    56  H    0.017894
    57  H    0.005826
    58  H    0.026887
    59  H    0.039627
    60  H    0.037278
    61  H    0.035916
    62  H    0.031605
    63  H    0.016573
    64  H    0.009538
    65  H    0.023308
    66  H    0.012605
    67  H    0.004788
    68  H    0.006452
    69  H    0.004699
    70  H    0.008901
    71  H    0.017604
    72  H    0.028917
    73  H    0.047544
    74  H    0.009019
    75  H    0.046094
    76  H    0.035206
    77  H    0.043064
    78  H    0.046349
    79  H    0.053720
    80  Mg   0.837911
    81  C   -0.016866
    82  C   -0.087937
    83  C   -0.045563
    84  C   -0.064437
    85  N   -0.254566
    86  C   -0.049778
    87  C   -0.015103
    88  C   -0.090507
    89  C    0.045753
    90  C    0.114424
    91  C    0.062548
    92  C   -0.077790
    93  H    0.034749
    94  N   -0.423444
    95  C    0.162875
    96  C   -0.174857
    97  C   -0.007932
    98  C    0.152072
    99  C    0.099482
   100  C    0.015424
   101  O   -0.253200
   102  C    0.061246
   103  N   -0.350026
   104  C    0.037594
   105  C   -0.019909
   106  C   -0.034943
   107  C    0.088962
   108  C    0.073437
   109  C    0.034699
   110  C   -0.007652
   111  N   -0.324182
   112  C    0.078485
   113  C   -0.162846
   114  C    0.002321
   115  C    0.096240
   116  C    0.131500
   117  C    0.042524
   118  O   -0.187768
   119  C    0.000865
   120  C    0.211236
   121  O   -0.251103
   122  O   -0.305608
   123  C    0.152075
   124  H   -0.019974
   125  H   -0.015573
   126  H   -0.040043
   127  H   -0.000673
   128  H   -0.004544
   129  H    0.022602
   130  H    0.014482
   131  H    0.015969
   132  H    0.013864
   133  H    0.037682
   134  H    0.020742
   135  H    0.019458
   136  H    0.008581
   137  H    0.025785
   138  H    0.039580
   139  H    0.038008
   140  H    0.036236
   141  H    0.033828
   142  H    0.014242
   143  H    0.013204
   144  H    0.025149
   145  H    0.011589
   146  H    0.006509
   147  H    0.006261
   148  H    0.003805
   149  H    0.010834
   150  H    0.017784
   151  H    0.030001
   152  H    0.045894
   153  H    0.008693
   154  H    0.047701
   155  H    0.035137
   156  H    0.043884
   157  H    0.049377
   158  H    0.053522
 Sum of Mulliken charges =  -0.00000

 Dipole moment (field-independent basis, Debye):
    X=              2.4309    Y=              3.6243    Z=             -7.6557  Tot=              8.8122
 Quadrupole moment (field-independent basis, Debye-Ang):
   XX=           -478.3818   YY=           -562.9211   ZZ=           -448.3586
   XY=             -9.5733   XZ=             29.8148   YZ=             14.3678

 Normal termination of Gaussian 16 at Sun Sep 12 06:53:07 2021.
