 Gaussian 16, Revision A.03,
 Gaussian 16:  ES64L-G16RevA.03 25-Dec-2016

 -----------------------------------
 #p cam-b3lyp/Def2SVP td=(nstates=5)
 -----------------------------------

 --------------------------------
 TDDFT excited states in gaussian
 --------------------------------
 Symbolic Z-matrix:
 Charge =  0 Multiplicity = 1

                         Standard orientation:
 ---------------------------------------------------------------------
 Center     Atomic      Atomic             Coordinates (Angstroms)
 Number     Number       Type             X           Y           Z
 ---------------------------------------------------------------------
      1         12           0       -6.395501   -1.074881   -0.145341
      2          6           0       -6.785096    2.452312    0.322998
      3          6           0       -7.195973   -0.577363   -3.424791
      4          6           0       -6.502881   -4.226079   -0.484525
      5          6           0       -6.745843   -1.422445    3.304604
      6          7           0       -6.903765    0.752462   -1.286889
      7          6           0       -6.959534    2.049952   -1.003019
      8          6           0       -7.145986    2.950132   -2.260909
      9          6           0       -7.818082    1.883207   -3.236592
     10          6           0       -7.244904    0.611113   -2.637286
     11          6           0       -9.338909    1.834093   -3.130871
     12          6           0       -5.781746    3.466958   -2.829654
     13          6           0       -5.887859    4.605301   -3.848609
     14          1           0       -4.860528    5.635772   -3.856890
     15          7           0       -6.310934   -2.191934   -1.772576
     16          6           0       -6.660507   -1.821835   -3.028009
     17          6           0       -6.416679   -3.002824   -3.883867
     18          6           0       -6.077049   -4.147536   -2.993710
     19          6           0       -6.312013   -3.566677   -1.696492
     20          6           0       -6.467597   -2.959160   -5.380280
     21          6           0       -5.624271   -5.546608   -3.268885
     22          8           0       -5.608638   -6.447295   -2.361641
     23          6           0       -5.278951   -5.862369   -4.666773
     24          7           0       -6.813929   -2.632345    1.180124
     25          6           0       -6.734179   -3.909607    0.791247
     26          6           0       -6.796194   -4.842398    1.964275
     27          6           0       -6.690621   -3.923458    3.265873
     28          6           0       -6.667102   -2.537634    2.575069
     29          6           0       -8.053912   -5.717265    2.057878
     30          6           0       -5.566775   -4.262761    4.276942
     31          6           0       -4.216391   -3.983023    3.656211
     32          7           0       -6.533007    0.263364    1.557960
     33          6           0       -6.697414   -0.097972    2.902981
     34          6           0       -6.846349    1.151869    3.670954
     35          6           0       -6.774359    2.159358    2.710939
     36          6           0       -6.618320    1.574790    1.421666
     37          6           0       -7.079523    1.246752    5.071333
     38          6           0       -6.817663    3.592776    2.471578
     39          8           0       -6.839118    4.591947    3.191780
     40          6           0       -6.948620    3.835141    0.903159
     41          6           0       -5.939282    4.882606    0.519282
     42          8           0       -4.715579    4.648638    0.591229
     43          8           0       -6.565093    5.900144   -0.091882
     44          6           0       -5.616627    6.960778   -0.525036
     45          1           0       -7.661372   -0.575677   -4.412385
     46          1           0       -6.435811   -5.314461   -0.542510
     47          1           0       -6.774234   -1.449069    4.395447
     48          1           0       -7.816292    3.797859   -2.117827
     49          1           0       -7.479906    2.003114   -4.265660
     50          1           0       -9.701193    2.450431   -2.308193
     51          1           0       -9.584994    0.786134   -2.958485
     52          1           0       -9.802041    2.098101   -4.081968
     53          1           0       -5.339272    2.695031   -3.459262
     54          1           0       -5.115766    3.768408   -2.020380
     55          1           0       -6.880753    5.055866   -3.840893
     56          1           0       -5.791273    4.179688   -4.847471
     57          1           0       -6.903599   -2.027681   -5.739158
     58          1           0       -7.171365   -3.728439   -5.697499
     59          1           0       -5.492078   -3.145484   -5.829700
     60          1           0       -6.146271   -5.680182   -5.301685
     61          1           0       -4.892012   -6.880728   -4.658257
     62          1           0       -4.502955   -5.174040   -5.002904
     63          1           0       -5.961350   -5.541909    1.952209
     64          1           0       -7.602736   -3.952891    3.862408
     65          1           0       -7.842179   -6.786247    2.091835
     66          1           0       -8.698063   -5.472811    1.213720
     67          1           0       -8.706295   -5.491142    2.900898
     68          1           0       -5.590654   -5.322430    4.528892
     69          1           0       -5.640007   -3.698993    5.207024
     70          1           0       -4.017544   -4.890286    3.086855
     71          1           0       -3.464194   -3.836217    4.432006
     72          1           0       -4.267996   -3.157441    2.946115
     73          1           0       -6.429943    2.042621    5.435486
     74          1           0       -6.868406    0.302516    5.572781
     75          1           0       -8.140063    1.497703    5.082906
     76          1           0       -7.970825    4.165512    0.721298
     77          1           0       -5.956621    7.896347   -0.080796
     78          1           0       -5.566156    6.906015   -1.612629
     79          1           0       -4.605338    6.897061   -0.121830
     80         12           0        6.819898   -0.423526    0.255501
     81          6           0        5.401577    2.868646    0.425800
     82          6           0        7.103478    0.035081   -3.112560
     83          6           0        7.650623   -3.475916    0.010007
     84          6           0        5.395705   -1.047601    3.374462
     85          7           0        6.287264    1.275678   -1.056454
     86          6           0        5.811782    2.498052   -0.871824
     87          6           0        5.848542    3.400029   -2.134613
     88          6           0        5.849711    2.247778   -3.253178
     89          6           0        6.484777    1.120257   -2.441972
     90          6           0        4.454751    1.810483   -3.668175
     91          6           0        7.150272    4.273033   -2.207904
     92          6           0        7.112779    5.397712   -3.244936
     93          1           0        7.786463    6.655140   -2.932670
     94          7           0        7.751182   -1.387331   -1.208186
     95          6           0        7.781530   -1.049751   -2.514476
     96          6           0        8.581182   -2.089663   -3.180279
     97          6           0        8.882140   -3.157132   -2.187981
     98          6           0        8.071007   -2.715298   -1.071327
     99          6           0        9.049668   -1.970608   -4.601464
    100          6           0        9.745784   -4.380884   -2.240396
    101          8           0        9.673294   -5.295039   -1.344900
    102          6           0       10.611776   -4.522094   -3.420054
    103          7           0        6.387301   -2.099528    1.407120
    104          6           0        6.918852   -3.298360    1.110148
    105          6           0        6.691317   -4.287935    2.227894
    106          6           0        6.104693   -3.433210    3.445631
    107          6           0        6.006674   -2.052079    2.761330
    108          6           0        5.740027   -5.441754    1.911467
    109          6           0        6.854524   -3.534438    4.802167
    110          6           0        8.222085   -2.900954    4.684479
    111          7           0        5.774006    0.736844    1.748051
    112          6           0        5.241156    0.272365    2.970509
    113          6           0        4.521821    1.404295    3.589959
    114          6           0        4.667712    2.450641    2.666714
    115          6           0        5.407312    1.996719    1.541361
    116          6           0        3.810501    1.363606    4.822229
    117          6           0        4.355132    3.832927    2.383385
    118          8           0        3.826058    4.749998    3.010125
    119          6           0        4.708116    4.129312    0.862220
    120          6           0        5.489588    5.413413    0.808408
    121          8           0        6.620079    5.487276    1.321384
    122          8           0        4.870639    6.271408   -0.022929
    123          6           0        5.613995    7.556002   -0.118007
    124          1           0        7.027629   -0.014530   -4.199151
    125          1           0        8.005846   -4.508886    0.026418
    126          1           0        5.008411   -1.133648    4.391945
    127          1           0        4.983595    4.040068   -2.261022
    128          1           0        6.482965    2.515228   -4.095097
    129          1           0        3.690915    2.264991   -3.054893
    130          1           0        4.438577    0.734196   -3.556865
    131          1           0        4.299735    2.005689   -4.733169
    132          1           0        7.966351    3.665199   -2.619363
    133          1           0        7.392313    4.677788   -1.244464
    134          1           0        6.096434    5.586901   -3.611260
    135          1           0        7.660737    5.070362   -4.131831
    136          1           0        8.535152   -1.157205   -5.127813
    137          1           0        8.726015   -2.878466   -5.121957
    138          1           0       10.135512   -1.885546   -4.681298
    139          1           0        9.999976   -4.523974   -4.319031
    140          1           0       11.216907   -5.411440   -3.233580
    141          1           0       11.262206   -3.642619   -3.483862
    142          1           0        7.623929   -4.744425    2.536062
    143          1           0        5.076632   -3.733429    3.696216
    144          1           0        6.198931   -6.438018    2.056202
    145          1           0        5.391896   -5.327730    0.893460
    146          1           0        4.808906   -5.440554    2.475562
    147          1           0        7.019371   -4.581862    5.066514
    148          1           0        6.319901   -3.074534    5.626572
    149          1           0        8.827825   -3.700792    4.248086
    150          1           0        8.596266   -2.612458    5.664682
    151          1           0        8.210451   -2.069282    3.970451
    152          1           0        4.063355    2.269037    5.357720
    153          1           0        4.063834    0.476124    5.398405
    154          1           0        2.781968    1.333394    4.452807
    155          1           0        3.767125    4.199504    0.315241
    156          1           0        4.910492    8.352365    0.143869
    157          1           0        6.043140    7.578090   -1.137366
    158          1           0        6.407325    7.730270    0.599427
 ---------------------------------------------------------------------

 SCF Done:  E(RCAM-B3LYP) =  -4069.81134061     A.U. after   19 cycles

 Excitation energies and oscillator strengths:

 Excited State   1:      Singlet-A      1.6653 eV  744.51 nm  f=0.0462  <S**2>=0.000
     309 -> 315       -0.11145
     310 -> 316        0.13016
     311 -> 313       -0.44518
     312 -> 314        0.52273
 This state for optimization and/or second-order correction.
 Total Energy, E(TD-HF/TD-DFT) =  -4069.75014145
 Copying the excited state density for this state as the 1-particle RhoCI density.

 Excited State   2:      Singlet-A      1.6898 eV  733.70 nm  f=0.7019  <S**2>=0.000
     309 -> 315        0.13552
     310 -> 316        0.11477
     311 -> 313        0.52152
     312 -> 314        0.44428

 Excited State   3:      Singlet-A      2.1850 eV  567.44 nm  f=0.0324  <S**2>=0.000
     309 -> 313        0.23102
     310 -> 314        0.60017
     312 -> 316       -0.25416

 Excited State   4:      Singlet-A      2.1933 eV  565.29 nm  f=0.1555  <S**2>=0.000
     309 -> 313        0.59769
     310 -> 314       -0.22917
     311 -> 315       -0.26061
     312 -> 316        0.10038

 Excited State   5:      Singlet-A      2.6594 eV  466.22 nm  f=0.0000  <S**2>=0.000
     312 -> 313        0.70707

 The electronic state is 1-A.
 Alpha  occ. eigenvalues --  -46.87776 -46.87533 -19.26194 -19.26194 -19.19007
 Alpha  occ. eigenvalues --  -19.18924 -19.18808 -19.18607 -19.18111 -19.17862
 Alpha  occ. eigenvalues --  -14.42431 -14.42374 -14.41431 -14.41233 -14.39384
 Alpha  occ. eigenvalues --  -14.39226 -14.38560 -14.38463 -10.38990 -10.38935
 Alpha  occ. eigenvalues --  -10.35443 -10.35287 -10.34330 -10.34040 -10.31617
 Alpha  occ. eigenvalues --  -10.31580 -10.31379 -10.31175 -10.30905 -10.30891
 Alpha  occ. eigenvalues --  -10.30542 -10.30483 -10.30262 -10.30220 -10.30197
 Alpha  occ. eigenvalues --  -10.30029 -10.29897 -10.29760 -10.29606 -10.29315
 Alpha  occ. eigenvalues --  -10.29266 -10.29238 -10.28732 -10.28607 -10.28572
 Alpha  occ. eigenvalues --  -10.28536 -10.28339 -10.28270 -10.28101 -10.28033
 Alpha  occ. eigenvalues --  -10.27859 -10.27764 -10.27709 -10.27564 -10.27549
 Alpha  occ. eigenvalues --  -10.27496 -10.27485 -10.27441 -10.27411 -10.27377
 Alpha  occ. eigenvalues --  -10.27374 -10.27351 -10.27337 -10.27264 -10.27102
 Alpha  occ. eigenvalues --  -10.26873 -10.26693 -10.26594 -10.26420 -10.26333
 Alpha  occ. eigenvalues --  -10.26219 -10.26190 -10.26042 -10.26001 -10.25926
 Alpha  occ. eigenvalues --  -10.25809 -10.25792 -10.25658 -10.25427 -10.25289
 Alpha  occ. eigenvalues --  -10.24799 -10.24768 -10.24724 -10.24705 -10.24638
 Alpha  occ. eigenvalues --  -10.24562  -3.16519  -3.16283  -1.91401  -1.91165
 Alpha  occ. eigenvalues --   -1.90987  -1.90829  -1.90754  -1.90591  -1.16542
 Alpha  occ. eigenvalues --   -1.16488  -1.08563  -1.08464  -1.07210  -1.06861
 Alpha  occ. eigenvalues --   -1.06790  -1.06548  -1.04560  -1.04369  -1.03742
 Alpha  occ. eigenvalues --   -1.03536  -1.03211  -1.02910  -1.02389  -1.01980
 Alpha  occ. eigenvalues --   -0.91938  -0.91843  -0.89506  -0.89373  -0.89171
 Alpha  occ. eigenvalues --   -0.89041  -0.88275  -0.88105  -0.87835  -0.87655
 Alpha  occ. eigenvalues --   -0.87638  -0.87561  -0.87263  -0.87007  -0.84965
 Alpha  occ. eigenvalues --   -0.84886  -0.83923  -0.83760  -0.82964  -0.82828
 Alpha  occ. eigenvalues --   -0.82627  -0.82539  -0.81536  -0.81456  -0.80564
 Alpha  occ. eigenvalues --   -0.80312  -0.78779  -0.78509  -0.77202  -0.77027
 Alpha  occ. eigenvalues --   -0.76908  -0.76778  -0.75890  -0.75712  -0.74879
 Alpha  occ. eigenvalues --   -0.74683  -0.72750  -0.72565  -0.71649  -0.71456
 Alpha  occ. eigenvalues --   -0.69903  -0.69650  -0.68855  -0.68711  -0.67616
 Alpha  occ. eigenvalues --   -0.67472  -0.67207  -0.67093  -0.65264  -0.65150
 Alpha  occ. eigenvalues --   -0.64823  -0.64642  -0.64593  -0.64528  -0.64254
 Alpha  occ. eigenvalues --   -0.64085  -0.62240  -0.62138  -0.60430  -0.60222
 Alpha  occ. eigenvalues --   -0.59784  -0.59676  -0.58962  -0.58862  -0.58475
 Alpha  occ. eigenvalues --   -0.58291  -0.57530  -0.57393  -0.57281  -0.57108
 Alpha  occ. eigenvalues --   -0.56283  -0.56071  -0.55921  -0.55752  -0.55500
 Alpha  occ. eigenvalues --   -0.55327  -0.55309  -0.55119  -0.54481  -0.54359
 Alpha  occ. eigenvalues --   -0.53876  -0.53801  -0.53279  -0.53200  -0.53103
 Alpha  occ. eigenvalues --   -0.53019  -0.52875  -0.52776  -0.52746  -0.52566
 Alpha  occ. eigenvalues --   -0.52431  -0.52293  -0.51871  -0.51711  -0.51596
 Alpha  occ. eigenvalues --   -0.51546  -0.51163  -0.51060  -0.50574  -0.50377
 Alpha  occ. eigenvalues --   -0.50025  -0.49907  -0.49870  -0.49754  -0.49496
 Alpha  occ. eigenvalues --   -0.49374  -0.49182  -0.49072  -0.49071  -0.48970
 Alpha  occ. eigenvalues --   -0.48553  -0.48448  -0.48424  -0.48413  -0.48252
 Alpha  occ. eigenvalues --   -0.48214  -0.47675  -0.47477  -0.47276  -0.47002
 Alpha  occ. eigenvalues --   -0.46778  -0.46588  -0.46536  -0.46444  -0.46335
 Alpha  occ. eigenvalues --   -0.46145  -0.46128  -0.45948  -0.45773  -0.45673
 Alpha  occ. eigenvalues --   -0.45187  -0.45090  -0.44536  -0.44498  -0.44387
 Alpha  occ. eigenvalues --   -0.44350  -0.44129  -0.44072  -0.44002  -0.43984
 Alpha  occ. eigenvalues --   -0.43959  -0.43809  -0.43446  -0.43420  -0.43369
 Alpha  occ. eigenvalues --   -0.43260  -0.42999  -0.42794  -0.42753  -0.42672
 Alpha  occ. eigenvalues --   -0.42597  -0.42441  -0.41993  -0.41850  -0.41673
 Alpha  occ. eigenvalues --   -0.41522  -0.41518  -0.41347  -0.41119  -0.40867
 Alpha  occ. eigenvalues --   -0.40857  -0.40818  -0.40618  -0.40592  -0.40557
 Alpha  occ. eigenvalues --   -0.40377  -0.40225  -0.40127  -0.39442  -0.39320
 Alpha  occ. eigenvalues --   -0.38459  -0.38239  -0.37733  -0.37547  -0.37306
 Alpha  occ. eigenvalues --   -0.37243  -0.37148  -0.37079  -0.36651  -0.36628
 Alpha  occ. eigenvalues --   -0.36150  -0.36092  -0.34262  -0.34122  -0.33713
 Alpha  occ. eigenvalues --   -0.33688  -0.33157  -0.33045  -0.31338  -0.31166
 Alpha  occ. eigenvalues --   -0.31012  -0.30845  -0.29968  -0.29765  -0.29429
 Alpha  occ. eigenvalues --   -0.29289  -0.29199  -0.29060  -0.24057  -0.23905
 Alpha  occ. eigenvalues --   -0.21106  -0.20988
 Alpha virt. eigenvalues --   -0.08751  -0.08659  -0.01732  -0.01560  -0.00040
 Alpha virt. eigenvalues --    0.00094   0.02239   0.02366   0.03138   0.03340
 Alpha virt. eigenvalues --    0.04735   0.04846   0.05180   0.05322   0.06193

 Mulliken charges:
               1
     1  Mg   0.838649
     2  C   -0.002762
     3  C   -0.094341
     4  C   -0.045943
     5  C   -0.064029
     6  N   -0.256731
     7  C   -0.052485
     8  C   -0.013935
     9  C   -0.086948
    10  C    0.046187
    11  C    0.104841
    12  C    0.053549
    13  C   -0.071621
    14  H    0.036006
    15  N   -0.433088
    16  C    0.168232
    17  C   -0.177413
    18  C   -0.004179
    19  C    0.148590
    20  C    0.110262
    21  C    0.012139
    22  O   -0.249753
    23  C    0.062571
    24  N   -0.341111
    25  C    0.041105
    26  C   -0.028111
    27  C   -0.023988
    28  C    0.074837
    29  C    0.076190
    30  C    0.035156
    31  C   -0.004435
    32  N   -0.310624
    33  C    0.080589
    34  C   -0.169377
    35  C    0.008729
    36  C    0.083206
    37  C    0.127150
    38  C    0.046713
    39  O   -0.187473
    40  C   -0.005567
    41  C    0.212990
    42  O   -0.256206
    43  O   -0.305089
    44  C    0.157312
    45  H   -0.017812
    46  H   -0.016995
    47  H   -0.041421
    48  H    0.001095
    49  H   -0.004358
    50  H    0.025569
    51  H    0.016429
    52  H    0.016492
    53  H    0.010695
    54  H    0.044564
    55  H    0.017999
    56  H    0.017430
    57  H    0.005682
    58  H    0.026723
    59  H    0.038987
    60  H    0.037309
    61  H    0.035531
    62  H    0.031133
    63  H    0.016342
    64  H    0.009536
    65  H    0.023099
    66  H    0.012580
    67  H    0.004749
    68  H    0.006233
    69  H    0.004848
    70  H    0.008583
    71  H    0.017634
    72  H    0.029218
    73  H    0.048417
    74  H    0.009010
    75  H    0.046023
    76  H    0.035074
    77  H    0.043158
    78  H    0.045779
    79  H    0.054871
    80  Mg   0.837656
    81  C   -0.016634
    82  C   -0.087971
    83  C   -0.045626
    84  C   -0.064835
    85  N   -0.254470
    86  C   -0.049675
    87  C   -0.015068
    88  C   -0.090548
    89  C    0.045663
    90  C    0.114346
    91  C    0.062611
    92  C   -0.077626
    93  H    0.034664
    94  N   -0.423395
    95  C    0.162687
    96  C   -0.175018
    97  C   -0.008060
    98  C    0.151935
    99  C    0.099544
   100  C    0.015331
   101  O   -0.253487
   102  C    0.061303
   103  N   -0.350014
   104  C    0.037398
   105  C   -0.019757
   106  C   -0.034807
   107  C    0.089102
   108  C    0.073713
   109  C    0.034748
   110  C   -0.007618
   111  N   -0.324311
   112  C    0.078684
   113  C   -0.162792
   114  C    0.003081
   115  C    0.096055
   116  C    0.131380
   117  C    0.043467
   118  O   -0.186073
   119  C    0.000518
   120  C    0.211267
   121  O   -0.251405
   122  O   -0.305283
   123  C    0.152126
   124  H   -0.020303
   125  H   -0.015857
   126  H   -0.040400
   127  H   -0.000333
   128  H   -0.004814
   129  H    0.023320
   130  H    0.014243
   131  H    0.015285
   132  H    0.013745
   133  H    0.037788
   134  H    0.020623
   135  H    0.019203
   136  H    0.008348
   137  H    0.025612
   138  H    0.039413
   139  H    0.037991
   140  H    0.036077
   141  H    0.033752
   142  H    0.014149
   143  H    0.012425
   144  H    0.024844
   145  H    0.011730
   146  H    0.005656
   147  H    0.006006
   148  H    0.003618
   149  H    0.010796
   150  H    0.017776
   151  H    0.030240
   152  H    0.046232
   153  H    0.007903
   154  H    0.048953
   155  H    0.036702
   156  H    0.044147
   157  H    0.048922
   158  H    0.053402
 Sum of Mulliken charges =  -0.00000

 Dipole moment (field-independent basis, Debye):
    X=             -2.0250    Y=             -1.9852    Z=             -8.1078  Tot=              8.5894
 Quadrupole moment (field-independent basis, Debye-Ang):
   XX=           -496.9906   YY=           -541.2892   ZZ=           -457.2019
   XY=             10.5348   XZ=             -4.7864   YZ=            -54.6740

 Normal termination of Gaussian 16 at Sat Sep 11 14:12:56 2021.
