 Gaussian 16, Revision A.03,
 Gaussian 16:  ES64L-G16RevA.03 25-Dec-2016

 -----------------------------------
 #p cam-b3lyp/Def2SVP td=(nstates=5)
 -----------------------------------

 --------------------------------
 TDDFT excited states in gaussian
 --------------------------------
 Symbolic Z-matrix:
 Charge =  0 Multiplicity = 1

                         Standard orientation:
 ---------------------------------------------------------------------
 Center     Atomic      Atomic             Coordinates (Angstroms)
 Number     Number       Type             X           Y           Z
 ---------------------------------------------------------------------
      1         12           0        6.382348    0.674086    0.018419
      2          6           0        6.743810   -2.600342   -1.381467
      3          6           0        7.284438    1.914645   -3.029582
      4          6           0        6.512120    3.549942    1.348544
      5          6           0        6.624529   -0.805025    3.164724
      6          7           0        6.919724   -0.317901   -1.886269
      7          6           0        6.961654   -1.577975   -2.307726
      8          6           0        7.184511   -1.708446   -3.844179
      9          6           0        7.891132   -0.305325   -4.116092
     10          6           0        7.303987    0.489776   -2.963269
     11          6           0        9.408018   -0.347021   -3.961760
     12          6           0        5.837060   -1.833487   -4.631878
     13          6           0        5.971164   -2.289372   -6.087742
     14          1           0        4.940791   -3.149331   -6.650014
     15          7           0        6.353514    2.469316   -0.805697
     16          6           0        6.741299    2.789246   -2.063693
     17          6           0        6.529091    4.246562   -2.197403
     18          6           0        6.165690    4.778553   -0.854637
     19          6           0        6.357288    3.609843   -0.034404
     20          6           0        6.627218    4.976069   -3.501987
     21          6           0        5.727054    6.129051   -0.383588
     22          8           0        5.686038    6.436586    0.856700
     23          6           0        5.427359    7.124106   -1.429097
     24          7           0        6.764364    1.322090    1.965671
     25          6           0        6.701716    2.619165    2.286070
     26          6           0        6.730009    2.816335    3.772765
     27          6           0        6.579851    1.361911    4.414526
     28          6           0        6.573077    0.527790    3.109740
     29          6           0        7.987373    3.494510    4.334128
     30          6           0        5.425811    1.156027    5.427553
     31          6           0        4.094736    1.260827    4.717374
     32          7           0        6.460863   -1.351006    0.795519
     33          6           0        6.583926   -1.734429    2.138842
     34          6           0        6.703818   -3.203874    2.159416
     35          6           0        6.658531   -3.574264    0.816805
     36          6           0        6.545579   -2.407983    0.007285
     37          6           0        6.892166   -4.008503    3.317662
     38          6           0        6.704070   -4.682205   -0.123540
     39          8           0        6.698992   -5.909567   -0.018425
     40          6           0        6.883739   -4.087795   -1.589904
     41          6           0        5.883183   -4.769929   -2.482592
     42          8           0        4.658693   -4.582293   -2.331652
     43          8           0        6.524254   -5.341545   -3.513525
     44          6           0        5.586051   -6.010874   -4.453701
     45          1           0        7.780875    2.410982   -3.865729
     46          1           0        6.450963    4.514888    1.856065
     47          1           0        6.618452   -1.342557    4.114712
     48          1           0        7.846795   -2.522304   -4.139877
     49          1           0        7.585277    0.126489   -5.068831
     50          1           0        9.741771   -1.305116   -3.563533
     51          1           0        9.652410    0.458920   -3.269500
     52          1           0        9.900059   -0.094456   -4.901379
     53          1           0        5.417619   -0.839414   -4.786636
     54          1           0        5.144666   -2.494513   -4.109421
     55          1           0        6.961636   -2.699252   -6.287424
     56          1           0        5.907847   -1.409679   -6.728313
     57          1           0        7.070906    4.352513   -4.277141
     58          1           0        7.343533    5.785256   -3.361206
     59          1           0        5.667123    5.385564   -3.816412
     60          1           0        6.313672    7.276749   -2.045295
     61          1           0        5.044130    8.001062   -0.908585
     62          1           0        4.659849    6.721087   -2.090499
     63          1           0        5.898571    3.438980    4.100559
     64          1           0        7.472716    1.063280    4.964330
     65          1           0        7.778642    4.398438    4.906885
     66          1           0        8.657026    3.705452    3.500845
     67          1           0        8.611882    2.855154    4.957530
     68          1           0        5.445634    1.935506    6.188451
     69          1           0        5.467453    0.193542    5.937591
     70          1           0        3.917394    2.335364    4.689954
     71          1           0        3.317804    0.751352    5.288357
     72          1           0        4.165741    0.915859    3.685656
     73          1           0        6.228425   -4.865644    3.204848
     74          1           0        6.668780   -3.451542    4.227330
     75          1           0        7.950868   -4.250399    3.225512
     76          1           0        7.909957   -4.297822   -1.889715
     77          1           0        5.908326   -7.048234   -4.544561
     78          1           0        5.570258   -5.404747   -5.359662
     79          1           0        4.562742   -6.143456   -4.100713
     80         12           0       -6.823802    0.173412   -0.300054
     81          6           0       -5.411160   -1.241281    2.680244
     82          6           0       -6.201468    3.246492    1.042889
     83          6           0       -8.463659    1.444691   -2.700494
     84          6           0       -8.342603   -2.909763   -0.877053
     85          7           0       -5.918485    0.793100    1.620535
     86          6           0       -5.362268    0.167957    2.647266
     87          6           0       -4.646421    1.103069    3.658547
     88          6           0       -5.451233    2.456986    3.345406
     89          6           0       -5.856888    2.171668    1.900854
     90          6           0       -6.715168    2.611330    4.174848
     91          6           0       -3.116305    1.259535    3.348252
     92          6           0       -2.296017    1.905479    4.467011
     93          1           0       -0.928766    1.441027    4.684734
     94          7           0       -6.843312    2.029975   -1.001019
     95          6           0       -6.540627    3.158179   -0.325138
     96          6           0       -6.728206    4.261661   -1.279764
     97          6           0       -7.324757    3.707820   -2.525600
     98          6           0       -7.592149    2.346372   -2.107210
     99          6           0       -6.280146    5.666387   -0.997994
    100          6           0       -7.619128    4.308114   -3.866943
    101          8           0       -8.358051    3.708393   -4.725515
    102          6           0       -7.093928    5.659644   -4.109862
    103          7           0       -8.370599   -0.546310   -1.488227
    104          6           0       -8.868060    0.190793   -2.496763
    105          6           0       -9.774467   -0.633635   -3.379449
    106          6           0       -9.590603   -2.145405   -2.891275
    107          6           0       -8.635486   -1.912300   -1.700138
    108          6           0      -11.256984   -0.263411   -3.340939
    109          6           0       -9.187277   -3.188825   -3.968902
    110          6           0       -7.784690   -2.909099   -4.458705
    111          7           0       -6.741005   -1.792498    0.592359
    112          6           0       -7.478597   -2.934444    0.210267
    113          6           0       -7.167731   -3.999858    1.185297
    114          6           0       -6.281597   -3.392064    2.087440
    115          6           0       -6.071867   -2.037212    1.713438
    116          6           0       -7.720323   -5.311630    1.188525
    117          6           0       -5.484227   -3.585497    3.277182
    118          8           0       -5.198986   -4.551114    3.984248
    119          6           0       -4.983882   -2.165443    3.786582
    120          6           0       -3.512961   -2.270196    4.083146
    121          8           0       -2.697369   -2.482597    3.168649
    122          8           0       -3.291459   -1.888437    5.354203
    123          6           0       -1.845200   -1.964598    5.692371
    124          1           0       -6.259117    4.249886    1.465701
    125          1           0       -8.970522    1.801164   -3.600214
    126          1           0       -8.699608   -3.928283   -1.043910
    127          1           0       -4.771934    0.828082    4.698933
    128          1           0       -4.798474    3.324699    3.393852
    129          1           0       -6.926751    1.725682    4.755366
    130          1           0       -7.511204    2.798190    3.466015
    131          1           0       -6.649955    3.507830    4.798049
    132          1           0       -2.985878    2.012847    2.560677
    133          1           0       -2.683111    0.315153    3.081606
    134          1           0       -2.846252    1.938472    5.415214
    135          1           0       -2.132642    2.956160    4.215239
    136          1           0       -6.027856    5.803399    0.060770
    137          1           0       -7.147253    6.316549   -1.156936
    138          1           0       -5.470449    5.990126   -1.655460
    139          1           0       -7.490213    6.341107   -3.360832
    140          1           0       -7.329614    5.881730   -5.152453
    141          1           0       -6.006634    5.641875   -3.975335
    142          1           0       -9.474270   -0.560586   -4.417542
    143          1           0      -10.521693   -2.554328   -2.472126
    144          1           0      -11.669581   -0.010078   -4.335764
    145          1           0      -11.384671    0.563132   -2.654604
    146          1           0      -11.911343   -1.021484   -2.913932
    147          1           0       -9.842323   -3.106461   -4.839698
    148          1           0       -9.243455   -4.214378   -3.619505
    149          1           0       -7.937472   -2.133002   -5.214635
    150          1           0       -7.345675   -3.804058   -4.894988
    151          1           0       -7.168543   -2.476459   -3.661945
    152          1           0       -6.904007   -5.992858    1.388690
    153          1           0       -8.207163   -5.540285    0.242756
    154          1           0       -8.438207   -5.218836    2.007849
    155          1           0       -5.563731   -1.913231    4.675250
    156          1           0       -1.757178   -2.602278    6.577410
    157          1           0       -1.505858   -0.916337    5.791037
    158          1           0       -1.193938   -2.479022    4.995453
 ---------------------------------------------------------------------

 SCF Done:  E(RCAM-B3LYP) =  -4069.81129310     A.U. after   19 cycles

 Excitation energies and oscillator strengths:

 Excited State   1:      Singlet-A      1.6650 eV  744.63 nm  f=0.0090  <S**2>=0.000
     309 -> 315       -0.11052
     310 -> 316        0.13041
     311 -> 313       -0.44288
     312 -> 314        0.52474
 This state for optimization and/or second-order correction.
 Total Energy, E(TD-HF/TD-DFT) =  -4069.75010418
 Copying the excited state density for this state as the 1-particle RhoCI density.

 Excited State   2:      Singlet-A      1.6896 eV  733.82 nm  f=0.7336  <S**2>=0.000
     309 -> 315        0.13572
     310 -> 316        0.11410
     311 -> 313        0.52348
     312 -> 314        0.44194

 Excited State   3:      Singlet-A      2.1845 eV  567.56 nm  f=0.0554  <S**2>=0.000
     309 -> 313        0.20904
     310 -> 314        0.60814
     312 -> 316       -0.25716

 Excited State   4:      Singlet-A      2.1922 eV  565.58 nm  f=0.1376  <S**2>=0.000
     309 -> 313        0.60582
     310 -> 314       -0.20755
     311 -> 315       -0.26327

 Excited State   5:      Singlet-A      2.6965 eV  459.80 nm  f=0.0000  <S**2>=0.000
     312 -> 313        0.70702

 The electronic state is 1-A.
 Alpha  occ. eigenvalues --  -46.87735 -46.87554 -19.26198 -19.26128 -19.18986
 Alpha  occ. eigenvalues --  -19.18852 -19.18809 -19.18642 -19.18066 -19.17924
 Alpha  occ. eigenvalues --  -14.42392 -14.42387 -14.41401 -14.41257 -14.39347
 Alpha  occ. eigenvalues --  -14.39250 -14.38516 -14.38489 -10.38924 -10.38921
 Alpha  occ. eigenvalues --  -10.35446 -10.35322 -10.34284 -10.34100 -10.31618
 Alpha  occ. eigenvalues --  -10.31515 -10.31329 -10.31196 -10.30920 -10.30845
 Alpha  occ. eigenvalues --  -10.30499 -10.30451 -10.30293 -10.30249 -10.30180
 Alpha  occ. eigenvalues --  -10.30051 -10.29873 -10.29792 -10.29573 -10.29340
 Alpha  occ. eigenvalues --  -10.29297 -10.29206 -10.28662 -10.28605 -10.28526
 Alpha  occ. eigenvalues --  -10.28424 -10.28298 -10.28297 -10.28038 -10.28032
 Alpha  occ. eigenvalues --  -10.27895 -10.27727 -10.27667 -10.27566 -10.27534
 Alpha  occ. eigenvalues --  -10.27511 -10.27454 -10.27450 -10.27434 -10.27387
 Alpha  occ. eigenvalues --  -10.27376 -10.27367 -10.27334 -10.27294 -10.27050
 Alpha  occ. eigenvalues --  -10.26922 -10.26594 -10.26558 -10.26437 -10.26371
 Alpha  occ. eigenvalues --  -10.26239 -10.26164 -10.26054 -10.25975 -10.25930
 Alpha  occ. eigenvalues --  -10.25833 -10.25756 -10.25733 -10.25443 -10.25329
 Alpha  occ. eigenvalues --  -10.24778 -10.24763 -10.24758 -10.24742 -10.24640
 Alpha  occ. eigenvalues --  -10.24590  -3.16477  -3.16304  -1.91359  -1.91186
 Alpha  occ. eigenvalues --   -1.90946  -1.90788  -1.90775  -1.90612  -1.16488
 Alpha  occ. eigenvalues --   -1.16475  -1.08526  -1.08516  -1.07214  -1.06897
 Alpha  occ. eigenvalues --   -1.06776  -1.06478  -1.04516  -1.04389  -1.03710
 Alpha  occ. eigenvalues --   -1.03560  -1.03176  -1.02936  -1.02353  -1.02007
 Alpha  occ. eigenvalues --   -0.91895  -0.91873  -0.89502  -0.89397  -0.89107
 Alpha  occ. eigenvalues --   -0.89040  -0.88271  -0.88129  -0.87796  -0.87682
 Alpha  occ. eigenvalues --   -0.87611  -0.87578  -0.87239  -0.87034  -0.84910
 Alpha  occ. eigenvalues --   -0.84890  -0.83931  -0.83783  -0.82961  -0.82857
 Alpha  occ. eigenvalues --   -0.82586  -0.82551  -0.81488  -0.81476  -0.80525
 Alpha  occ. eigenvalues --   -0.80333  -0.78748  -0.78539  -0.77174  -0.77042
 Alpha  occ. eigenvalues --   -0.76861  -0.76789  -0.75841  -0.75728  -0.74869
 Alpha  occ. eigenvalues --   -0.74709  -0.72717  -0.72595  -0.71615  -0.71479
 Alpha  occ. eigenvalues --   -0.69921  -0.69668  -0.68807  -0.68721  -0.67584
 Alpha  occ. eigenvalues --   -0.67498  -0.67148  -0.67093  -0.65209  -0.65158
 Alpha  occ. eigenvalues --   -0.64788  -0.64663  -0.64557  -0.64542  -0.64242
 Alpha  occ. eigenvalues --   -0.64107  -0.62194  -0.62153  -0.60410  -0.60250
 Alpha  occ. eigenvalues --   -0.59730  -0.59687  -0.58929  -0.58887  -0.58442
 Alpha  occ. eigenvalues --   -0.58317  -0.57485  -0.57424  -0.57256  -0.57136
 Alpha  occ. eigenvalues --   -0.56249  -0.56100  -0.55864  -0.55763  -0.55474
 Alpha  occ. eigenvalues --   -0.55352  -0.55297  -0.55142  -0.54455  -0.54374
 Alpha  occ. eigenvalues --   -0.53814  -0.53800  -0.53257  -0.53158  -0.53131
 Alpha  occ. eigenvalues --   -0.53035  -0.52841  -0.52783  -0.52718  -0.52585
 Alpha  occ. eigenvalues --   -0.52449  -0.52309  -0.51832  -0.51768  -0.51552
 Alpha  occ. eigenvalues --   -0.51542  -0.51130  -0.51090  -0.50561  -0.50401
 Alpha  occ. eigenvalues --   -0.50030  -0.49885  -0.49883  -0.49780  -0.49455
 Alpha  occ. eigenvalues --   -0.49393  -0.49144  -0.49092  -0.49020  -0.48995
 Alpha  occ. eigenvalues --   -0.48514  -0.48442  -0.48437  -0.48387  -0.48283
 Alpha  occ. eigenvalues --   -0.48247  -0.47644  -0.47494  -0.47247  -0.47024
 Alpha  occ. eigenvalues --   -0.46750  -0.46605  -0.46477  -0.46445  -0.46309
 Alpha  occ. eigenvalues --   -0.46169  -0.46096  -0.45977  -0.45728  -0.45703
 Alpha  occ. eigenvalues --   -0.45182  -0.45117  -0.44497  -0.44477  -0.44403
 Alpha  occ. eigenvalues --   -0.44372  -0.44118  -0.44024  -0.44022  -0.43981
 Alpha  occ. eigenvalues --   -0.43944  -0.43840  -0.43434  -0.43404  -0.43333
 Alpha  occ. eigenvalues --   -0.43278  -0.42966  -0.42814  -0.42774  -0.42681
 Alpha  occ. eigenvalues --   -0.42543  -0.42462  -0.41975  -0.41861  -0.41637
 Alpha  occ. eigenvalues --   -0.41557  -0.41464  -0.41352  -0.41083  -0.40887
 Alpha  occ. eigenvalues --   -0.40825  -0.40802  -0.40635  -0.40599  -0.40542
 Alpha  occ. eigenvalues --   -0.40397  -0.40147  -0.40114  -0.39468  -0.39336
 Alpha  occ. eigenvalues --   -0.38449  -0.38257  -0.37664  -0.37537  -0.37290
 Alpha  occ. eigenvalues --   -0.37182  -0.37167  -0.37088  -0.36629  -0.36609
 Alpha  occ. eigenvalues --   -0.36108  -0.36102  -0.34223  -0.34145  -0.33697
 Alpha  occ. eigenvalues --   -0.33623  -0.33119  -0.33067  -0.31339  -0.31200
 Alpha  occ. eigenvalues --   -0.30976  -0.30868  -0.29922  -0.29827  -0.29398
 Alpha  occ. eigenvalues --   -0.29247  -0.29229  -0.29100  -0.24019  -0.23930
 Alpha  occ. eigenvalues --   -0.21071  -0.21014
 Alpha virt. eigenvalues --   -0.08717  -0.08689  -0.01702  -0.01584  -0.00013
 Alpha virt. eigenvalues --    0.00065   0.02275   0.02320   0.03213   0.03356
 Alpha virt. eigenvalues --    0.04784   0.04820   0.05246   0.05323   0.06206

 Mulliken charges:
               1
     1  Mg   0.839526
     2  C   -0.002377
     3  C   -0.093959
     4  C   -0.046288
     5  C   -0.064242
     6  N   -0.256686
     7  C   -0.052193
     8  C   -0.014065
     9  C   -0.087004
    10  C    0.046271
    11  C    0.104859
    12  C    0.053440
    13  C   -0.071888
    14  H    0.036750
    15  N   -0.432998
    16  C    0.168233
    17  C   -0.177309
    18  C   -0.004446
    19  C    0.148610
    20  C    0.110224
    21  C    0.011776
    22  O   -0.250491
    23  C    0.062683
    24  N   -0.341101
    25  C    0.041105
    26  C   -0.028027
    27  C   -0.023960
    28  C    0.074906
    29  C    0.076257
    30  C    0.035282
    31  C   -0.004286
    32  N   -0.310735
    33  C    0.081024
    34  C   -0.169017
    35  C    0.008856
    36  C    0.083737
    37  C    0.127098
    38  C    0.047034
    39  O   -0.187499
    40  C   -0.005679
    41  C    0.212787
    42  O   -0.255562
    43  O   -0.305172
    44  C    0.157466
    45  H   -0.017754
    46  H   -0.017543
    47  H   -0.041743
    48  H    0.001024
    49  H   -0.004054
    50  H    0.025477
    51  H    0.016227
    52  H    0.016534
    53  H    0.011192
    54  H    0.044971
    55  H    0.017654
    56  H    0.017710
    57  H    0.005974
    58  H    0.026501
    59  H    0.039079
    60  H    0.037536
    61  H    0.034737
    62  H    0.031133
    63  H    0.015696
    64  H    0.009535
    65  H    0.022685
    66  H    0.012748
    67  H    0.004699
    68  H    0.005806
    69  H    0.004724
    70  H    0.008090
    71  H    0.015718
    72  H    0.030679
    73  H    0.048787
    74  H    0.008693
    75  H    0.045909
    76  H    0.034994
    77  H    0.042870
    78  H    0.046094
    79  H    0.054659
    80  Mg   0.838298
    81  C   -0.016436
    82  C   -0.087722
    83  C   -0.045697
    84  C   -0.064975
    85  N   -0.254542
    86  C   -0.049667
    87  C   -0.015149
    88  C   -0.090543
    89  C    0.045742
    90  C    0.114429
    91  C    0.062418
    92  C   -0.077992
    93  H    0.035119
    94  N   -0.423404
    95  C    0.162786
    96  C   -0.174837
    97  C   -0.008100
    98  C    0.152077
    99  C    0.099455
   100  C    0.015312
   101  O   -0.253542
   102  C    0.061336
   103  N   -0.350103
   104  C    0.037457
   105  C   -0.019720
   106  C   -0.034833
   107  C    0.089034
   108  C    0.073767
   109  C    0.034763
   110  C   -0.007656
   111  N   -0.324257
   112  C    0.078811
   113  C   -0.162735
   114  C    0.002460
   115  C    0.096686
   116  C    0.131340
   117  C    0.043049
   118  O   -0.187295
   119  C    0.000649
   120  C    0.211160
   121  O   -0.249327
   122  O   -0.306044
   123  C    0.151766
   124  H   -0.019834
   125  H   -0.015928
   126  H   -0.040458
   127  H   -0.000820
   128  H   -0.004212
   129  H    0.022321
   130  H    0.014251
   131  H    0.016092
   132  H    0.014164
   133  H    0.038460
   134  H    0.020227
   135  H    0.019961
   136  H    0.008865
   137  H    0.025806
   138  H    0.039344
   139  H    0.038214
   140  H    0.035882
   141  H    0.033561
   142  H    0.014171
   143  H    0.012265
   144  H    0.024833
   145  H    0.011547
   146  H    0.005510
   147  H    0.005936
   148  H    0.003737
   149  H    0.010571
   150  H    0.018072
   151  H    0.030554
   152  H    0.046740
   153  H    0.008467
   154  H    0.046697
   155  H    0.034696
   156  H    0.043426
   157  H    0.048563
   158  H    0.055001
 Sum of Mulliken charges =  -0.00000

 Dipole moment (field-independent basis, Debye):
    X=              1.3326    Y=              6.8982    Z=             -2.0209  Tot=              7.3106
 Quadrupole moment (field-independent basis, Debye-Ang):
   XX=           -476.6346   YY=           -533.0151   ZZ=           -471.3945
   XY=             12.0200   XZ=            -24.1999   YZ=             21.2252

 Normal termination of Gaussian 16 at Sat Sep 11 08:39:46 2021.
