 Gaussian 16, Revision A.03,
 Gaussian 16:  ES64L-G16RevA.03 25-Dec-2016

 -----------------------------------
 #p cam-b3lyp/Def2SVP td=(nstates=5)
 -----------------------------------

 --------------------------------
 TDDFT excited states in gaussian
 --------------------------------
 Symbolic Z-matrix:
 Charge =  0 Multiplicity = 1

                         Standard orientation:
 ---------------------------------------------------------------------
 Center     Atomic      Atomic             Coordinates (Angstroms)
 Number     Number       Type             X           Y           Z
 ---------------------------------------------------------------------
      1         12           0        7.781777   -0.638920    0.284965
      2          6           0        8.157106    2.743412   -0.824618
      3          6           0        8.763388    0.422972    3.375578
      4          6           0        7.896843   -3.680791    1.174012
      5          6           0        7.940349   -1.598747   -3.061563
      6          7           0        8.358431    1.355361    1.053703
      7          6           0        8.402939    2.580884    0.540591
      8          6           0        8.661493    3.687773    1.606106
      9          6           0        9.382642    2.802485    2.718854
     10          6           0        8.772951    1.451799    2.387420
     11          6           0       10.895158    2.715300    2.542228
     12          6           0        7.332439    4.315414    2.145931
     13          6           0        7.498432    5.615243    2.938550
     14          1           0        6.476666    6.644242    2.818114
     15          7           0        7.783135   -1.447740    2.087368
     16          6           0        8.202603   -0.865034    3.236188
     17          6           0        8.002232   -1.871773    4.300617
     18          6           0        7.610149   -3.151895    3.648196
     19          6           0        7.775294   -2.814009    2.257534
     20          6           0        8.135652   -1.563502    5.760383
     21          6           0        7.168409   -4.473681    4.192144
     22          8           0        7.099728   -5.520998    3.462086
     23          6           0        6.899533   -4.531364    5.640391
     24          7           0        8.121199   -2.412560   -0.762235
     25          6           0        8.058601   -3.599199   -0.148268
     26          6           0        8.052697   -4.726370   -1.137908
     27          6           0        7.878746   -4.052102   -2.574869
     28          6           0        7.898081   -2.565371   -2.141824
     29          6           0        9.300335   -5.620462   -1.141380
     30          6           0        6.699752   -4.550856   -3.447586
     31          6           0        5.386581   -4.147448   -2.815176
     32          7           0        7.829848    0.373332   -1.634431
     33          6           0        7.918671   -0.223457   -2.900380
     34          6           0        8.029372    0.867905   -3.885642
     35          6           0        8.013839    2.030849   -3.118071
     36          6           0        7.927048    1.686860   -1.738785
     37          6           0        8.185377    0.709283   -5.290966
     38          6           0        8.075189    3.483289   -3.140646
     39          8           0        8.060375    4.338167   -4.027471
     40          6           0        8.293177    3.998822   -1.649830
     41          6           0        7.310125    5.111065   -1.405222
     42          8           0        6.083520    4.884201   -1.368639
     43          8           0        7.972146    6.212683   -1.019596
     44          6           0        7.052633    7.345840   -0.732183
     45          1           0        9.282485    0.594029    4.320681
     46          1           0        7.829327   -4.740555    1.428528
     47          1           0        7.908516   -1.819211   -4.130130
     48          1           0        9.325810    4.487650    1.278535
     49          1           0        9.102080    3.107845    3.726704
     50          1           0       11.213691    3.170763    1.604672
     51          1           0       11.127769    1.650233    2.546410
     52          1           0       11.410883    3.138022    3.404846
     53          1           0        6.922667    3.673595    2.925813
     54          1           0        6.623931    4.476982    1.332765
     55          1           0        8.490938    6.044123    2.797467
     56          1           0        7.455553    5.375262    4.000986
     57          1           0        8.593961   -0.588902    5.923638
     58          1           0        8.853177   -2.273366    6.171431
     59          1           0        7.185736   -1.654090    6.287437
     60          1           0        7.801131   -4.250686    6.185267
     61          1           0        6.509213   -5.529826    5.834232
     62          1           0        6.145603   -3.784073    5.889579
     63          1           0        7.217386   -5.401522   -0.956660
     64          1           0        8.756510   -4.199129   -3.204622
     65          1           0        9.083379   -6.675569   -0.972904
     66          1           0        9.990844   -5.238377   -0.390048
     67          1           0        9.906062   -5.556408   -2.044933
     68          1           0        6.706072   -5.638655   -3.507583
     69          1           0        6.723577   -4.162397   -4.465811
     70          1           0        5.216281   -4.936361   -2.083434
     71          1           0        4.593300   -4.130961   -3.563270
     72          1           0        5.480061   -3.209551   -2.267367
     73          1           0        7.519464    1.436254   -5.755770
     74          1           0        7.943713   -0.306178   -5.604079
     75          1           0        9.244526    0.940166   -5.403893
     76          1           0        9.324978    4.342741   -1.584799
     77          1           0        7.370854    8.182982   -1.353602
     78          1           0        7.061961    7.485933    0.348878
     79          1           0        6.020456    7.224819   -1.062794
     80         12           0       -8.057947    0.240984    0.520690
     81          6           0       -7.326258   -0.898483   -2.802752
     82          6           0       -8.082553   -3.033043    1.477111
     83          6           0       -9.142744    1.179013    3.351023
     84          6           0       -9.090338    3.256036   -0.889747
     85          7           0       -7.731843   -1.632811   -0.608372
     86          6           0       -7.400153   -1.939152   -1.853554
     87          6           0       -7.054091   -3.435721   -2.077347
     88          6           0       -7.873537   -4.058922   -0.844869
     89          6           0       -7.870395   -2.849162    0.087412
     90          6           0       -9.315545   -4.393333   -1.188561
     91          6           0       -5.516428   -3.719628   -1.946983
     92          6           0       -5.070602   -5.092517   -2.455090
     93          1           0       -3.767063   -5.205014   -3.103623
     94          7           0       -8.068843   -0.699863    2.268043
     95          6           0       -8.052940   -2.033475    2.474272
     96          6           0       -8.091984   -2.215410    3.933567
     97          6           0       -8.298527   -0.884605    4.566831
     98          6           0       -8.537404   -0.068508    3.393371
     99          6           0       -7.861246   -3.543330    4.594478
    100          6           0       -8.295807   -0.425196    5.993408
    101          8           0       -8.733723    0.731695    6.329080
    102          6           0       -7.852453   -1.404238    6.996593
    103          7           0       -9.178766    1.883558    1.127361
    104          6           0       -9.468792    2.081293    2.425326
    105          6           0      -10.041200    3.460116    2.652459
    106          6           0       -9.849592    4.238167    1.268440
    107          6           0       -9.254481    3.095825    0.416218
    108          6           0      -11.512242    3.510093    3.064654
    109          6           0       -9.091361    5.592769    1.321703
    110          6           0       -7.642126    5.359164    1.682998
    111          7           0       -8.024795    1.128893   -1.448720
    112          6           0       -8.532870    2.391987   -1.823577
    113          6           0       -8.383813    2.503754   -3.289083
    114          6           0       -7.816002    1.278938   -3.671069
    115          6           0       -7.643313    0.453645   -2.527141
    116          6           0       -8.796222    3.609229   -4.085300
    117          6           0       -7.333256    0.492385   -4.783272
    118          8           0       -7.149871    0.703088   -5.981486
    119          6           0       -7.111502   -1.001348   -4.287311
    120          6           0       -5.761225   -1.455440   -4.770103
    121          8           0       -4.723893   -0.918927   -4.342676
    122          8           0       -5.906362   -2.585317   -5.486134
    123          6           0       -4.593037   -3.080845   -5.977496
    124          1           0       -8.337720   -4.030716    1.835456
    125          1           0       -9.434556    1.594573    4.318304
    126          1           0       -9.298093    4.203074   -1.392371
    127          1           0       -7.414348   -3.850565   -3.011102
    128          1           0       -7.337088   -4.889509   -0.393533
    129          1           0       -9.585624   -4.045998   -2.174746
    130          1           0       -9.918749   -3.902330   -0.436150
    131          1           0       -9.493602   -5.465426   -1.065135
    132          1           0       -5.259656   -3.820024   -0.884567
    133          1           0       -4.944843   -2.951970   -2.431361
    134          1           0       -5.844583   -5.579036   -3.061054
    135          1           0       -4.945716   -5.756572   -1.596344
    136          1           0       -7.900285   -4.365673    3.869467
    137          1           0       -8.715303   -3.723856    5.256195
    138          1           0       -6.944193   -3.565201    5.187095
    139          1           0       -8.487070   -2.285808    6.945960
    140          1           0       -7.834517   -0.863395    7.944770
    141          1           0       -6.838274   -1.731482    6.741729
    142          1           0       -9.494800    3.982743    3.427972
    143          1           0      -10.815074    4.500857    0.811635
    144          1           0      -11.679641    4.039580    4.021573
    145          1           0      -11.885650    2.496200    3.120706
    146          1           0      -12.181262    3.962663    2.334727
    147          1           0       -9.508039    6.229411    2.106064
    148          1           0       -9.140189    6.151893    0.393271
    149          1           0       -7.668155    5.288872    2.774542
    150          1           0       -7.026319    6.194508    1.355846
    151          1           0       -7.291343    4.394275    1.298819
    152          1           0       -7.998716    3.799152   -4.791289
    153          1           0       -9.003334    4.484651   -3.473338
    154          1           0       -9.704301    3.198155   -4.534376
    155          1           0       -7.918971   -1.607010   -4.700524
    156          1           0       -4.674912   -3.178964   -7.064401
    157          1           0       -4.387675   -4.003331   -5.402512
    158          1           0       -3.741540   -2.416381   -5.888675
 ---------------------------------------------------------------------

 SCF Done:  E(RCAM-B3LYP) =  -4069.81157467     A.U. after   19 cycles

 Excitation energies and oscillator strengths:

 Excited State   1:      Singlet-A      1.6698 eV  742.51 nm  f=0.0174  <S**2>=0.000
     309 -> 315        0.10456
     310 -> 316       -0.13694
     311 -> 313        0.54648
     312 -> 314        0.41527
 This state for optimization and/or second-order correction.
 Total Energy, E(TD-HF/TD-DFT) =  -4069.75021080
 Copying the excited state density for this state as the 1-particle RhoCI density.

 Excited State   2:      Singlet-A      1.6852 eV  735.72 nm  f=0.7397  <S**2>=0.000
     309 -> 315        0.14071
     310 -> 316        0.10642
     311 -> 313       -0.41474
     312 -> 314        0.54565

 Excited State   3:      Singlet-A      2.1853 eV  567.35 nm  f=0.0623  <S**2>=0.000
     309 -> 314        0.14121
     310 -> 313        0.62702
     311 -> 316        0.26594

 Excited State   4:      Singlet-A      2.1922 eV  565.56 nm  f=0.1322  <S**2>=0.000
     309 -> 314        0.62511
     310 -> 313       -0.14027
     312 -> 315       -0.27139

 Excited State   5:      Singlet-A      2.8038 eV  442.20 nm  f=0.0000  <S**2>=0.000
     312 -> 313        0.70710

 The electronic state is 1-A.
 Alpha  occ. eigenvalues --  -46.87711 -46.87592 -19.26256 -19.26161 -19.19060
 Alpha  occ. eigenvalues --  -19.18891 -19.18761 -19.18667 -19.18068 -19.17973
 Alpha  occ. eigenvalues --  -14.42431 -14.42365 -14.41369 -14.41294 -14.39321
 Alpha  occ. eigenvalues --  -14.39286 -14.38530 -14.38497 -10.38993 -10.38955
 Alpha  occ. eigenvalues --  -10.35397 -10.35346 -10.34287 -10.34149 -10.31664
 Alpha  occ. eigenvalues --  -10.31552 -10.31314 -10.31238 -10.30958 -10.30826
 Alpha  occ. eigenvalues --  -10.30480 -10.30424 -10.30331 -10.30290 -10.30135
 Alpha  occ. eigenvalues --  -10.30082 -10.29839 -10.29829 -10.29548 -10.29375
 Alpha  occ. eigenvalues --  -10.29335 -10.29176 -10.28657 -10.28649 -10.28577
 Alpha  occ. eigenvalues --  -10.28436 -10.28337 -10.28279 -10.28074 -10.28030
 Alpha  occ. eigenvalues --  -10.27933 -10.27707 -10.27644 -10.27604 -10.27506
 Alpha  occ. eigenvalues --  -10.27461 -10.27438 -10.27417 -10.27416 -10.27415
 Alpha  occ. eigenvalues --  -10.27403 -10.27389 -10.27322 -10.27316 -10.27056
 Alpha  occ. eigenvalues --  -10.26972 -10.26612 -10.26602 -10.26384 -10.26377
 Alpha  occ. eigenvalues --  -10.26154 -10.26124 -10.26078 -10.25967 -10.25938
 Alpha  occ. eigenvalues --  -10.25869 -10.25773 -10.25741 -10.25386 -10.25354
 Alpha  occ. eigenvalues --  -10.24803 -10.24743 -10.24710 -10.24663 -10.24626
 Alpha  occ. eigenvalues --  -10.24620  -3.16454  -3.16342  -1.91335  -1.91224
 Alpha  occ. eigenvalues --   -1.90922  -1.90813  -1.90764  -1.90650  -1.16549
 Alpha  occ. eigenvalues --   -1.16509  -1.08577  -1.08522  -1.07165  -1.06921
 Alpha  occ. eigenvalues --   -1.06847  -1.06515  -1.04495  -1.04428  -1.03680
 Alpha  occ. eigenvalues --   -1.03597  -1.03150  -1.02973  -1.02328  -1.02045
 Alpha  occ. eigenvalues --   -0.91916  -0.91881  -0.89445  -0.89430  -0.89098
 Alpha  occ. eigenvalues --   -0.89083  -0.88216  -0.88160  -0.87778  -0.87722
 Alpha  occ. eigenvalues --   -0.87617  -0.87589  -0.87205  -0.87065  -0.84932
 Alpha  occ. eigenvalues --   -0.84895  -0.83865  -0.83814  -0.82910  -0.82882
 Alpha  occ. eigenvalues --   -0.82588  -0.82565  -0.81519  -0.81486  -0.80508
 Alpha  occ. eigenvalues --   -0.80373  -0.78720  -0.78574  -0.77137  -0.77079
 Alpha  occ. eigenvalues --   -0.76844  -0.76829  -0.75832  -0.75769  -0.74825
 Alpha  occ. eigenvalues --   -0.74742  -0.72690  -0.72632  -0.71591  -0.71517
 Alpha  occ. eigenvalues --   -0.69839  -0.69696  -0.68789  -0.68760  -0.67559
 Alpha  occ. eigenvalues --   -0.67536  -0.67135  -0.67134  -0.65201  -0.65196
 Alpha  occ. eigenvalues --   -0.64765  -0.64702  -0.64583  -0.64534  -0.64194
 Alpha  occ. eigenvalues --   -0.64140  -0.62199  -0.62195  -0.60372  -0.60282
 Alpha  occ. eigenvalues --   -0.59728  -0.59716  -0.58925  -0.58903  -0.58418
 Alpha  occ. eigenvalues --   -0.58357  -0.57483  -0.57474  -0.57228  -0.57173
 Alpha  occ. eigenvalues --   -0.56226  -0.56137  -0.55873  -0.55808  -0.55445
 Alpha  occ. eigenvalues --   -0.55388  -0.55257  -0.55179  -0.54432  -0.54415
 Alpha  occ. eigenvalues --   -0.53843  -0.53805  -0.53223  -0.53165  -0.53139
 Alpha  occ. eigenvalues --   -0.53075  -0.52828  -0.52823  -0.52686  -0.52615
 Alpha  occ. eigenvalues --   -0.52367  -0.52337  -0.51818  -0.51809  -0.51592
 Alpha  occ. eigenvalues --   -0.51530  -0.51130  -0.51106  -0.50516  -0.50426
 Alpha  occ. eigenvalues --   -0.49964  -0.49919  -0.49849  -0.49810  -0.49435
 Alpha  occ. eigenvalues --   -0.49428  -0.49134  -0.49128  -0.49036  -0.49008
 Alpha  occ. eigenvalues --   -0.48500  -0.48486  -0.48396  -0.48364  -0.48315
 Alpha  occ. eigenvalues --   -0.48281  -0.47615  -0.47530  -0.47220  -0.47058
 Alpha  occ. eigenvalues --   -0.46715  -0.46642  -0.46487  -0.46467  -0.46277
 Alpha  occ. eigenvalues --   -0.46205  -0.46075  -0.46016  -0.45746  -0.45722
 Alpha  occ. eigenvalues --   -0.45149  -0.45131  -0.44485  -0.44444  -0.44434
 Alpha  occ. eigenvalues --   -0.44410  -0.44068  -0.44062  -0.44014  -0.44005
 Alpha  occ. eigenvalues --   -0.43933  -0.43877  -0.43477  -0.43396  -0.43318
 Alpha  occ. eigenvalues --   -0.43305  -0.42942  -0.42855  -0.42824  -0.42612
 Alpha  occ. eigenvalues --   -0.42556  -0.42492  -0.41928  -0.41896  -0.41617
 Alpha  occ. eigenvalues --   -0.41599  -0.41447  -0.41391  -0.41060  -0.40925
 Alpha  occ. eigenvalues --   -0.40790  -0.40760  -0.40666  -0.40635  -0.40496
 Alpha  occ. eigenvalues --   -0.40430  -0.40158  -0.40142  -0.39374  -0.39363
 Alpha  occ. eigenvalues --   -0.38397  -0.38290  -0.37655  -0.37582  -0.37245
 Alpha  occ. eigenvalues --   -0.37202  -0.37173  -0.37130  -0.36684  -0.36607
 Alpha  occ. eigenvalues --   -0.36146  -0.36098  -0.34200  -0.34185  -0.33766
 Alpha  occ. eigenvalues --   -0.33650  -0.33107  -0.33099  -0.31291  -0.31226
 Alpha  occ. eigenvalues --   -0.30952  -0.30907  -0.29926  -0.29876  -0.29370
 Alpha  occ. eigenvalues --   -0.29264  -0.29232  -0.29141  -0.23995  -0.23969
 Alpha  occ. eigenvalues --   -0.21051  -0.21044
 Alpha virt. eigenvalues --   -0.08726  -0.08692  -0.01671  -0.01620   0.00016
 Alpha virt. eigenvalues --    0.00031   0.02278   0.02291   0.03226   0.03310
 Alpha virt. eigenvalues --    0.04797   0.04805   0.05218   0.05259   0.06254

 Mulliken charges:
               1
     1  Mg   0.839113
     2  C   -0.002759
     3  C   -0.094093
     4  C   -0.046015
     5  C   -0.063919
     6  N   -0.256744
     7  C   -0.052348
     8  C   -0.014029
     9  C   -0.087020
    10  C    0.046312
    11  C    0.104863
    12  C    0.053471
    13  C   -0.071840
    14  H    0.036445
    15  N   -0.433060
    16  C    0.168356
    17  C   -0.177282
    18  C   -0.004243
    19  C    0.148684
    20  C    0.110224
    21  C    0.012083
    22  O   -0.250089
    23  C    0.062569
    24  N   -0.341149
    25  C    0.041234
    26  C   -0.028070
    27  C   -0.023975
    28  C    0.074929
    29  C    0.076264
    30  C    0.035143
    31  C   -0.004418
    32  N   -0.310595
    33  C    0.080712
    34  C   -0.169300
    35  C    0.008539
    36  C    0.083331
    37  C    0.127196
    38  C    0.046502
    39  O   -0.188005
    40  C   -0.005479
    41  C    0.212873
    42  O   -0.256429
    43  O   -0.304996
    44  C    0.157577
    45  H   -0.017778
    46  H   -0.017227
    47  H   -0.041451
    48  H    0.000928
    49  H   -0.004078
    50  H    0.025439
    51  H    0.016314
    52  H    0.016513
    53  H    0.011240
    54  H    0.044531
    55  H    0.017708
    56  H    0.017816
    57  H    0.005871
    58  H    0.026546
    59  H    0.039306
    60  H    0.037343
    61  H    0.035081
    62  H    0.031399
    63  H    0.016206
    64  H    0.009362
    65  H    0.022832
    66  H    0.012527
    67  H    0.004652
    68  H    0.005876
    69  H    0.004877
    70  H    0.008220
    71  H    0.018261
    72  H    0.029586
    73  H    0.048218
    74  H    0.009138
    75  H    0.045856
    76  H    0.035018
    77  H    0.042888
    78  H    0.046239
    79  H    0.054182
    80  Mg   0.838134
    81  C   -0.016637
    82  C   -0.087770
    83  C   -0.045614
    84  C   -0.064912
    85  N   -0.254549
    86  C   -0.049760
    87  C   -0.015119
    88  C   -0.090525
    89  C    0.045783
    90  C    0.114417
    91  C    0.062511
    92  C   -0.077868
    93  H    0.035032
    94  N   -0.423441
    95  C    0.162887
    96  C   -0.174732
    97  C   -0.007976
    98  C    0.152135
    99  C    0.099422
   100  C    0.015452
   101  O   -0.253436
   102  C    0.061256
   103  N   -0.350087
   104  C    0.037489
   105  C   -0.019750
   106  C   -0.034842
   107  C    0.089019
   108  C    0.073732
   109  C    0.034735
   110  C   -0.007665
   111  N   -0.324215
   112  C    0.078685
   113  C   -0.162855
   114  C    0.002362
   115  C    0.096483
   116  C    0.131406
   117  C    0.042706
   118  O   -0.187549
   119  C    0.000778
   120  C    0.211258
   121  O   -0.250325
   122  O   -0.305831
   123  C    0.151930
   124  H   -0.019814
   125  H   -0.015798
   126  H   -0.040404
   127  H   -0.000709
   128  H   -0.004333
   129  H    0.022397
   130  H    0.014320
   131  H    0.016141
   132  H    0.014041
   133  H    0.038057
   134  H    0.020569
   135  H    0.019574
   136  H    0.008761
   137  H    0.025907
   138  H    0.039619
   139  H    0.038202
   140  H    0.036039
   141  H    0.033801
   142  H    0.014280
   143  H    0.012312
   144  H    0.024926
   145  H    0.011559
   146  H    0.005570
   147  H    0.006031
   148  H    0.003752
   149  H    0.010673
   150  H    0.018187
   151  H    0.030396
   152  H    0.046490
   153  H    0.008551
   154  H    0.046780
   155  H    0.034861
   156  H    0.043777
   157  H    0.049255
   158  H    0.054081
 Sum of Mulliken charges =  -0.00000

 Dipole moment (field-independent basis, Debye):
    X=              0.7712    Y=             -3.8250    Z=              6.2233  Tot=              7.3454
 Quadrupole moment (field-independent basis, Debye-Ang):
   XX=           -463.3352   YY=           -478.2040   ZZ=           -522.1720
   XY=             17.3642   XZ=             23.8056   YZ=             32.7920

 Normal termination of Gaussian 16 at Sat Sep 11 23:19:15 2021.
