 Gaussian 16, Revision A.03,
 Gaussian 16:  ES64L-G16RevA.03 25-Dec-2016

 -----------------------------------
 #p cam-b3lyp/Def2SVP td=(nstates=5)
 -----------------------------------

 --------------------------------
 TDDFT excited states in gaussian
 --------------------------------
 Symbolic Z-matrix:
 Charge =  0 Multiplicity = 1

                         Standard orientation:
 ---------------------------------------------------------------------
 Center     Atomic      Atomic             Coordinates (Angstroms)
 Number     Number       Type             X           Y           Z
 ---------------------------------------------------------------------
      1         12           0       16.048112   -0.636062    0.261043
      2          6           0       16.254590    2.488627   -1.472711
      3          6           0       16.890855    1.054740    3.102528
      4          6           0       16.316805   -3.439244    1.719329
      5          6           0       16.343678   -2.205799   -2.836413
      6          7           0       16.489687    1.499881    0.639733
      7          6           0       16.475913    2.605224   -0.098641
      8          6           0       16.643983    3.908977    0.737634
      9          6           0       17.387591    3.298450    2.008973
     10          6           0       16.865186    1.874514    1.935333
     11          6           0       18.906486    3.272099    1.871985
     12          6           0       15.268099    4.545421    1.129570
     13          6           0       15.339329    5.980393    1.659790
     14          1           0       14.263116    6.902787    1.330693
     15          7           0       16.052053   -1.084120    2.185121
     16          6           0       16.408943   -0.268112    3.205928
     17          6           0       16.241038   -1.063387    4.441253
     18          6           0       15.939595   -2.466148    4.041893
     19          6           0       16.118940   -2.390598    2.614481
     20          6           0       16.320676   -0.474398    5.816207
     21          6           0       15.561721   -3.684279    4.823877
     22          8           0       15.571503   -4.853954    4.307795
     23          6           0       15.261263   -3.480687    6.252623
     24          7           0       16.514886   -2.552829   -0.421425
     25          6           0       16.505892   -3.601926    0.408212
     26          6           0       16.589291   -4.895558   -0.346440
     27          6           0       16.411921   -4.520111   -1.888300
     28          6           0       16.334790   -2.979708   -1.748730
     29          6           0       17.886175   -5.695594   -0.161925
     30          6           0       15.285396   -5.247739   -2.664134
     31          6           0       13.936044   -4.812314   -2.138062
     32          7           0       16.084620   -0.008019   -1.816281
     33          6           0       16.238701   -0.829009   -2.942739
     34          6           0       16.310290    0.058786   -4.117797
     35          6           0       16.208866    1.343735   -3.588208
     36          6           0       16.108351    1.264841   -2.169771
     37          6           0       16.509536   -0.355440   -5.464330
     38          6           0       16.186798    2.766105   -3.888601
     39          8           0       16.144362    3.433323   -4.923256
     40          6           0       16.338112    3.569261   -2.521900
     41          6           0       15.286797    4.645300   -2.508276
     42          8           0       14.074808    4.354780   -2.444676
     43          8           0       15.874481    5.838793   -2.332931
     44          6           0       14.884326    6.947394   -2.280496
     45          1           0       17.375928    1.434672    4.003803
     46          1           0       16.304375   -4.432999    2.171803
     47          1           0       16.350784   -2.627818   -3.843042
     48          1           0       17.268831    4.670790    0.271127
     49          1           0       17.065288    3.772878    2.935667
     50          1           0       19.221041    3.558785    0.868598
     51          1           0       19.200024    2.243752    2.083716
     52          1           0       19.375682    3.882620    2.643929
     53          1           0       14.877101    4.040456    2.012855
     54          1           0       14.571558    4.504931    0.291407
     55          1           0       16.308574    6.434502    1.451805
     56          1           0       15.284390    5.945572    2.747894
     57          1           0       16.717824    0.539690    5.795107
     58          1           0       17.067711   -1.047305    6.365229
     59          1           0       15.364961   -0.520762    6.338502
     60          1           0       16.131549   -3.046335    6.745054
     61          1           0       14.924609   -4.445779    6.629601
     62          1           0       14.459576   -2.747250    6.343821
     63          1           0       15.790164   -5.573617   -0.049693
     64          1           0       17.311855   -4.730572   -2.466657
     65          1           0       17.726435   -6.710387    0.203290
     66          1           0       18.534881   -5.135416    0.510884
     67          1           0       18.509124   -5.768247   -1.053032
     68          1           0       15.355972   -6.324497   -2.513945
     69          1           0       15.311666   -5.060184   -3.737626
     70          1           0       13.793717   -5.455884   -1.270656
     71          1           0       13.161679   -4.987708   -2.885596
     72          1           0       13.961789   -3.783120   -1.779476
     73          1           0       15.814339    0.227126   -6.068720
     74          1           0       16.334633   -1.424888   -5.579628
     75          1           0       17.556035   -0.085838   -5.605785
     76          1           0       17.346436    3.981912   -2.510798
     77          1           0       15.168799    7.668359   -3.046993
     78          1           0       14.859093    7.291682   -1.246458
     79          1           0       13.869258    6.702364   -2.595036
     80         12           0      -15.698178   -0.752586   -0.020840
     81          6           0      -18.147302    1.865029    0.149241
     82          6           0      -13.310924    1.683619    0.000634
     83          6           0      -13.540689   -2.999946   -0.622538
     84          6           0      -18.229677   -2.857104   -1.164646
     85          7           0      -15.835884    1.453229    0.066781
     86          6           0      -16.817609    2.333629    0.191105
     87          6           0      -16.346645    3.789723    0.450980
     88          6           0      -14.876325    3.684217   -0.186117
     89          6           0      -14.636169    2.187417   -0.000112
     90          6           0      -14.841533    3.992283   -1.673808
     91          6           0      -16.286505    4.134497    1.980532
     92          6           0      -16.134299    5.623593    2.298603
     93          1           0      -16.806125    6.154920    3.481316
     94          7           0      -13.727193   -0.735498    0.210421
     95          6           0      -12.917907    0.344453    0.216263
     96          6           0      -11.554039   -0.175827    0.398812
     97          6           0      -11.606385   -1.661732    0.335122
     98          6           0      -12.987161   -1.860263   -0.057476
     99          6           0      -10.377068    0.710045    0.687615
    100          6           0      -10.579782   -2.727202    0.573968
    101          8           0      -10.781108   -3.945422    0.230113
    102          6           0       -9.295391   -2.285647    1.136874
    103          7           0      -15.809564   -2.592951   -0.981581
    104          6           0      -14.735472   -3.398007   -1.059979
    105          6           0      -15.120112   -4.774851   -1.546518
    106          6           0      -16.719182   -4.798818   -1.547989
    107          6           0      -16.994535   -3.338059   -1.128768
    108          6           0      -14.604362   -5.158497   -2.933317
    109          6           0      -17.406682   -5.939366   -0.748514
    110          6           0      -17.158094   -5.754854    0.731199
    111          7           0      -17.840529   -0.617873   -0.266308
    112          6           0      -18.703381   -1.607291   -0.786514
    113          6           0      -20.052894   -1.011243   -0.863612
    114          6           0      -19.875693    0.301360   -0.400841
    115          6           0      -18.508232    0.514989   -0.078483
    116          6           0      -21.220376   -1.656923   -1.359820
    117          6           0      -20.532538    1.558086   -0.121777
    118          8           0      -21.699928    1.946591   -0.120332
    119          6           0      -19.419869    2.665473    0.127316
    120          6           0      -19.791118    3.425379    1.371197
    121          8           0      -19.799073    2.859711    2.478699
    122          8           0      -19.863092    4.737261    1.081105
    123          6           0      -20.217686    5.533891    2.285872
    124          1           0      -12.494832    2.369971   -0.226956
    125          1           0      -12.857968   -3.843632   -0.747258
    126          1           0      -19.091058   -3.478740   -1.418124
    127          1           0      -16.920747    4.551386   -0.062883
    128          1           0      -14.154984    4.260318    0.387587
    129          1           0      -15.833215    4.116435   -2.082837
    130          1           0      -14.343900    3.150346   -2.137012
    131          1           0      -14.204568    4.860843   -1.864114
    132          1           0      -15.343597    3.756287    2.396022
    133          1           0      -17.142328    3.741013    2.493717
    134          1           0      -16.337951    6.254620    1.424942
    135          1           0      -15.086091    5.822671    2.534513
    136          1           0      -10.615429    1.766086    0.510548
    137          1           0       -9.609969    0.475940   -0.058452
    138          1           0       -9.961878    0.547180    1.684487
    139          1           0       -8.844643   -1.550233    0.474707
    140          1           0       -8.726506   -3.199485    1.318945
    141          1           0       -9.486774   -1.777005    2.088328
    142          1           0      -14.757824   -5.539240   -0.870078
    143          1           0      -17.123982   -4.915794   -2.564008
    144          1           0      -13.999827   -6.085112   -2.933226
    145          1           0      -14.029837   -4.329682   -3.325145
    146          1           0      -15.373561   -5.286069   -3.693095
    147          1           0      -16.972920   -6.905481   -1.017999
    148          1           0      -18.475297   -6.006085   -0.923458
    149          1           0      -16.169466   -6.201627    0.872940
    150          1           0      -17.914218   -6.276342    1.314613
    151          1           0      -17.079322   -4.691958    0.987509
    152          1           0      -22.023628   -1.416287   -0.676154
    153          1           0      -21.075657   -2.732153   -1.441685
    154          1           0      -21.306491   -1.178587   -2.339121
    155          1           0      -19.394882    3.308634   -0.753191
    156          1           0      -21.109350    6.115860    2.033014
    157          1           0      -19.304511    6.100122    2.549009
    158          1           0      -20.558858    4.993790    3.161285
 ---------------------------------------------------------------------

 SCF Done:  E(RCAM-B3LYP) =  -4069.81178553     A.U. after   19 cycles

 Excitation energies and oscillator strengths:

 Excited State   1:      Singlet-A      1.6756 eV  739.93 nm  f=0.3938  <S**2>=0.000
     310 -> 316       -0.17363
     312 -> 314        0.68600
     310 <- 316       -0.10465
 This state for optimization and/or second-order correction.
 Total Energy, E(TD-HF/TD-DFT) =  -4069.75020784
 Copying the excited state density for this state as the 1-particle RhoCI density.

 Excited State   2:      Singlet-A      1.6799 eV  738.07 nm  f=0.3882  <S**2>=0.000
     309 -> 315        0.17556
     311 -> 313        0.68565
     309 <- 315        0.10514

 Excited State   3:      Singlet-A      2.1862 eV  567.12 nm  f=0.0951  <S**2>=0.000
     310 -> 314        0.64209
     312 -> 316        0.27300

 Excited State   4:      Singlet-A      2.1926 eV  565.47 nm  f=0.1049  <S**2>=0.000
     309 -> 313        0.64032
     311 -> 315       -0.27817

 Excited State   5:      Singlet-A      3.0626 eV  404.83 nm  f=0.0000  <S**2>=0.000
     312 -> 313        0.70710

 The electronic state is 1-A.
 Alpha  occ. eigenvalues --  -46.87814 -46.87660 -19.26352 -19.26308 -19.19163
 Alpha  occ. eigenvalues --  -19.19043 -19.18829 -19.18709 -19.18188 -19.18052
 Alpha  occ. eigenvalues --  -14.42497 -14.42467 -14.41466 -14.41358 -14.39419
 Alpha  occ. eigenvalues --  -14.39351 -14.38604 -14.38599 -10.39102 -10.39093
 Alpha  occ. eigenvalues --  -10.35463 -10.35386 -10.34408 -10.34229 -10.31760
 Alpha  occ. eigenvalues --  -10.31705 -10.31423 -10.31308 -10.31021 -10.30926
 Alpha  occ. eigenvalues --  -10.30587 -10.30524 -10.30397 -10.30360 -10.30222
 Alpha  occ. eigenvalues --  -10.30139 -10.29937 -10.29894 -10.29647 -10.29435
 Alpha  occ. eigenvalues --  -10.29399 -10.29271 -10.28768 -10.28718 -10.28655
 Alpha  occ. eigenvalues --  -10.28562 -10.28404 -10.28382 -10.28139 -10.28135
 Alpha  occ. eigenvalues --  -10.28000 -10.27810 -10.27744 -10.27668 -10.27601
 Alpha  occ. eigenvalues --  -10.27518 -10.27515 -10.27497 -10.27483 -10.27464
 Alpha  occ. eigenvalues --  -10.27463 -10.27459 -10.27421 -10.27375 -10.27178
 Alpha  occ. eigenvalues --  -10.27051 -10.26727 -10.26693 -10.26423 -10.26405
 Alpha  occ. eigenvalues --  -10.26251 -10.26197 -10.26138 -10.26035 -10.26022
 Alpha  occ. eigenvalues --  -10.25934 -10.25860 -10.25853 -10.25448 -10.25396
 Alpha  occ. eigenvalues --  -10.24872 -10.24850 -10.24804 -10.24732 -10.24701
 Alpha  occ. eigenvalues --  -10.24689  -3.16556  -3.16410  -1.91438  -1.91292
 Alpha  occ. eigenvalues --   -1.91025  -1.90880  -1.90867  -1.90717  -1.16656
 Alpha  occ. eigenvalues --   -1.16646  -1.08659  -1.08646  -1.07230  -1.06961
 Alpha  occ. eigenvalues --   -1.06948  -1.06666  -1.04598  -1.04494  -1.03777
 Alpha  occ. eigenvalues --   -1.03662  -1.03250  -1.03038  -1.02428  -1.02111
 Alpha  occ. eigenvalues --   -0.91990  -0.91987  -0.89535  -0.89494  -0.89206
 Alpha  occ. eigenvalues --   -0.89150  -0.88302  -0.88220  -0.87887  -0.87794
 Alpha  occ. eigenvalues --   -0.87690  -0.87683  -0.87290  -0.87116  -0.85000
 Alpha  occ. eigenvalues --   -0.84999  -0.83952  -0.83876  -0.82982  -0.82927
 Alpha  occ. eigenvalues --   -0.82666  -0.82651  -0.81606  -0.81597  -0.80614
 Alpha  occ. eigenvalues --   -0.80442  -0.78813  -0.78633  -0.77235  -0.77143
 Alpha  occ. eigenvalues --   -0.76953  -0.76898  -0.75942  -0.75838  -0.74914
 Alpha  occ. eigenvalues --   -0.74802  -0.72791  -0.72699  -0.71689  -0.71580
 Alpha  occ. eigenvalues --   -0.69922  -0.69758  -0.68891  -0.68826  -0.67658
 Alpha  occ. eigenvalues --   -0.67601  -0.67238  -0.67198  -0.65305  -0.65271
 Alpha  occ. eigenvalues --   -0.64871  -0.64770  -0.64654  -0.64639  -0.64285
 Alpha  occ. eigenvalues --   -0.64204  -0.62318  -0.62279  -0.60458  -0.60337
 Alpha  occ. eigenvalues --   -0.59822  -0.59796  -0.59004  -0.58992  -0.58521
 Alpha  occ. eigenvalues --   -0.58425  -0.57604  -0.57555  -0.57325  -0.57235
 Alpha  occ. eigenvalues --   -0.56327  -0.56203  -0.56000  -0.55887  -0.55537
 Alpha  occ. eigenvalues --   -0.55450  -0.55356  -0.55248  -0.54542  -0.54488
 Alpha  occ. eigenvalues --   -0.53914  -0.53912  -0.53315  -0.53240  -0.53226
 Alpha  occ. eigenvalues --   -0.53140  -0.52933  -0.52902  -0.52772  -0.52663
 Alpha  occ. eigenvalues --   -0.52453  -0.52402  -0.51932  -0.51886  -0.51657
 Alpha  occ. eigenvalues --   -0.51635  -0.51214  -0.51201  -0.50587  -0.50470
 Alpha  occ. eigenvalues --   -0.50046  -0.49977  -0.49934  -0.49866  -0.49532
 Alpha  occ. eigenvalues --   -0.49485  -0.49232  -0.49201  -0.49114  -0.49104
 Alpha  occ. eigenvalues --   -0.48611  -0.48558  -0.48477  -0.48462  -0.48376
 Alpha  occ. eigenvalues --   -0.48335  -0.47712  -0.47593  -0.47313  -0.47116
 Alpha  occ. eigenvalues --   -0.46814  -0.46709  -0.46574  -0.46553  -0.46376
 Alpha  occ. eigenvalues --   -0.46269  -0.46180  -0.46086  -0.45841  -0.45823
 Alpha  occ. eigenvalues --   -0.45216  -0.45208  -0.44596  -0.44523  -0.44514
 Alpha  occ. eigenvalues --   -0.44475  -0.44161  -0.44126  -0.44106  -0.44077
 Alpha  occ. eigenvalues --   -0.44037  -0.43936  -0.43554  -0.43514  -0.43403
 Alpha  occ. eigenvalues --   -0.43385  -0.43044  -0.42931  -0.42902  -0.42719
 Alpha  occ. eigenvalues --   -0.42672  -0.42552  -0.42026  -0.41964  -0.41721
 Alpha  occ. eigenvalues --   -0.41669  -0.41552  -0.41458  -0.41158  -0.40988
 Alpha  occ. eigenvalues --   -0.40887  -0.40839  -0.40720  -0.40696  -0.40587
 Alpha  occ. eigenvalues --   -0.40493  -0.40254  -0.40226  -0.39455  -0.39426
 Alpha  occ. eigenvalues --   -0.38484  -0.38350  -0.37768  -0.37654  -0.37336
 Alpha  occ. eigenvalues --   -0.37282  -0.37265  -0.37199  -0.36773  -0.36734
 Alpha  occ. eigenvalues --   -0.36217  -0.36211  -0.34303  -0.34253  -0.33864
 Alpha  occ. eigenvalues --   -0.33792  -0.33204  -0.33175  -0.31359  -0.31268
 Alpha  occ. eigenvalues --   -0.31052  -0.30972  -0.30048  -0.29957  -0.29466
 Alpha  occ. eigenvalues --   -0.29339  -0.29325  -0.29211  -0.24097  -0.24035
 Alpha  occ. eigenvalues --   -0.21144  -0.21116
 Alpha virt. eigenvalues --   -0.08791  -0.08791  -0.01766  -0.01683  -0.00074
 Alpha virt. eigenvalues --   -0.00026   0.02183   0.02207   0.03104   0.03228
 Alpha virt. eigenvalues --    0.04700   0.04730   0.05076   0.05163   0.06157

 Mulliken charges:
               1
     1  Mg   0.838764
     2  C   -0.002982
     3  C   -0.094136
     4  C   -0.045877
     5  C   -0.063931
     6  N   -0.256773
     7  C   -0.052499
     8  C   -0.014004
     9  C   -0.087019
    10  C    0.046322
    11  C    0.104810
    12  C    0.053487
    13  C   -0.071785
    14  H    0.036028
    15  N   -0.433170
    16  C    0.168427
    17  C   -0.177146
    18  C   -0.003983
    19  C    0.148711
    20  C    0.110176
    21  C    0.012294
    22  O   -0.249580
    23  C    0.062470
    24  N   -0.341149
    25  C    0.041273
    26  C   -0.028184
    27  C   -0.023977
    28  C    0.074817
    29  C    0.076151
    30  C    0.035130
    31  C   -0.004511
    32  N   -0.310467
    33  C    0.080395
    34  C   -0.169734
    35  C    0.008346
    36  C    0.082975
    37  C    0.127317
    38  C    0.046097
    39  O   -0.188485
    40  C   -0.005343
    41  C    0.212877
    42  O   -0.257161
    43  O   -0.304773
    44  C    0.157713
    45  H   -0.017585
    46  H   -0.016795
    47  H   -0.041480
    48  H    0.000936
    49  H   -0.004042
    50  H    0.025478
    51  H    0.016473
    52  H    0.016673
    53  H    0.011193
    54  H    0.044079
    55  H    0.017899
    56  H    0.017958
    57  H    0.005871
    58  H    0.026865
    59  H    0.039551
    60  H    0.037365
    61  H    0.035701
    62  H    0.031482
    63  H    0.016580
    64  H    0.009481
    65  H    0.023255
    66  H    0.012553
    67  H    0.004775
    68  H    0.006408
    69  H    0.004728
    70  H    0.008808
    71  H    0.018143
    72  H    0.028942
    73  H    0.047531
    74  H    0.009124
    75  H    0.046021
    76  H    0.035162
    77  H    0.042935
    78  H    0.046398
    79  H    0.053619
    80  Mg   0.837881
    81  C   -0.016810
    82  C   -0.087797
    83  C   -0.045464
    84  C   -0.064876
    85  N   -0.254589
    86  C   -0.049867
    87  C   -0.015112
    88  C   -0.090482
    89  C    0.045762
    90  C    0.114354
    91  C    0.062527
    92  C   -0.077898
    93  H    0.034863
    94  N   -0.423518
    95  C    0.162924
    96  C   -0.174567
    97  C   -0.007756
    98  C    0.152092
    99  C    0.099339
   100  C    0.015594
   101  O   -0.253139
   102  C    0.061186
   103  N   -0.350047
   104  C    0.037515
   105  C   -0.019847
   106  C   -0.034809
   107  C    0.088895
   108  C    0.073638
   109  C    0.034738
   110  C   -0.007674
   111  N   -0.324100
   112  C    0.078423
   113  C   -0.163158
   114  C    0.002243
   115  C    0.096153
   116  C    0.131491
   117  C    0.042350
   118  O   -0.187924
   119  C    0.000931
   120  C    0.211238
   121  O   -0.251023
   122  O   -0.305621
   123  C    0.152036
   124  H   -0.019583
   125  H   -0.015527
   126  H   -0.040485
   127  H   -0.000653
   128  H   -0.004299
   129  H    0.022446
   130  H    0.014464
   131  H    0.016342
   132  H    0.013922
   133  H    0.037653
   134  H    0.020800
   135  H    0.019615
   136  H    0.008796
   137  H    0.026287
   138  H    0.039823
   139  H    0.038358
   140  H    0.036470
   141  H    0.033865
   142  H    0.014415
   143  H    0.012415
   144  H    0.025183
   145  H    0.011684
   146  H    0.005675
   147  H    0.006273
   148  H    0.003630
   149  H    0.010948
   150  H    0.017911
   151  H    0.030099
   152  H    0.045979
   153  H    0.008498
   154  H    0.046922
   155  H    0.035020
   156  H    0.043898
   157  H    0.049501
   158  H    0.053565
 Sum of Mulliken charges =  -0.00000

 Dipole moment (field-independent basis, Debye):
    X=              5.8881    Y=              2.4764    Z=              3.0845  Tot=              7.0935
 Quadrupole moment (field-independent basis, Debye-Ang):
   XX=           -590.4669   YY=           -479.6378   ZZ=           -508.5086
   XY=              7.6162   XZ=             90.4478   YZ=             44.4646

 Normal termination of Gaussian 16 at Sun Sep 12 22:11:20 2021.
