 Gaussian 16, Revision A.03,
 Gaussian 16:  ES64L-G16RevA.03 25-Dec-2016

 -----------------------------------
 #p cam-b3lyp/Def2SVP td=(nstates=5)
 -----------------------------------

 --------------------------------
 TDDFT excited states in gaussian
 --------------------------------
 Symbolic Z-matrix:
 Charge =  0 Multiplicity = 1

                         Standard orientation:
 ---------------------------------------------------------------------
 Center     Atomic      Atomic             Coordinates (Angstroms)
 Number     Number       Type             X           Y           Z
 ---------------------------------------------------------------------
      1         12           0        7.812239   -0.870370    0.288075
      2          6           0        8.303687    2.091663   -1.660528
      3          6           0        8.917025    0.901080    2.987052
      4          6           0        7.819531   -3.583908    1.929197
      5          6           0        7.844055   -2.663700   -2.700004
      6          7           0        8.493243    1.224393    0.509084
      7          6           0        8.577103    2.273499   -0.303021
      8          6           0        8.909961    3.603129    0.437696
      9          6           0        9.620691    2.999674    1.731026
     10          6           0        8.945428    1.640027    1.767141
     11          6           0       11.123080    2.797610    1.562208
     12          6           0        7.623233    4.411339    0.815662
     13          6           0        7.864945    5.861588    1.244273
     14          1           0        6.885463    6.872961    0.876730
     15          7           0        7.824955   -1.188416    2.237828
     16          6           0        8.298196   -0.351102    3.191890
     17          6           0        8.082115   -1.039993    4.482402
     18          6           0        7.619019   -2.424377    4.187248
     19          6           0        7.762932   -2.463192    2.754363
     20          6           0        8.265844   -0.374031    5.811495
     21          6           0        7.135085   -3.539431    5.059368
     22          8           0        7.002979   -4.734539    4.624810
     23          6           0        6.901044   -3.210379    6.477110
     24          7           0        8.048513   -2.867592   -0.271315
     25          6           0        7.950826   -3.852400    0.628459
     26          6           0        7.871373   -5.194250   -0.037173
     27          6           0        7.689842   -4.903979   -1.596834
     28          6           0        7.783906   -3.358601   -1.561776
     29          6           0        9.079062   -6.118047    0.172817
     30          6           0        6.468666   -5.552930   -2.295411
     31          6           0        5.190558   -4.938162   -1.770438
     32          7           0        7.854617   -0.388363   -1.827798
     33          6           0        7.885442   -1.293727   -2.898330
     34          6           0        8.017611   -0.498524   -4.132936
     35          6           0        8.071518    0.821868   -3.690779
     36          6           0        8.005309    0.848112   -2.268379
     37          6           0        8.130749   -1.019937   -5.451937
     38          6           0        8.194445    2.215151   -4.087652
     39          8           0        8.193635    2.813374   -5.164510
     40          6           0        8.472308    3.085095   -2.783115
     41          6           0        7.544377    4.268690   -2.819951
     42          8           0        6.310513    4.117935   -2.709420
     43          8           0        8.262617    5.399318   -2.740250
     44          6           0        7.400135    6.611043   -2.741984
     45          1           0        9.466933    1.283951    3.848999
     46          1           0        7.713193   -4.538300    2.449069
     47          1           0        7.775536   -3.149336   -3.675153
     48          1           0        9.599359    4.259270   -0.093938
     49          1           0        9.379291    3.566656    2.629902
     50          1           0       11.436796    2.981267    0.534700
     51          1           0       11.309876    1.759429    1.837493
     52          1           0       11.678296    3.402393    2.279668
     53          1           0        7.206383    4.011690    1.740095
     54          1           0        6.901770    4.392508   -0.001934
     55          1           0        8.870989    6.191745    0.983925
     56          1           0        7.838961    5.904772    2.333154
     57          1           0        8.769507    0.586668    5.711861
     58          1           0        8.962556   -0.988138    6.381735
     59          1           0        7.326685   -0.280585    6.357004
     60          1           0        7.827456   -2.842799    6.918918
     61          1           0        6.473380   -4.105689    6.926969
     62          1           0        6.186431   -2.388883    6.535604
     63          1           0        7.012802   -5.759359    0.323289
     64          1           0        8.544136   -5.249698   -2.179358
     65          1           0        8.821472   -7.082864    0.610400
     66          1           0        9.804264   -5.589447    0.790843
     67          1           0        9.663713   -6.317259   -0.724911
     68          1           0        6.426841   -6.618676   -2.073188
     69          1           0        6.483110   -5.440527   -3.379574
     70          1           0        5.005351   -5.503646   -0.857882
     71          1           0        4.379872   -5.076264   -2.486628
     72          1           0        5.338091   -3.896657   -1.484104
     73          1           0        7.484944   -0.405595   -6.079224
     74          1           0        7.837885   -2.068947   -5.489514
     75          1           0        9.195589   -0.876872   -5.634978
     76          1           0        9.519220    3.384276   -2.822976
     77          1           0        7.737962    7.244312   -3.562396
     78          1           0        7.443052    7.023385   -1.733749
     79          1           0        6.355617    6.458854   -3.016138
     80         12           0       -7.980195    0.806288    0.494920
     81          6           0       -8.133777   -2.386761   -1.136014
     82          6           0       -6.999358    2.119715   -2.496311
     83          6           0       -7.401111    3.539959    1.997962
     84          6           0       -7.851743   -0.904797    3.528306
     85          7           0       -7.646513   -0.115649   -1.487733
     86          6           0       -7.795953   -1.326676   -2.002932
     87          6           0       -7.649248   -1.391408   -3.546903
     88          6           0       -6.748760   -0.078635   -3.758143
     89          6           0       -7.178606    0.713611   -2.525144
     90          6           0       -5.256916   -0.349290   -3.655785
     91          6           0       -9.028700   -1.266476   -4.284150
     92          6           0       -8.998772   -1.629717   -5.770395
     93          1           0      -10.164656   -2.292169   -6.348620
     94          7           0       -7.778396    2.646852   -0.219318
     95          6           0       -7.393062    2.999066   -1.463800
     96          6           0       -7.382711    4.470052   -1.480570
     97          6           0       -7.633906    4.956707   -0.096813
     98          6           0       -7.592640    3.706006    0.634029
     99          6           0       -7.228919    5.268363   -2.742504
    100          6           0       -7.859547    6.323174    0.475943
    101          8           0       -7.820430    6.538825    1.738792
    102          6           0       -8.034890    7.417946   -0.489573
    103          7           0       -7.458262    1.253415    2.457072
    104          6           0       -7.317820    2.527933    2.861776
    105          6           0       -7.213438    2.614322    4.365781
    106          6           0       -7.557135    1.148540    4.905193
    107          6           0       -7.720614    0.414360    3.556251
    108          6           0       -5.855780    3.052811    4.914301
    109          6           0       -8.698616    1.033685    5.952332
    110          6           0      -10.022782    1.384562    5.312913
    111          7           0       -8.174139   -1.249572    1.130430
    112          6           0       -8.060859   -1.749996    2.446039
    113          6           0       -8.153602   -3.221961    2.361435
    114          6           0       -8.292420   -3.479154    0.989191
    115          6           0       -8.266317   -2.255228    0.267513
    116          6           0       -8.058489   -4.125818    3.456932
    117          6           0       -8.444423   -4.508416   -0.013923
    118          8           0       -8.615530   -5.726550    0.010349
    119          6           0       -8.221492   -3.855414   -1.445807
    120          6           0       -9.335587   -4.316457   -2.345113
    121          8           0      -10.510479   -3.975499   -2.121547
    122          8           0       -8.807920   -4.899351   -3.436975
    123          6           0       -9.873647   -5.363459   -4.364683
    124          1           0       -6.469153    2.592218   -3.323654
    125          1           0       -7.307493    4.461836    2.576614
    126          1           0       -7.918626   -1.504202    4.438751
    127          1           0       -7.125967   -2.264782   -3.917277
    128          1           0       -7.026998    0.449221   -4.666608
    129          1           0       -5.051813   -1.361268   -3.339615
    130          1           0       -4.878781    0.358038   -2.929328
    131          1           0       -4.763567   -0.103763   -4.600590
    132          1           0       -9.301818   -0.205781   -4.355436
    133          1           0       -9.781042   -1.846144   -3.785565
    134          1           0       -8.079195   -2.159771   -6.046732
    135          1           0       -8.960908   -0.705875   -6.352713
    136          1           0       -6.896511    4.640004   -3.578004
    137          1           0       -6.399954    5.965837   -2.580615
    138          1           0       -8.126452    5.838107   -2.992502
    139          1           0       -7.157096    7.480133   -1.128370
    140          1           0       -8.272960    8.299715    0.108502
    141          1           0       -8.882083    7.177195   -1.141428
    142          1           0       -7.937750    3.314166    4.764142
    143          1           0       -6.695776    0.688200    5.411141
    144          1           0       -5.914888    3.948857    5.560587
    145          1           0       -5.191127    3.229520    4.079109
    146          1           0       -5.319026    2.293129    5.479980
    147          1           0       -8.544385    1.752272    6.761040
    148          1           0       -8.772289    0.050442    6.404875
    149          1           0      -10.038387    2.477493    5.361522
    150          1           0      -10.846964    0.952575    5.876966
    151          1           0      -10.035769    1.101491    4.253977
    152          1           0       -8.834161   -4.866984    3.317305
    153          1           0       -8.167193   -3.609881    4.408649
    154          1           0       -7.043838   -4.505209    3.309233
    155          1           0       -7.244254   -4.179971   -1.805317
    156          1           0       -9.703820   -6.430594   -4.538110
    157          1           0       -9.816190   -4.694819   -5.244098
    158          1           0      -10.892416   -5.368742   -3.995179
 ---------------------------------------------------------------------

 SCF Done:  E(RCAM-B3LYP) =  -4069.81189635     A.U. after   19 cycles

 Excitation energies and oscillator strengths:

 Excited State   1:      Singlet-A      1.6732 eV  741.00 nm  f=0.2211  <S**2>=0.000
     310 -> 316        0.14918
     311 -> 313        0.34603
     312 -> 314        0.59249
 This state for optimization and/or second-order correction.
 Total Energy, E(TD-HF/TD-DFT) =  -4069.75040768
 Copying the excited state density for this state as the 1-particle RhoCI density.

 Excited State   2:      Singlet-A      1.6819 eV  737.17 nm  f=0.5292  <S**2>=0.000
     309 -> 315        0.15204
     311 -> 313        0.59198
     312 -> 314       -0.34584

 Excited State   3:      Singlet-A      2.1860 eV  567.17 nm  f=0.0924  <S**2>=0.000
     310 -> 314        0.63971
     312 -> 316       -0.27163

 Excited State   4:      Singlet-A      2.1928 eV  565.42 nm  f=0.1059  <S**2>=0.000
     309 -> 313        0.63790
     311 -> 315       -0.27714

 Excited State   5:      Singlet-A      2.7636 eV  448.63 nm  f=0.0000  <S**2>=0.000
     312 -> 313        0.70710

 The electronic state is 1-A.
 Alpha  occ. eigenvalues --  -46.87838 -46.87588 -19.26352 -19.26286 -19.19097
 Alpha  occ. eigenvalues --  -19.19089 -19.18845 -19.18650 -19.18225 -19.17983
 Alpha  occ. eigenvalues --  -14.42491 -14.42420 -14.41489 -14.41290 -14.39444
 Alpha  occ. eigenvalues --  -14.39279 -14.38631 -14.38528 -10.39147 -10.39026
 Alpha  occ. eigenvalues --  -10.35477 -10.35327 -10.34445 -10.34160 -10.31751
 Alpha  occ. eigenvalues --  -10.31696 -10.31450 -10.31227 -10.30949 -10.30943
 Alpha  occ. eigenvalues --  -10.30615 -10.30550 -10.30330 -10.30287 -10.30242
 Alpha  occ. eigenvalues --  -10.30074 -10.29961 -10.29832 -10.29673 -10.29363
 Alpha  occ. eigenvalues --  -10.29331 -10.29294 -10.28791 -10.28628 -10.28581
 Alpha  occ. eigenvalues --  -10.28571 -10.28408 -10.28330 -10.28157 -10.28037
 Alpha  occ. eigenvalues --  -10.27928 -10.27837 -10.27768 -10.27625 -10.27585
 Alpha  occ. eigenvalues --  -10.27532 -10.27514 -10.27478 -10.27472 -10.27447
 Alpha  occ. eigenvalues --  -10.27410 -10.27395 -10.27373 -10.27331 -10.27212
 Alpha  occ. eigenvalues --  -10.26980 -10.26750 -10.26610 -10.26433 -10.26349
 Alpha  occ. eigenvalues --  -10.26271 -10.26214 -10.26104 -10.26060 -10.25901
 Alpha  occ. eigenvalues --  -10.25892 -10.25867 -10.25792 -10.25458 -10.25363
 Alpha  occ. eigenvalues --  -10.24879 -10.24827 -10.24801 -10.24719 -10.24697
 Alpha  occ. eigenvalues --  -10.24623  -3.16581  -3.16338  -1.91463  -1.91220
 Alpha  occ. eigenvalues --   -1.91050  -1.90892  -1.90808  -1.90645  -1.16700
 Alpha  occ. eigenvalues --   -1.16580  -1.08685  -1.08592  -1.07245  -1.06903
 Alpha  occ. eigenvalues --   -1.06881  -1.06711  -1.04623  -1.04417  -1.03801
 Alpha  occ. eigenvalues --   -1.03591  -1.03276  -1.02970  -1.02453  -1.02040
 Alpha  occ. eigenvalues --   -0.92019  -0.91914  -0.89557  -0.89435  -0.89229
 Alpha  occ. eigenvalues --   -0.89058  -0.88322  -0.88166  -0.87919  -0.87725
 Alpha  occ. eigenvalues --   -0.87714  -0.87608  -0.87310  -0.87045  -0.85023
 Alpha  occ. eigenvalues --   -0.84917  -0.83972  -0.83826  -0.82999  -0.82866
 Alpha  occ. eigenvalues --   -0.82690  -0.82574  -0.81639  -0.81529  -0.80642
 Alpha  occ. eigenvalues --   -0.80372  -0.78837  -0.78561  -0.77259  -0.77069
 Alpha  occ. eigenvalues --   -0.76978  -0.76827  -0.75969  -0.75756  -0.74934
 Alpha  occ. eigenvalues --   -0.74746  -0.72817  -0.72628  -0.71713  -0.71507
 Alpha  occ. eigenvalues --   -0.69941  -0.69709  -0.68914  -0.68747  -0.67683
 Alpha  occ. eigenvalues --   -0.67532  -0.67260  -0.67122  -0.65330  -0.65191
 Alpha  occ. eigenvalues --   -0.64899  -0.64701  -0.64664  -0.64582  -0.64307
 Alpha  occ. eigenvalues --   -0.64146  -0.62352  -0.62213  -0.60478  -0.60271
 Alpha  occ. eigenvalues --   -0.59846  -0.59711  -0.59030  -0.58923  -0.58547
 Alpha  occ. eigenvalues --   -0.58357  -0.57639  -0.57486  -0.57350  -0.57174
 Alpha  occ. eigenvalues --   -0.56354  -0.56132  -0.56034  -0.55817  -0.55560
 Alpha  occ. eigenvalues --   -0.55382  -0.55381  -0.55191  -0.54571  -0.54431
 Alpha  occ. eigenvalues --   -0.53937  -0.53823  -0.53339  -0.53263  -0.53160
 Alpha  occ. eigenvalues --   -0.53067  -0.52963  -0.52830  -0.52792  -0.52588
 Alpha  occ. eigenvalues --   -0.52473  -0.52356  -0.51967  -0.51821  -0.51659
 Alpha  occ. eigenvalues --   -0.51578  -0.51242  -0.51134  -0.50603  -0.50401
 Alpha  occ. eigenvalues --   -0.50065  -0.49954  -0.49902  -0.49807  -0.49555
 Alpha  occ. eigenvalues --   -0.49411  -0.49260  -0.49139  -0.49125  -0.49022
 Alpha  occ. eigenvalues --   -0.48641  -0.48498  -0.48485  -0.48482  -0.48321
 Alpha  occ. eigenvalues --   -0.48269  -0.47735  -0.47520  -0.47336  -0.47047
 Alpha  occ. eigenvalues --   -0.46838  -0.46640  -0.46597  -0.46470  -0.46402
 Alpha  occ. eigenvalues --   -0.46207  -0.46203  -0.46024  -0.45874  -0.45755
 Alpha  occ. eigenvalues --   -0.45236  -0.45152  -0.44628  -0.44543  -0.44445
 Alpha  occ. eigenvalues --   -0.44396  -0.44184  -0.44129  -0.44063  -0.44049
 Alpha  occ. eigenvalues --   -0.44016  -0.43866  -0.43547  -0.43488  -0.43425
 Alpha  occ. eigenvalues --   -0.43312  -0.43070  -0.42865  -0.42834  -0.42755
 Alpha  occ. eigenvalues --   -0.42696  -0.42496  -0.42050  -0.41902  -0.41748
 Alpha  occ. eigenvalues --   -0.41599  -0.41574  -0.41383  -0.41181  -0.40912
 Alpha  occ. eigenvalues --   -0.40908  -0.40855  -0.40650  -0.40625  -0.40608
 Alpha  occ. eigenvalues --   -0.40433  -0.40275  -0.40146  -0.39474  -0.39379
 Alpha  occ. eigenvalues --   -0.38504  -0.38292  -0.37791  -0.37575  -0.37357
 Alpha  occ. eigenvalues --   -0.37307  -0.37203  -0.37120  -0.36770  -0.36709
 Alpha  occ. eigenvalues --   -0.36240  -0.36154  -0.34329  -0.34182  -0.33835
 Alpha  occ. eigenvalues --   -0.33797  -0.33230  -0.33104  -0.31375  -0.31209
 Alpha  occ. eigenvalues --   -0.31077  -0.30901  -0.30085  -0.29888  -0.29490
 Alpha  occ. eigenvalues --   -0.29368  -0.29255  -0.29141  -0.24123  -0.23963
 Alpha  occ. eigenvalues --   -0.21169  -0.21044
 Alpha virt. eigenvalues --   -0.08816  -0.08719  -0.01789  -0.01614  -0.00096
 Alpha virt. eigenvalues --    0.00045   0.02153   0.02274   0.03076   0.03291
 Alpha virt. eigenvalues --    0.04677   0.04810   0.05034   0.05231   0.06134

 Mulliken charges:
               1
     1  Mg   0.838683
     2  C   -0.003052
     3  C   -0.094085
     4  C   -0.045807
     5  C   -0.063971
     6  N   -0.256810
     7  C   -0.052503
     8  C   -0.014020
     9  C   -0.087041
    10  C    0.046346
    11  C    0.104794
    12  C    0.053464
    13  C   -0.071842
    14  H    0.036054
    15  N   -0.433183
    16  C    0.168469
    17  C   -0.177057
    18  C   -0.003914
    19  C    0.148759
    20  C    0.110139
    21  C    0.012362
    22  O   -0.249368
    23  C    0.062445
    24  N   -0.341138
    25  C    0.041274
    26  C   -0.028251
    27  C   -0.023961
    28  C    0.074795
    29  C    0.076117
    30  C    0.035130
    31  C   -0.004523
    32  N   -0.310409
    33  C    0.080291
    34  C   -0.169949
    35  C    0.008227
    36  C    0.082840
    37  C    0.127386
    38  C    0.045891
    39  O   -0.188795
    40  C   -0.005226
    41  C    0.212819
    42  O   -0.257435
    43  O   -0.304671
    44  C    0.157804
    45  H   -0.017483
    46  H   -0.016628
    47  H   -0.041561
    48  H    0.000920
    49  H   -0.003943
    50  H    0.025469
    51  H    0.016505
    52  H    0.016768
    53  H    0.011268
    54  H    0.043907
    55  H    0.017912
    56  H    0.018115
    57  H    0.005941
    58  H    0.026980
    59  H    0.039646
    60  H    0.037396
    61  H    0.035869
    62  H    0.031461
    63  H    0.016758
    64  H    0.009497
    65  H    0.023444
    66  H    0.012555
    67  H    0.004805
    68  H    0.006644
    69  H    0.004568
    70  H    0.009117
    71  H    0.017982
    72  H    0.028745
    73  H    0.047145
    74  H    0.009063
    75  H    0.046072
    76  H    0.035213
    77  H    0.042877
    78  H    0.046584
    79  H    0.053309
    80  Mg   0.837952
    81  C   -0.016780
    82  C   -0.087519
    83  C   -0.045495
    84  C   -0.064947
    85  N   -0.254590
    86  C   -0.049727
    87  C   -0.015139
    88  C   -0.090489
    89  C    0.045671
    90  C    0.114201
    91  C    0.062490
    92  C   -0.077853
    93  H    0.034610
    94  N   -0.423557
    95  C    0.162865
    96  C   -0.174225
    97  C   -0.007876
    98  C    0.152236
    99  C    0.099185
   100  C    0.015580
   101  O   -0.253452
   102  C    0.061197
   103  N   -0.350002
   104  C    0.037591
   105  C   -0.019819
   106  C   -0.034742
   107  C    0.088865
   108  C    0.073717
   109  C    0.034791
   110  C   -0.007619
   111  N   -0.324084
   112  C    0.078392
   113  C   -0.163259
   114  C    0.002245
   115  C    0.096121
   116  C    0.131500
   117  C    0.042304
   118  O   -0.188079
   119  C    0.000928
   120  C    0.211251
   121  O   -0.251117
   122  O   -0.305575
   123  C    0.152081
   124  H   -0.018911
   125  H   -0.015794
   126  H   -0.040726
   127  H   -0.000607
   128  H   -0.004193
   129  H    0.022382
   130  H    0.014974
   131  H    0.017064
   132  H    0.013878
   133  H    0.037497
   134  H    0.020932
   135  H    0.019736
   136  H    0.009201
   137  H    0.026628
   138  H    0.039667
   139  H    0.038534
   140  H    0.036148
   141  H    0.033860
   142  H    0.014216
   143  H    0.012212
   144  H    0.024758
   145  H    0.011941
   146  H    0.005367
   147  H    0.005941
   148  H    0.003525
   149  H    0.010833
   150  H    0.017763
   151  H    0.030282
   152  H    0.045833
   153  H    0.008289
   154  H    0.046979
   155  H    0.035143
   156  H    0.043774
   157  H    0.049585
   158  H    0.053462
 Sum of Mulliken charges =  -0.00000

 Dipole moment (field-independent basis, Debye):
    X=              4.4454    Y=              3.2924    Z=              1.2815  Tot=              5.6784
 Quadrupole moment (field-independent basis, Debye-Ang):
   XX=           -519.7588   YY=           -525.2092   ZZ=           -473.4516
   XY=            -18.0388   XZ=             55.4317   YZ=             22.5909

 Normal termination of Gaussian 16 at Sat Sep  4 12:21:36 2021.
