 Gaussian 16, Revision A.03,
 Gaussian 16:  ES64L-G16RevA.03 25-Dec-2016

 -----------------------------------
 #p cam-b3lyp/Def2SVP td=(nstates=5)
 -----------------------------------

 --------------------------------
 TDDFT excited states in gaussian
 --------------------------------
 Symbolic Z-matrix:
 Charge =  0 Multiplicity = 1

                         Standard orientation:
 ---------------------------------------------------------------------
 Center     Atomic      Atomic             Coordinates (Angstroms)
 Number     Number       Type             X           Y           Z
 ---------------------------------------------------------------------
      1         12           0        3.480836   -1.398082    0.308179
      2          6           0        4.419569    1.581598   -1.438963
      3          6           0        4.482213    0.148565    3.180146
      4          6           0        3.088013   -4.165183    1.806666
      5          6           0        3.631577   -3.062217   -2.750185
      6          7           0        4.324698    0.611968    0.693201
      7          6           0        4.579236    1.680867   -0.055020
      8          6           0        4.959766    2.941493    0.777682
      9          6           0        5.488004    2.220900    2.098177
     10          6           0        4.692121    0.930947    2.005902
     11          6           0        6.975146    1.884627    2.055399
     12          6           0        3.721574    3.851679    1.077973
     13          6           0        4.052046    5.253717    1.598005
     14          1           0        3.207065    6.367494    1.194453
     15          7           0        3.281033   -1.795655    2.232982
     16          6           0        3.736111   -1.046764    3.266109
     17          6           0        3.338012   -1.764489    4.496178
     18          6           0        2.781441   -3.085534    4.092247
     19          6           0        3.055567   -3.078957    2.677966
     20          6           0        3.455233   -1.174021    5.867803
     21          6           0        2.118635   -4.184623    4.860899
     22          8           0        1.920473   -5.343012    4.357471
     23          6           0        1.782837   -3.893359    6.266405
     24          7           0        3.587092   -3.384052   -0.326067
     25          6           0        3.316404   -4.391286    0.511304
     26          6           0        3.178932   -5.691135   -0.224518
     27          6           0        3.172113   -5.321218   -1.777859
     28          6           0        3.401873   -3.794431   -1.657863
     29          6           0        4.272928   -6.732940    0.047191
     30          6           0        1.968482   -5.822439   -2.614800
     31          6           0        0.707491   -5.111512   -2.177099
     32          7           0        3.765741   -0.835819   -1.768774
     33          6           0        3.815225   -1.695332   -2.875780
     34          6           0        4.134483   -0.866214   -4.052515
     35          6           0        4.265734    0.423882   -3.542347
     36          6           0        4.068498    0.397875   -2.132130
     37          6           0        4.323712   -1.341419   -5.380222
     38          6           0        4.551033    1.814382   -3.856946
     39          8           0        4.705774    2.453685   -4.898503
     40          6           0        4.782349    2.599840   -2.491159
     41          6           0        3.972910    3.866468   -2.552572
     42          8           0        2.725564    3.828778   -2.561114
     43          8           0        4.779776    4.919803   -2.352586
     44          6           0        4.034464    6.206774   -2.371800
     45          1           0        4.980866    0.441962    4.105999
     46          1           0        2.847280   -5.125752    2.266875
     47          1           0        3.611556   -3.498753   -3.750429
     48          1           0        5.752690    3.550693    0.343435
     49          1           0        5.215303    2.770816    2.998704
     50          1           0        7.399566    2.079779    1.070664
     51          1           0        7.040495    0.823007    2.294534
     52          1           0        7.512746    2.404181    2.849016
     53          1           0        3.185071    3.455681    1.940186
     54          1           0        3.081592    3.934797    0.198861
     55          1           0        5.103863    5.497566    1.445925
     56          1           0        3.927635    5.254440    2.680928
     57          1           0        4.050877   -0.262036    5.861667
     58          1           0        4.036714   -1.874205    6.467246
     59          1           0        2.481192   -1.014562    6.330565
     60          1           0        2.692957   -3.633568    6.807459
     61          1           0        1.235470   -4.761872    6.630994
     62          1           0        1.143152   -3.011003    6.301048
     63          1           0        2.242640   -6.186750    0.028759
     64          1           0        4.042680   -5.722051   -2.297589
     65          1           0        3.889047   -7.686184    0.411422
     66          1           0        4.981530   -6.301174    0.753414
     67          1           0        4.919103   -6.949588   -0.803068
     68          1           0        1.809672   -6.887658   -2.450383
     69          1           0        2.095084   -5.667507   -3.686350
     70          1           0        0.386764   -5.693900   -1.314087
     71          1           0       -0.041290   -5.142744   -2.969287
     72          1           0        0.921013   -4.101282   -1.827343
     73          1           0        3.798097   -0.643479   -6.031817
     74          1           0        3.941996   -2.355567   -5.495986
     75          1           0        5.409615   -1.292403   -5.459393
     76          1           0        5.851115    2.799960   -2.421776
     77          1           0        4.503959    6.838356   -3.126063
     78          1           0        4.019356    6.571474   -1.344585
     79          1           0        3.010945    6.165523   -2.746027
     80         12           0       -4.280870    0.186440   -0.258986
     81          6           0       -1.389427    2.179665    0.479714
     82          6           0       -6.150908    2.608737    1.247660
     83          6           0       -6.788078   -1.744257   -0.490848
     84          6           0       -2.134543   -2.530182   -0.657708
     85          7           0       -3.726910    2.100579    0.700935
     86          6           0       -2.603956    2.782890    0.867607
     87          6           0       -2.801297    4.223526    1.410892
     88          6           0       -4.221009    4.016140    2.132217
     89          6           0       -4.756126    2.859440    1.290560
     90          6           0       -4.101408    3.544047    3.571712
     91          6           0       -2.890819    5.288542    0.262092
     92          6           0       -2.773357    6.743026    0.722985
     93          1           0       -2.088198    7.695479   -0.146415
     94          7           0       -6.222321    0.584548   -0.154835
     95          6           0       -6.807261    1.622614    0.478839
     96          6           0       -8.254566    1.453559    0.276603
     97          6           0       -8.485324    0.142055   -0.387787
     98          6           0       -7.146536   -0.411441   -0.350649
     99          6           0       -9.254863    2.516328    0.627804
    100          6           0       -9.710894   -0.511836   -0.950462
    101          8           0       -9.726471   -1.753839   -1.266709
    102          6           0      -10.919317    0.321470   -1.032987
    103          7           0       -4.465173   -1.883318   -0.326113
    104          6           0       -5.666987   -2.465649   -0.482552
    105          6           0       -5.524548   -3.939511   -0.778881
    106          6           0       -3.963190   -4.178470   -1.029210
    107          6           0       -3.438908   -2.756110   -0.733592
    108          6           0       -6.015496   -4.888338    0.314326
    109          6           0       -3.560251   -4.850903   -2.370158
    110          6           0       -3.861993   -3.922311   -3.524306
    111          7           0       -2.141489   -0.112054   -0.303881
    112          6           0       -1.454040   -1.335961   -0.457355
    113          6           0       -0.012897   -1.047563   -0.307885
    114          6           0        0.036930    0.331204   -0.052910
    115          6           0       -1.281464    0.860837   -0.024076
    116          6           0        1.037513   -2.006571   -0.363246
    117          6           0        0.904395    1.457099    0.208928
    118          8           0        2.122248    1.631641    0.218427
    119          6           0        0.012222    2.681074    0.690909
    120          6           0        0.443165    3.900680   -0.076778
    121          8           0        0.271812    3.966515   -1.306776
    122          8           0        0.784616    4.870079    0.791590
    123          6           0        1.208798    6.103937    0.077819
    124          1           0       -6.803492    3.194389    1.895768
    125          1           0       -7.611141   -2.436015   -0.684487
    126          1           0       -1.394644   -3.306090   -0.865526
    127          1           0       -2.059886    4.541891    2.133903
    128          1           0       -4.852842    4.893409    2.020221
    129          1           0       -3.080474    3.311718    3.836012
    130          1           0       -4.721422    2.660062    3.643865
    131          1           0       -4.545871    4.279927    4.247931
    132          1           0       -3.913321    5.299839   -0.136803
    133          1           0       -2.161072    5.090512   -0.498742
    134          1           0       -2.397037    6.820795    1.750249
    135          1           0       -3.776435    7.173700    0.771692
    136          1           0       -8.806913    3.300216    1.250908
    137          1           0      -10.003790    2.048803    1.276185
    138          1           0       -9.756019    2.929682   -0.250062
    139          1           0      -11.177130    0.683044   -0.040382
    140          1           0      -11.663870   -0.293126   -1.542676
    141          1           0      -10.694322    1.204776   -1.641069
    142          1           0       -6.069368   -4.208101   -1.675610
    143          1           0       -3.524872   -4.839626   -0.267245
    144          1           0       -6.785879   -5.599631   -0.038727
    145          1           0       -6.393674   -4.295333    1.136428
    146          1           0       -5.238635   -5.480603    0.794865
    147          1           0       -4.153913   -5.753495   -2.534614
    148          1           0       -2.515565   -5.140635   -2.411274
    149          1           0       -4.925111   -4.099802   -3.712397
    150          1           0       -3.258974   -4.181438   -4.392209
    151          1           0       -3.750754   -2.873612   -3.225142
    152          1           0        1.827053   -1.569448   -0.959945
    153          1           0        0.693983   -2.948565   -0.785644
    154          1           0        1.276044   -2.096184    0.699925
    155          1           0        0.167413    2.796945    1.764256
    156          1           0        2.210032    6.355096    0.441325
    157          1           0        0.406901    6.844248    0.258528
    158          1           0        1.383387    6.030742   -0.989238
 ---------------------------------------------------------------------

 SCF Done:  E(RCAM-B3LYP) =  -4069.76982613     A.U. after   19 cycles

 Excitation energies and oscillator strengths:

 Excited State   1:      Singlet-A      1.6155 eV  767.44 nm  f=0.3577  <S**2>=0.000
     309 -> 315       -0.10350
     310 -> 316        0.10813
     311 -> 313       -0.40790
     312 -> 313        0.35283
     312 -> 314        0.42252
 This state for optimization and/or second-order correction.
 Total Energy, E(TD-HF/TD-DFT) =  -4069.71045583
 Copying the excited state density for this state as the 1-particle RhoCI density.

 Excited State   2:      Singlet-A      1.6637 eV  745.22 nm  f=0.4352  <S**2>=0.000
     309 -> 315        0.12824
     310 -> 316        0.10624
     311 -> 313        0.52769
     312 -> 313        0.11856
     312 -> 314        0.41884

 Excited State   3:      Singlet-A      1.8146 eV  683.26 nm  f=0.0455  <S**2>=0.000
     311 -> 313        0.13842
     312 -> 313        0.59310
     312 -> 314       -0.33668

 Excited State   4:      Singlet-A      2.0930 eV  592.39 nm  f=0.0356  <S**2>=0.000
     309 -> 313       -0.17725
     310 -> 313        0.22963
     310 -> 314        0.56849
     311 -> 314       -0.15978
     312 -> 316       -0.21535

 Excited State   5:      Singlet-A      2.1718 eV  570.89 nm  f=0.1236  <S**2>=0.000
     309 -> 313        0.61878
     310 -> 314        0.15546
     311 -> 315       -0.25006

 The electronic state is 1-A.
 Alpha  occ. eigenvalues --  -46.87902 -46.86253 -19.26370 -19.25555 -19.18984
 Alpha  occ. eigenvalues --  -19.18953 -19.18801 -19.18060 -19.17914 -19.17210
 Alpha  occ. eigenvalues --  -14.42730 -14.41572 -14.40572 -14.40025 -14.39614
 Alpha  occ. eigenvalues --  -14.38906 -14.38102 -14.37263 -10.38766 -10.37947
 Alpha  occ. eigenvalues --  -10.35623 -10.34936 -10.34711 -10.33395 -10.31615
 Alpha  occ. eigenvalues --  -10.31510 -10.31223 -10.31169 -10.30711 -10.30703
 Alpha  occ. eigenvalues --  -10.30280 -10.30162 -10.29996 -10.29736 -10.29736
 Alpha  occ. eigenvalues --  -10.29469 -10.29400 -10.29272 -10.29252 -10.28927
 Alpha  occ. eigenvalues --  -10.28893 -10.28735 -10.28722 -10.28617 -10.28441
 Alpha  occ. eigenvalues --  -10.28357 -10.28271 -10.27929 -10.27775 -10.27718
 Alpha  occ. eigenvalues --  -10.27703 -10.27572 -10.27484 -10.27417 -10.27321
 Alpha  occ. eigenvalues --  -10.27151 -10.27096 -10.27008 -10.26888 -10.26831
 Alpha  occ. eigenvalues --  -10.26762 -10.26757 -10.26728 -10.26721 -10.26602
 Alpha  occ. eigenvalues --  -10.26599 -10.26504 -10.26267 -10.26141 -10.26140
 Alpha  occ. eigenvalues --  -10.26095 -10.26044 -10.25950 -10.25842 -10.25459
 Alpha  occ. eigenvalues --  -10.25416 -10.25160 -10.25122 -10.25100 -10.25095
 Alpha  occ. eigenvalues --  -10.25064 -10.24941 -10.24911 -10.24776 -10.23807
 Alpha  occ. eigenvalues --  -10.23764  -3.16649  -3.15035  -1.91530  -1.91119
 Alpha  occ. eigenvalues --   -1.90959  -1.89928  -1.89488  -1.89368  -1.16568
 Alpha  occ. eigenvalues --   -1.15851  -1.09938  -1.07664  -1.07198  -1.06654
 Alpha  occ. eigenvalues --   -1.06484  -1.05602  -1.04747  -1.03920  -1.03305
 Alpha  occ. eigenvalues --   -1.03187  -1.02481  -1.02362  -1.02139  -1.01227
 Alpha  occ. eigenvalues --   -0.92302  -0.90807  -0.89691  -0.89376  -0.88949
 Alpha  occ. eigenvalues --   -0.88778  -0.88361  -0.87908  -0.87835  -0.87552
 Alpha  occ. eigenvalues --   -0.87392  -0.86894  -0.86542  -0.86359  -0.85221
 Alpha  occ. eigenvalues --   -0.84033  -0.83921  -0.83502  -0.83129  -0.82855
 Alpha  occ. eigenvalues --   -0.82293  -0.81968  -0.81743  -0.80864  -0.80648
 Alpha  occ. eigenvalues --   -0.79596  -0.79111  -0.77835  -0.77529  -0.77149
 Alpha  occ. eigenvalues --   -0.76560  -0.76256  -0.75785  -0.75010  -0.74982
 Alpha  occ. eigenvalues --   -0.74195  -0.73213  -0.71844  -0.71796  -0.70685
 Alpha  occ. eigenvalues --   -0.69902  -0.69630  -0.69106  -0.67962  -0.67890
 Alpha  occ. eigenvalues --   -0.67412  -0.66718  -0.66175  -0.65521  -0.65044
 Alpha  occ. eigenvalues --   -0.64872  -0.64484  -0.64295  -0.63899  -0.63795
 Alpha  occ. eigenvalues --   -0.63303  -0.62439  -0.61505  -0.60624  -0.60212
 Alpha  occ. eigenvalues --   -0.59668  -0.59414  -0.59050  -0.58433  -0.58326
 Alpha  occ. eigenvalues --   -0.58003  -0.57505  -0.57458  -0.57024  -0.56789
 Alpha  occ. eigenvalues --   -0.56555  -0.56368  -0.55941  -0.55806  -0.55435
 Alpha  occ. eigenvalues --   -0.55189  -0.54863  -0.54762  -0.54604  -0.54173
 Alpha  occ. eigenvalues --   -0.54136  -0.53895  -0.53633  -0.53349  -0.53133
 Alpha  occ. eigenvalues --   -0.53025  -0.52874  -0.52669  -0.52441  -0.52345
 Alpha  occ. eigenvalues --   -0.52252  -0.52068  -0.52013  -0.51790  -0.51588
 Alpha  occ. eigenvalues --   -0.51024  -0.50726  -0.50613  -0.50576  -0.50299
 Alpha  occ. eigenvalues --   -0.50148  -0.49960  -0.49857  -0.49793  -0.49639
 Alpha  occ. eigenvalues --   -0.49470  -0.49229  -0.49093  -0.48834  -0.48666
 Alpha  occ. eigenvalues --   -0.48275  -0.48198  -0.48128  -0.48029  -0.47881
 Alpha  occ. eigenvalues --   -0.47746  -0.47611  -0.47560  -0.47228  -0.47042
 Alpha  occ. eigenvalues --   -0.46816  -0.46723  -0.46614  -0.46383  -0.46199
 Alpha  occ. eigenvalues --   -0.45867  -0.45783  -0.45469  -0.45371  -0.45184
 Alpha  occ. eigenvalues --   -0.45138  -0.44784  -0.44714  -0.44623  -0.44376
 Alpha  occ. eigenvalues --   -0.44259  -0.44201  -0.43771  -0.43674  -0.43630
 Alpha  occ. eigenvalues --   -0.43453  -0.43422  -0.43228  -0.43153  -0.42960
 Alpha  occ. eigenvalues --   -0.42744  -0.42641  -0.42505  -0.42353  -0.42258
 Alpha  occ. eigenvalues --   -0.42115  -0.42029  -0.41819  -0.41586  -0.41546
 Alpha  occ. eigenvalues --   -0.41280  -0.41109  -0.40918  -0.40881  -0.40668
 Alpha  occ. eigenvalues --   -0.40452  -0.40365  -0.40270  -0.39973  -0.39832
 Alpha  occ. eigenvalues --   -0.39685  -0.39537  -0.39219  -0.39089  -0.38523
 Alpha  occ. eigenvalues --   -0.38455  -0.37833  -0.37628  -0.37432  -0.37390
 Alpha  occ. eigenvalues --   -0.37006  -0.36513  -0.36265  -0.36190  -0.35814
 Alpha  occ. eigenvalues --   -0.35402  -0.34541  -0.34382  -0.33667  -0.33342
 Alpha  occ. eigenvalues --   -0.33040  -0.32511  -0.32062  -0.31498  -0.31225
 Alpha  occ. eigenvalues --   -0.30725  -0.30600  -0.30096  -0.29575  -0.29317
 Alpha  occ. eigenvalues --   -0.29004  -0.28417  -0.28258  -0.24265  -0.22671
 Alpha  occ. eigenvalues --   -0.21368  -0.19978
 Alpha virt. eigenvalues --   -0.09149  -0.07615  -0.01916  -0.00760  -0.00339
 Alpha virt. eigenvalues --    0.01014   0.01665   0.03083   0.03167   0.04517
 Alpha virt. eigenvalues --    0.04863   0.05818   0.05971   0.06203   0.06691

 Mulliken charges:
               1
     1  Mg   0.511532
     2  C    0.026458
     3  C   -0.098679
     4  C   -0.046591
     5  C   -0.049555
     6  N   -0.221302
     7  C   -0.019167
     8  C   -0.012636
     9  C   -0.082910
    10  C    0.053780
    11  C    0.107632
    12  C    0.057593
    13  C   -0.073156
    14  H    0.037545
    15  N   -0.416624
    16  C    0.172083
    17  C   -0.180670
    18  C   -0.008524
    19  C    0.142543
    20  C    0.111534
    21  C    0.009012
    22  O   -0.253668
    23  C    0.063974
    24  N   -0.303951
    25  C    0.039891
    26  C   -0.024897
    27  C   -0.021909
    28  C    0.047540
    29  C    0.077903
    30  C    0.060801
    31  C   -0.033249
    32  N   -0.313771
    33  C    0.068993
    34  C   -0.171933
    35  C    0.012354
    36  C    0.080665
    37  C    0.128637
    38  C    0.045073
    39  O   -0.191493
    40  C   -0.015411
    41  C    0.207848
    42  O   -0.237446
    43  O   -0.305860
    44  C    0.152014
    45  H   -0.023228
    46  H   -0.022376
    47  H   -0.048527
    48  H   -0.011805
    49  H   -0.010588
    50  H    0.023558
    51  H    0.014852
    52  H    0.011465
    53  H    0.006730
    54  H    0.053551
    55  H    0.011496
    56  H    0.012749
    57  H    0.004791
    58  H    0.023868
    59  H    0.034938
    60  H    0.036678
    61  H    0.032307
    62  H    0.029293
    63  H    0.010118
    64  H    0.008323
    65  H    0.020239
    66  H    0.014262
    67  H    0.002991
    68  H    0.004298
    69  H    0.002471
    70  H    0.014635
    71  H    0.025937
    72  H    0.025828
    73  H    0.045337
    74  H    0.005695
    75  H    0.043866
    76  H    0.031783
    77  H    0.041285
    78  H    0.038833
    79  H    0.064385
    80  Mg   0.842326
    81  C   -0.021969
    82  C   -0.087858
    83  C   -0.045453
    84  C   -0.064376
    85  N   -0.255054
    86  C   -0.052842
    87  C   -0.015031
    88  C   -0.090581
    89  C    0.047241
    90  C    0.114414
    91  C    0.062719
    92  C   -0.077413
    93  H    0.035881
    94  N   -0.423772
    95  C    0.164598
    96  C   -0.173752
    97  C   -0.006774
    98  C    0.153217
    99  C    0.099091
   100  C    0.016364
   101  O   -0.251813
   102  C    0.060844
   103  N   -0.349792
   104  C    0.039859
   105  C   -0.021009
   106  C   -0.034113
   107  C    0.086324
   108  C    0.072995
   109  C    0.034162
   110  C   -0.006864
   111  N   -0.324229
   112  C    0.080088
   113  C   -0.111490
   114  C    0.011886
   115  C    0.101436
   116  C    0.076601
   117  C    0.082022
   118  O   -0.186583
   119  C    0.024262
   120  C    0.206145
   121  O   -0.216462
   122  O   -0.318777
   123  C    0.205812
   124  H   -0.019018
   125  H   -0.014471
   126  H   -0.041020
   127  H   -0.001600
   128  H   -0.003635
   129  H    0.021722
   130  H    0.014585
   131  H    0.016640
   132  H    0.013806
   133  H    0.041288
   134  H    0.019469
   135  H    0.019239
   136  H    0.009419
   137  H    0.027066
   138  H    0.041049
   139  H    0.038481
   140  H    0.037343
   141  H    0.034458
   142  H    0.014897
   143  H    0.015354
   144  H    0.025455
   145  H    0.011484
   146  H    0.008119
   147  H    0.005441
   148  H    0.001880
   149  H    0.010764
   150  H    0.016912
   151  H    0.030295
   152  H    0.164095
   153  H   -0.014866
   154  H    0.163497
   155  H    0.030938
   156  H   -0.026379
   157  H    0.045596
   158  H    0.047379
 Sum of Mulliken charges =  -0.00000

 Dipole moment (field-independent basis, Debye):
    X=             -3.5164    Y=              3.2701    Z=              5.6484  Tot=              7.4137
 Quadrupole moment (field-independent basis, Debye-Ang):
   XX=           -499.6123   YY=           -478.3371   ZZ=           -515.0655
   XY=            -25.9139   XZ=              7.4844   YZ=             43.4890

 Normal termination of Gaussian 16 at Thu Sep  9 01:41:53 2021.
