 Gaussian 16, Revision A.03,
 Gaussian 16:  ES64L-G16RevA.03 25-Dec-2016

 -----------------------------------
 #p cam-b3lyp/Def2SVP td=(nstates=5)
 -----------------------------------

 --------------------------------
 TDDFT excited states in gaussian
 --------------------------------
 Symbolic Z-matrix:
 Charge =  0 Multiplicity = 1

                         Standard orientation:
 ---------------------------------------------------------------------
 Center     Atomic      Atomic             Coordinates (Angstroms)
 Number     Number       Type             X           Y           Z
 ---------------------------------------------------------------------
      1         12           0       -5.172832   -0.807622   -0.008253
      2          6           0       -5.483036    1.936991    2.268387
      3          6           0       -6.093037    1.342639   -2.492738
      4          6           0       -5.347602   -3.304354   -1.955663
      5          6           0       -5.393095   -2.927806    2.748912
      6          7           0       -5.694139    1.343783    0.010325
      7          6           0       -5.716394    2.294978    0.938712
      8          6           0       -5.936696    3.722715    0.355267
      9          6           0       -6.664890    3.328298   -1.007145
     10          6           0       -6.090520    1.935208   -1.195091
     11          6           0       -8.180999    3.221300   -0.878821
     12          6           0       -4.587208    4.470476    0.087933
     13          6           0       -4.713751    5.974655   -0.170501
     14          1           0       -3.669987    6.860251    0.323082
     15          7           0       -5.171555   -0.895622   -1.981855
     16          6           0       -5.563838    0.079779   -2.836251
     17          6           0       -5.374198   -0.469107   -4.196193
     18          6           0       -5.019530   -1.909187   -4.060274
     19          6           0       -5.193261   -2.102955   -2.643358
     20          6           0       -5.483191    0.358346   -5.440056
     21          6           0       -4.602035   -2.948753   -5.051804
     22          8           0       -4.566200   -4.192701   -4.758748
     23          6           0       -4.317454   -2.476044   -6.418772
     24          7           0       -5.565488   -2.832838    0.311051
     25          6           0       -5.523058   -3.711225   -0.696728
     26          6           0       -5.554894   -5.123350   -0.191921
     27          6           0       -5.382422   -5.030296    1.392802
     28          6           0       -5.362290   -3.488602    1.537869
     29          6           0       -6.822803   -5.923356   -0.521174
     30          6           0       -4.225664   -5.845627    2.023331
     31          6           0       -2.896139   -5.271763    1.587278
     32          7           0       -5.220205   -0.572355    2.148933
     33          6           0       -5.337753   -1.590845    3.105769
     34          6           0       -5.434862   -0.936479    4.423510
     35          6           0       -5.383397    0.426569    4.138385
     36          6           0       -5.288268    0.612500    2.729602
     37          6           0       -5.611097   -1.597328    5.671170
     38          6           0       -5.411447    1.769714    4.694291
     39          8           0       -5.387381    2.237300    5.833710
     40          6           0       -5.599824    2.803409    3.497705
     41          6           0       -4.588521    3.901785    3.682490
     42          8           0       -3.367136    3.672730    3.567954
     43          8           0       -5.220315    5.084702    3.728170
     44          6           0       -4.271540    6.219917    3.880705
     45          1           0       -6.596831    1.863023   -3.309643
     46          1           0       -5.301577   -4.197309   -2.582521
     47          1           0       -5.379001   -3.526983    3.661185
     48          1           0       -6.586188    4.362650    0.952817
     49          1           0       -6.365451    3.975950   -1.830919
     50          1           0       -8.499993    3.307607    0.159791
     51          1           0       -8.438081    2.238993   -1.275652
     52          1           0       -8.676585    3.945118   -1.526322
     53          1           0       -4.183175    4.150559   -0.872520
     54          1           0       -3.884824    4.302917    0.905189
     55          1           0       -5.697685    6.346935    0.116188
     56          1           0       -4.663865    6.141715   -1.246513
     57          1           0       -5.916905    1.336072   -5.233931
     58          1           0       -6.212008   -0.131504   -6.085487
     59          1           0       -4.529454    0.443687   -5.961050
     60          1           0       -5.205823   -1.991270   -6.824166
     61          1           0       -3.948035   -3.342705   -6.965836
     62          1           0       -3.543571   -1.709244   -6.373262
     63          1           0       -4.733314   -5.705661   -0.607067
     64          1           0       -6.270733   -5.376152    1.921916
     65          1           0       -6.628297   -6.847524   -1.065956
     66          1           0       -7.495370   -5.273769   -1.080621
     67          1           0       -7.437533   -6.180880    0.340920
     68          1           0       -4.257817   -6.878537    1.678353
     69          1           0       -4.252551   -5.858908    3.112987
     70          1           0       -2.735465   -5.739927    0.616795
     71          1           0       -2.111592   -5.552387    2.290803
     72          1           0       -2.961448   -4.195972    1.423282
     73          1           0       -4.934114   -1.110040    6.372749
     74          1           0       -5.396671   -2.662614    5.588771
     75          1           0       -6.665893   -1.396974    5.858576
     76          1           0       -6.622565    3.173637    3.561381
     77          1           0       -4.577668    6.777348    4.766025
     78          1           0       -4.264845    6.748418    2.927266
     79          1           0       -3.246416    5.959047    4.146047
     80         12           0        5.399533   -0.467621    0.095955
     81          6           0        4.543884    1.921253   -2.441803
     82          6           0        7.037257    2.053804    1.706824
     83          6           0        6.546941   -2.633794    2.110541
     84          6           0        4.703813   -2.973497   -2.224006
     85          7           0        5.682496    1.668676   -0.402489
     86          6           0        5.259420    2.478391   -1.361510
     87          6           0        5.554383    3.981616   -1.110756
     88          6           0        6.803545    3.818678   -0.114807
     89          6           0        6.476718    2.443729    0.464310
     90          6           0        8.139086    3.728757   -0.834234
     91          6           0        4.356510    4.717664   -0.414092
     92          6           0        4.450237    6.245071   -0.418292
     93          1           0        3.218197    7.017642   -0.551314
     94          7           0        6.186293   -0.249689    1.904845
     95          6           0        6.791713    0.849261    2.401887
     96          6           0        7.214427    0.493764    3.765373
     97          6           0        6.955676   -0.956910    3.973464
     98          6           0        6.563636   -1.349440    2.634686
     99          6           0        7.725637    1.506180    4.748781
    100          6           0        7.058036   -1.846604    5.175198
    101          8           0        7.013974   -3.123523    5.073358
    102          6           0        7.304971   -1.182517    6.463421
    103          7           0        5.802131   -2.498230   -0.096082
    104          6           0        6.246759   -3.216797    0.949811
    105          6           0        6.201767   -4.696828    0.653359
    106          6           0        5.404014   -4.834685   -0.725823
    107          6           0        5.194267   -3.338703   -1.047466
    108          6           0        7.557442   -5.391766    0.528490
    109          6           0        4.165967   -5.772700   -0.732015
    110          6           0        3.072972   -5.190449    0.135001
    111          7           0        4.568942   -0.555396   -1.896648
    112          6           0        4.389618   -1.705510   -2.696111
    113          6           0        3.899419   -1.248486   -4.012652
    114          6           0        3.849081    0.148639   -3.894413
    115          6           0        4.296843    0.536393   -2.602653
    116          6           0        3.614754   -2.083247   -5.129906
    117          6           0        3.529059    1.384293   -4.572256
    118          8           0        3.022847    1.675106   -5.655263
    119          6           0        4.084655    2.594952   -3.705075
    120          6           0        2.994291    3.625054   -3.593243
    121          8           0        1.944089    3.369548   -2.978102
    122          8           0        3.457073    4.806833   -4.040021
    123          6           0        2.415153    5.863244   -3.938936
    124          1           0        7.767653    2.713350    2.176297
    125          1           0        6.828890   -3.429659    2.803783
    126          1           0        4.370464   -3.699763   -2.968376
    127          1           0        5.850919    4.539337   -1.990966
    128          1           0        6.787569    4.574814    0.665814
    129          1           0        8.016495    3.670366   -1.905546
    130          1           0        8.615831    2.832849   -0.458597
    131          1           0        8.784099    4.560608   -0.537066
    132          1           0        4.400395    4.529704    0.666410
    133          1           0        3.421206    4.411848   -0.841067
    134          1           0        5.210054    6.609480   -1.120314
    135          1           0        4.809746    6.573365    0.559964
    136          1           0        7.960759    2.459349    4.259300
    137          1           0        8.692855    1.140677    5.110385
    138          1           0        7.056955    1.639742    5.601835
    139          1           0        8.231052   -0.615507    6.405749
    140          1           0        7.257230   -1.973846    7.214011
    141          1           0        6.502919   -0.457853    6.642864
    142          1           0        5.661914   -5.229821    1.426392
    143          1           0        6.040057   -5.241872   -1.525495
    144          1           0        7.678941   -6.240419    1.227852
    145          1           0        8.334287   -4.655321    0.685627
    146          1           0        7.793606   -5.768238   -0.465331
    147          1           0        4.423117   -6.742067   -0.298025
    148          1           0        3.770260   -5.959116   -1.724819
    149          1           0        3.357981   -5.512706    1.140992
    150          1           0        2.103079   -5.593985   -0.148751
    151          1           0        3.100249   -4.094698    0.119767
    152          1           0        2.683646   -1.730353   -5.552991
    153          1           0        3.548507   -3.129277   -4.838009
    154          1           0        4.492901   -1.885009   -5.750248
    155          1           0        4.966202    2.985620   -4.214820
    156          1           0        2.298409    6.293526   -4.938393
    157          1           0        2.755369    6.542414   -3.134728
    158          1           0        1.400737    5.547830   -3.724650
 ---------------------------------------------------------------------

 SCF Done:  E(RCAM-B3LYP) =  -4069.81210856     A.U. after   19 cycles

 Excitation energies and oscillator strengths:

 Excited State   1:      Singlet-A      1.6579 eV  747.84 nm  f=0.0430  <S**2>=0.000
     309 -> 315        0.12811
     310 -> 316        0.11067
     311 -> 313        0.52016
     312 -> 314        0.44898
 This state for optimization and/or second-order correction.
 Total Energy, E(TD-HF/TD-DFT) =  -4069.75118236
 Copying the excited state density for this state as the 1-particle RhoCI density.

 Excited State   2:      Singlet-A      1.6963 eV  730.93 nm  f=0.6874  <S**2>=0.000
     309 -> 315       -0.11686
     310 -> 316        0.13584
     311 -> 313       -0.44742
     312 -> 314        0.51834

 Excited State   3:      Singlet-A      2.1835 eV  567.82 nm  f=0.0240  <S**2>=0.000
     309 -> 313        0.58346
     310 -> 314       -0.27240
     311 -> 315       -0.24540
     312 -> 316        0.11365

 Excited State   4:      Singlet-A      2.1948 eV  564.91 nm  f=0.1577  <S**2>=0.000
     309 -> 313        0.26969
     310 -> 314        0.58000
     311 -> 315       -0.11856
     312 -> 316       -0.25370

 Excited State   5:      Singlet-A      2.5199 eV  492.02 nm  f=0.0000  <S**2>=0.000
     312 -> 313        0.70699

 The electronic state is 1-A.
 Alpha  occ. eigenvalues --  -46.87549 -46.87472 -19.26372 -19.26073 -19.19161
 Alpha  occ. eigenvalues --  -19.18783 -19.18596 -19.18492 -19.18020 -19.17902
 Alpha  occ. eigenvalues --  -14.42390 -14.42130 -14.41257 -14.41146 -14.39240
 Alpha  occ. eigenvalues --  -14.39073 -14.38499 -14.38275 -10.39085 -10.38840
 Alpha  occ. eigenvalues --  -10.35271 -10.35121 -10.34197 -10.34124 -10.31825
 Alpha  occ. eigenvalues --  -10.31513 -10.31217 -10.31101 -10.30917 -10.30581
 Alpha  occ. eigenvalues --  -10.30299 -10.30267 -10.30260 -10.30206 -10.30028
 Alpha  occ. eigenvalues --  -10.29900 -10.29803 -10.29645 -10.29325 -10.29322
 Alpha  occ. eigenvalues --  -10.29303 -10.28929 -10.28624 -10.28569 -10.28436
 Alpha  occ. eigenvalues --  -10.28307 -10.28258 -10.28049 -10.28045 -10.27910
 Alpha  occ. eigenvalues --  -10.27814 -10.27565 -10.27483 -10.27416 -10.27409
 Alpha  occ. eigenvalues --  -10.27389 -10.27362 -10.27335 -10.27283 -10.27259
 Alpha  occ. eigenvalues --  -10.27259 -10.27217 -10.27098 -10.27080 -10.27011
 Alpha  occ. eigenvalues --  -10.26895 -10.26571 -10.26345 -10.26270 -10.26027
 Alpha  occ. eigenvalues --  -10.26026 -10.25975 -10.25970 -10.25954 -10.25829
 Alpha  occ. eigenvalues --  -10.25794 -10.25721 -10.25598 -10.25319 -10.25228
 Alpha  occ. eigenvalues --  -10.24788 -10.24605 -10.24592 -10.24530 -10.24492
 Alpha  occ. eigenvalues --  -10.24483  -3.16298  -3.16213  -1.91180  -1.91094
 Alpha  occ. eigenvalues --   -1.90769  -1.90681  -1.90606  -1.90523  -1.16661
 Alpha  occ. eigenvalues --   -1.16416  -1.08636  -1.08368  -1.06948  -1.06895
 Alpha  occ. eigenvalues --   -1.06847  -1.06408  -1.04391  -1.04263  -1.03559
 Alpha  occ. eigenvalues --   -1.03455  -1.02937  -1.02921  -1.02103  -1.02011
 Alpha  occ. eigenvalues --   -0.91908  -0.91677  -0.89396  -0.89252  -0.89056
 Alpha  occ. eigenvalues --   -0.88881  -0.88122  -0.88025  -0.87713  -0.87582
 Alpha  occ. eigenvalues --   -0.87582  -0.87360  -0.87003  -0.86927  -0.84904
 Alpha  occ. eigenvalues --   -0.84677  -0.83785  -0.83693  -0.82816  -0.82643
 Alpha  occ. eigenvalues --   -0.82560  -0.82347  -0.81555  -0.81329  -0.80370
 Alpha  occ. eigenvalues --   -0.80306  -0.78532  -0.78470  -0.77049  -0.76932
 Alpha  occ. eigenvalues --   -0.76829  -0.76664  -0.75772  -0.75647  -0.74721
 Alpha  occ. eigenvalues --   -0.74643  -0.72606  -0.72479  -0.71497  -0.71390
 Alpha  occ. eigenvalues --   -0.69666  -0.69654  -0.68735  -0.68572  -0.67513
 Alpha  occ. eigenvalues --   -0.67342  -0.67092  -0.66896  -0.65186  -0.64986
 Alpha  occ. eigenvalues --   -0.64690  -0.64577  -0.64572  -0.64344  -0.64110
 Alpha  occ. eigenvalues --   -0.63998  -0.62243  -0.62052  -0.60231  -0.60122
 Alpha  occ. eigenvalues --   -0.59701  -0.59496  -0.58905  -0.58699  -0.58347
 Alpha  occ. eigenvalues --   -0.58216  -0.57514  -0.57320  -0.57147  -0.57030
 Alpha  occ. eigenvalues --   -0.56122  -0.56013  -0.55847  -0.55729  -0.55373
 Alpha  occ. eigenvalues --   -0.55213  -0.55177  -0.55094  -0.54429  -0.54284
 Alpha  occ. eigenvalues --   -0.53818  -0.53588  -0.53137  -0.53062  -0.53006
 Alpha  occ. eigenvalues --   -0.52909  -0.52828  -0.52639  -0.52552  -0.52418
 Alpha  occ. eigenvalues --   -0.52297  -0.52201  -0.51822  -0.51648  -0.51561
 Alpha  occ. eigenvalues --   -0.51298  -0.51133  -0.50923  -0.50349  -0.50209
 Alpha  occ. eigenvalues --   -0.49877  -0.49769  -0.49762  -0.49596  -0.49389
 Alpha  occ. eigenvalues --   -0.49209  -0.49123  -0.49035  -0.48919  -0.48814
 Alpha  occ. eigenvalues --   -0.48497  -0.48327  -0.48307  -0.48235  -0.48206
 Alpha  occ. eigenvalues --   -0.48131  -0.47507  -0.47400  -0.47026  -0.46998
 Alpha  occ. eigenvalues --   -0.46618  -0.46514  -0.46461  -0.46256  -0.46182
 Alpha  occ. eigenvalues --   -0.46065  -0.46012  -0.45897  -0.45772  -0.45568
 Alpha  occ. eigenvalues --   -0.45120  -0.44944  -0.44452  -0.44382  -0.44313
 Alpha  occ. eigenvalues --   -0.44200  -0.44057  -0.43987  -0.43864  -0.43845
 Alpha  occ. eigenvalues --   -0.43809  -0.43716  -0.43518  -0.43302  -0.43240
 Alpha  occ. eigenvalues --   -0.43093  -0.42907  -0.42830  -0.42747  -0.42463
 Alpha  occ. eigenvalues --   -0.42450  -0.42412  -0.41868  -0.41746  -0.41599
 Alpha  occ. eigenvalues --   -0.41421  -0.41364  -0.41239  -0.40904  -0.40856
 Alpha  occ. eigenvalues --   -0.40618  -0.40587  -0.40585  -0.40494  -0.40399
 Alpha  occ. eigenvalues --   -0.40311  -0.40115  -0.39901  -0.39317  -0.39204
 Alpha  occ. eigenvalues --   -0.38252  -0.38206  -0.37559  -0.37444  -0.37169
 Alpha  occ. eigenvalues --   -0.37103  -0.37043  -0.36952  -0.36755  -0.36474
 Alpha  occ. eigenvalues --   -0.36140  -0.35929  -0.34159  -0.33981  -0.33842
 Alpha  occ. eigenvalues --   -0.33519  -0.33079  -0.32883  -0.31157  -0.31026
 Alpha  occ. eigenvalues --   -0.30876  -0.30733  -0.29928  -0.29766  -0.29224
 Alpha  occ. eigenvalues --   -0.29125  -0.29122  -0.29013  -0.23936  -0.23771
 Alpha  occ. eigenvalues --   -0.21015  -0.20817
 Alpha virt. eigenvalues --   -0.08693  -0.08459  -0.01578  -0.01440   0.00076
 Alpha virt. eigenvalues --    0.00267   0.02277   0.02484   0.03372   0.03594
 Alpha virt. eigenvalues --    0.04826   0.05018   0.05176   0.05343   0.06259

 Mulliken charges:
               1
     1  Mg   0.841125
     2  C   -0.002462
     3  C   -0.092410
     4  C   -0.046294
     5  C   -0.064365
     6  N   -0.256747
     7  C   -0.052100
     8  C   -0.014493
     9  C   -0.087413
    10  C    0.047322
    11  C    0.104950
    12  C    0.053087
    13  C   -0.070959
    14  H    0.034250
    15  N   -0.433187
    16  C    0.169979
    17  C   -0.175415
    18  C   -0.003344
    19  C    0.149238
    20  C    0.109980
    21  C    0.012707
    22  O   -0.250930
    23  C    0.061592
    24  N   -0.341166
    25  C    0.041443
    26  C   -0.028018
    27  C   -0.023715
    28  C    0.074585
    29  C    0.076426
    30  C    0.035354
    31  C   -0.004557
    32  N   -0.310207
    33  C    0.080075
    34  C   -0.170348
    35  C    0.007830
    36  C    0.082955
    37  C    0.127467
    38  C    0.045664
    39  O   -0.189930
    40  C   -0.005346
    41  C    0.212542
    42  O   -0.256654
    43  O   -0.304877
    44  C    0.158242
    45  H   -0.017854
    46  H   -0.017574
    47  H   -0.042348
    48  H   -0.000042
    49  H   -0.003619
    50  H    0.024989
    51  H    0.016235
    52  H    0.016125
    53  H    0.014816
    54  H    0.044692
    55  H    0.016753
    56  H    0.018064
    57  H    0.005762
    58  H    0.025811
    59  H    0.043404
    60  H    0.036840
    61  H    0.034710
    62  H    0.035184
    63  H    0.015818
    64  H    0.008889
    65  H    0.022518
    66  H    0.012556
    67  H    0.004304
    68  H    0.005393
    69  H    0.004503
    70  H    0.007593
    71  H    0.017858
    72  H    0.030208
    73  H    0.046783
    74  H    0.008669
    75  H    0.045307
    76  H    0.034523
    77  H    0.041943
    78  H    0.046363
    79  H    0.052961
    80  Mg   0.839518
    81  C   -0.016614
    82  C   -0.087355
    83  C   -0.045430
    84  C   -0.064751
    85  N   -0.254629
    86  C   -0.049528
    87  C   -0.015464
    88  C   -0.090681
    89  C    0.046313
    90  C    0.114439
    91  C    0.062374
    92  C   -0.077568
    93  H    0.034062
    94  N   -0.423514
    95  C    0.163760
    96  C   -0.174181
    97  C   -0.007363
    98  C    0.152534
    99  C    0.099366
   100  C    0.016096
   101  O   -0.253317
   102  C    0.060843
   103  N   -0.350099
   104  C    0.037682
   105  C   -0.019838
   106  C   -0.034723
   107  C    0.088775
   108  C    0.073761
   109  C    0.034714
   110  C   -0.007928
   111  N   -0.323964
   112  C    0.078343
   113  C   -0.163309
   114  C    0.001411
   115  C    0.096452
   116  C    0.131742
   117  C    0.041880
   118  O   -0.190092
   119  C    0.001048
   120  C    0.210526
   121  O   -0.250709
   122  O   -0.305517
   123  C    0.152716
   124  H   -0.019753
   125  H   -0.015627
   126  H   -0.040423
   127  H   -0.001347
   128  H   -0.004072
   129  H    0.022116
   130  H    0.014377
   131  H    0.016079
   132  H    0.015608
   133  H    0.038177
   134  H    0.020029
   135  H    0.020004
   136  H    0.008751
   137  H    0.025879
   138  H    0.041001
   139  H    0.037948
   140  H    0.036407
   141  H    0.035146
   142  H    0.014426
   143  H    0.012136
   144  H    0.024968
   145  H    0.011509
   146  H    0.005484
   147  H    0.005783
   148  H    0.004032
   149  H    0.010468
   150  H    0.018545
   151  H    0.030633
   152  H    0.044599
   153  H    0.009258
   154  H    0.046432
   155  H    0.034636
   156  H    0.042743
   157  H    0.049988
   158  H    0.052266
 Sum of Mulliken charges =  -0.00000

 Dipole moment (field-independent basis, Debye):
    X=              1.3173    Y=              3.1427    Z=             -1.5875  Tot=              3.7593
 Quadrupole moment (field-independent basis, Debye-Ang):
   XX=           -467.4992   YY=           -461.8289   ZZ=           -540.6321
   XY=             13.1558   XZ=             27.1227   YZ=             -7.9606

 Normal termination of Gaussian 16 at Fri Sep 10 14:42:14 2021.
