 Gaussian 16, Revision A.03,
 Gaussian 16:  ES64L-G16RevA.03 25-Dec-2016

 -----------------------------------
 #p cam-b3lyp/Def2SVP td=(nstates=5)
 -----------------------------------

 --------------------------------
 TDDFT excited states in gaussian
 --------------------------------
 Symbolic Z-matrix:
 Charge =  0 Multiplicity = 1

                         Standard orientation:
 ---------------------------------------------------------------------
 Center     Atomic      Atomic             Coordinates (Angstroms)
 Number     Number       Type             X           Y           Z
 ---------------------------------------------------------------------
      1         12           0       -6.534340   -0.727897   -0.213760
      2          6           0       -6.856090    1.939870    2.150920
      3          6           0       -7.350920    1.525412   -2.642517
      4          6           0       -6.701632   -3.150639   -2.253112
      5          6           0       -6.864304   -2.939694    2.459205
      6          7           0       -7.018080    1.430781   -0.131599
      7          6           0       -7.048047    2.348845    0.829354
      8          6           0       -7.227800    3.800126    0.291909
      9          6           0       -7.926702    3.467602   -1.101993
     10          6           0       -7.372147    2.071636   -1.324860
     11          6           0       -9.447309    3.384195   -1.016552
     12          6           0       -5.858817    4.531779    0.086244
     13          6           0       -5.952069    6.046228   -0.121363
     14          1           0       -4.906260    6.894388    0.430233
     15          7           0       -6.482667   -0.746153   -2.188563
     16          6           0       -6.835131    0.265900   -3.017299
     17          6           0       -6.619437   -0.238029   -4.390693
     18          6           0       -6.293823   -1.688323   -4.297331
     19          6           0       -6.508163   -1.928763   -2.893185
     20          6           0       -6.681102    0.634709   -5.606537
     21          6           0       -5.868704   -2.699767   -5.314379
     22          8           0       -5.862453   -3.953739   -5.065202
     23          6           0       -5.539985   -2.184422   -6.655798
     24          7           0       -6.970782   -2.755519    0.022681
     25          6           0       -6.917281   -3.598403   -1.014463
     26          6           0       -6.987194   -5.026643   -0.561496
     27          6           0       -6.854882   -4.992819    1.029448
     28          6           0       -6.811494   -3.457845    1.230059
     29          6           0       -8.259857   -5.790940   -0.951614
     30          6           0       -5.729621   -5.851160    1.659891
     31          6           0       -4.379204   -5.286939    1.278936
     32          7           0       -6.634330   -0.568124    1.948535
     33          6           0       -6.794895   -1.617422    2.864978
     34          6           0       -6.915140   -1.008316    4.202363
     35          6           0       -6.832251    0.362766    3.967613
     36          6           0       -6.696827    0.596542    2.569292
     37          6           0       -7.135734   -1.709442    5.420639
     38          6           0       -6.851322    1.685730    4.570322
     39          8           0       -6.849041    2.112260    5.725986
     40          6           0       -6.989952    2.764345    3.407051
     41          6           0       -5.964723    3.836621    3.656929
     42          8           0       -4.744959    3.589206    3.565669
     43          8           0       -6.576621    5.028667    3.728672
     44          6           0       -5.612393    6.140048    3.946044
     45          1           0       -7.823821    2.083548   -3.452943
     46          1           0       -6.654818   -4.021598   -2.910134
     47          1           0       -6.884753   -3.570872    3.349513
     48          1           0       -7.881452    4.430461    0.895101
     49          1           0       -7.594354    4.138295   -1.894103
     50          1           0       -9.791962    3.439653    0.015950
     51          1           0       -9.711076    2.421437   -1.454750
     52          1           0       -9.912890    4.139469   -1.650249
     53          1           0       -5.435328    4.238563   -0.874351
     54          1           0       -5.181237    4.322502    0.914745
     55          1           0       -6.936515    6.426283    0.153105
     56          1           0       -5.870954    6.250233   -1.189072
     57          1           0       -7.102847    1.612399   -5.376762
     58          1           0       -7.401173    0.181520   -6.287585
     59          1           0       -5.712632    0.720745   -6.099483
     60          1           0       -6.408723   -1.669288   -7.066262
     61          1           0       -5.171577   -3.037905   -7.223859
     62          1           0       -4.754216   -1.434149   -6.563022
     63          1           0       -6.165330   -5.609024   -0.975980
     64          1           0       -7.762749   -5.340658    1.522862
     65          1           0       -8.067346   -6.698730   -1.523944
     66          1           0       -8.905952   -5.109674   -1.504542
     67          1           0       -8.901492   -6.067336   -0.115356
     68          1           0       -5.770824   -6.870471    1.277461
     69          1           0       -5.785407   -5.902415    2.747325
     70          1           0       -4.201293   -5.723429    0.296767
     71          1           0       -3.618496   -5.606694    1.991881
     72          1           0       -4.421265   -4.205004    1.151918
     73          1           0       -6.468994   -1.259838    6.156358
     74          1           0       -6.937961   -2.774937    5.305705
     75          1           0       -8.191413   -1.496360    5.587949
     76          1           0       -8.007353    3.150943    3.457652
     77          1           0       -5.931875    6.671431    4.842591
     78          1           0       -5.571323    6.701676    3.012613
     79          1           0       -4.599349    5.851058    4.228115
     80         12           0        6.679184   -0.553992    0.268740
     81          6           0        6.239543    1.939239   -2.274787
     82          6           0        8.072942    1.882702    2.206397
     83          6           0        7.488671   -2.809351    2.348531
     84          6           0        6.324537   -2.961983   -2.225558
     85          7           0        7.052170    1.595184   -0.097560
     86          6           0        6.786722    2.445803   -1.077524
     87          6           0        7.052287    3.934397   -0.726663
     88          6           0        8.133815    3.717145    0.440373
     89          6           0        7.711389    2.326327    0.909257
     90          6           0        9.562574    3.635365   -0.070806
     91          6           0        5.768321    4.660721   -0.191971
     92          6           0        5.874040    6.185763   -0.122540
     93          1           0        4.682978    6.979884   -0.411028
     94          7           0        7.183008   -0.414451    2.183228
     95          6           0        7.714589    0.656715    2.808771
     96          6           0        7.921788    0.244924    4.205792
     97          6           0        7.622541   -1.208725    4.315644
     98          6           0        7.435802   -1.545725    2.918633
     99          6           0        8.285478    1.212860    5.294027
    100          6           0        7.533416   -2.143800    5.483507
    101          8           0        7.494978   -3.415307    5.326615
    102          6           0        7.586659   -1.531559    6.819101
    103          7           0        7.089770   -2.581489    0.061329
    104          6           0        7.364040   -3.344572    1.133912
    105          6           0        7.352665   -4.811789    0.776792
    106          6           0        6.773182   -4.887146   -0.711870
    107          6           0        6.627079   -3.377463   -1.003269
    108          6           0        8.705827   -5.520481    0.832378
    109          6           0        5.542924   -5.806905   -0.942464
    110          6           0        4.335401   -5.242063   -0.229559
    111          7           0        6.161101   -0.556055   -1.828791
    112          6           0        6.096259   -1.673061   -2.690290
    113          6           0        5.816050   -1.160632   -4.047240
    114          6           0        5.759678    0.231715   -3.883844
    115          6           0        6.008619    0.564895   -2.524975
    116          6           0        5.698087   -1.949241   -5.226356
    117          6           0        5.556715    1.496041   -4.553893
    118          8           0        5.223749    1.833941   -5.689101
    119          6           0        5.983604    2.665763   -3.566021
    120          6           0        4.897355    3.706130   -3.581164
    121          8           0        3.763660    3.442638   -3.143062
    122          8           0        5.432398    4.897113   -3.906202
    123          6           0        4.395886    5.963490   -3.923579
    124          1           0        8.728670    2.514078    2.806628
    125          1           0        7.655238   -3.634285    3.045101
    126          1           0        6.102549   -3.655362   -3.039580
    127          1           0        7.483967    4.520258   -1.529291
    128          1           0        8.005284    4.443900    1.238281
    129          1           0        9.604101    3.618544   -1.149753
    130          1           0        9.969221    2.719551    0.337788
    131          1           0       10.161549    4.446517    0.352974
    132          1           0        5.645588    4.432150    0.874538
    133          1           0        4.906500    4.384075   -0.767609
    134          1           0        6.734858    6.565368   -0.686311
    135          1           0        6.083017    6.472431    0.910989
    136          1           0        8.600177    2.180176    4.883338
    137          1           0        9.183322    0.820694    5.783863
    138          1           0        7.495785    1.323961    6.040152
    139          1           0        8.515319   -0.975782    6.924833
    140          1           0        7.418708   -2.349480    7.522421
    141          1           0        6.772578   -0.802931    6.902663
    142          1           0        6.697035   -5.365556    1.437554
    143          1           0        7.520266   -5.273184   -1.420854
    144          1           0        8.712472   -6.396145    1.508571
    145          1           0        9.455651   -4.801304    1.134174
    146          1           0        9.087530   -5.863023   -0.127915
    147          1           0        5.723062   -6.795227   -0.512448
    148          1           0        5.301539   -5.950746   -1.990344
    149          1           0        4.461224   -5.605426    0.794749
    150          1           0        3.416790   -5.621183   -0.672798
    151          1           0        4.373614   -4.146986   -0.197893
    152          1           0        4.845185   -1.567893   -5.771923
    153          1           0        5.579626   -3.004372   -4.988771
    154          1           0        6.662055   -1.740374   -5.697942
    155          1           0        6.935653    3.062749   -3.920382
    156          1           0        4.436253    6.432199   -4.911693
    157          1           0        4.615169    6.607490   -3.051262
    158          1           0        3.358127    5.654528   -3.878281
 ---------------------------------------------------------------------

 SCF Done:  E(RCAM-B3LYP) =  -4069.81189152     A.U. after   19 cycles

 Excitation energies and oscillator strengths:

 Excited State   1:      Singlet-A      1.6663 eV  744.06 nm  f=0.0280  <S**2>=0.000
     309 -> 315        0.13341
     310 -> 316        0.10791
     311 -> 313        0.53461
     312 -> 314        0.43083
 This state for optimization and/or second-order correction.
 Total Energy, E(TD-HF/TD-DFT) =  -4069.75065565
 Copying the excited state density for this state as the 1-particle RhoCI density.

 Excited State   2:      Singlet-A      1.6890 eV  734.06 nm  f=0.7198  <S**2>=0.000
     309 -> 315       -0.11114
     310 -> 316        0.13852
     311 -> 313       -0.42997
     312 -> 314        0.53347

 Excited State   3:      Singlet-A      2.1853 eV  567.35 nm  f=0.0428  <S**2>=0.000
     309 -> 313        0.61291
     310 -> 314       -0.19452
     311 -> 315       -0.25961

 Excited State   4:      Singlet-A      2.1936 eV  565.20 nm  f=0.1463  <S**2>=0.000
     309 -> 313        0.19300
     310 -> 314        0.61058
     312 -> 316       -0.26591

 Excited State   5:      Singlet-A      2.6843 eV  461.88 nm  f=0.0000  <S**2>=0.000
     312 -> 313        0.70708

 The electronic state is 1-A.
 Alpha  occ. eigenvalues --  -46.87597 -46.87576 -19.26333 -19.26145 -19.19131
 Alpha  occ. eigenvalues --  -19.18866 -19.18619 -19.18602 -19.18004 -19.18002
 Alpha  occ. eigenvalues --  -14.42416 -14.42254 -14.41280 -14.41259 -14.39267
 Alpha  occ. eigenvalues --  -14.39200 -14.38521 -14.38393 -10.39059 -10.38925
 Alpha  occ. eigenvalues --  -10.35295 -10.35233 -10.34222 -10.34182 -10.31764
 Alpha  occ. eigenvalues --  -10.31563 -10.31236 -10.31218 -10.30942 -10.30710
 Alpha  occ. eigenvalues --  -10.30379 -10.30320 -10.30316 -10.30286 -10.30056
 Alpha  occ. eigenvalues --  -10.30013 -10.29821 -10.29741 -10.29436 -10.29352
 Alpha  occ. eigenvalues --  -10.29322 -10.29054 -10.28646 -10.28586 -10.28560
 Alpha  occ. eigenvalues --  -10.28357 -10.28327 -10.28169 -10.28070 -10.27932
 Alpha  occ. eigenvalues --  -10.27926 -10.27601 -10.27589 -10.27533 -10.27441
 Alpha  occ. eigenvalues --  -10.27408 -10.27383 -10.27382 -10.27365 -10.27333
 Alpha  occ. eigenvalues --  -10.27303 -10.27285 -10.27246 -10.27214 -10.27002
 Alpha  occ. eigenvalues --  -10.26992 -10.26607 -10.26497 -10.26300 -10.26161
 Alpha  occ. eigenvalues --  -10.26069 -10.26055 -10.26025 -10.25967 -10.25855
 Alpha  occ. eigenvalues --  -10.25831 -10.25800 -10.25686 -10.25335 -10.25287
 Alpha  occ. eigenvalues --  -10.24801 -10.24645 -10.24634 -10.24612 -10.24599
 Alpha  occ. eigenvalues --  -10.24519  -3.16339  -3.16325  -1.91221  -1.91207
 Alpha  occ. eigenvalues --   -1.90807  -1.90796  -1.90650  -1.90633  -1.16624
 Alpha  occ. eigenvalues --   -1.16491  -1.08615  -1.08463  -1.07003  -1.06917
 Alpha  occ. eigenvalues --   -1.06871  -1.06490  -1.04416  -1.04386  -1.03583
 Alpha  occ. eigenvalues --   -1.03569  -1.03039  -1.02959  -1.02219  -1.02033
 Alpha  occ. eigenvalues --   -0.91919  -0.91788  -0.89417  -0.89341  -0.89078
 Alpha  occ. eigenvalues --   -0.89001  -0.88143  -0.88112  -0.87726  -0.87690
 Alpha  occ. eigenvalues --   -0.87606  -0.87481  -0.87059  -0.87028  -0.84925
 Alpha  occ. eigenvalues --   -0.84793  -0.83802  -0.83768  -0.82839  -0.82756
 Alpha  occ. eigenvalues --   -0.82577  -0.82459  -0.81548  -0.81421  -0.80413
 Alpha  occ. eigenvalues --   -0.80378  -0.78595  -0.78553  -0.77069  -0.77034
 Alpha  occ. eigenvalues --   -0.76836  -0.76762  -0.75778  -0.75749  -0.74735
 Alpha  occ. eigenvalues --   -0.74729  -0.72625  -0.72588  -0.71512  -0.71493
 Alpha  occ. eigenvalues --   -0.69737  -0.69677  -0.68754  -0.68684  -0.67528
 Alpha  occ. eigenvalues --   -0.67452  -0.67117  -0.67019  -0.65202  -0.65101
 Alpha  occ. eigenvalues --   -0.64701  -0.64675  -0.64589  -0.64443  -0.64129
 Alpha  occ. eigenvalues --   -0.64091  -0.62233  -0.62138  -0.60254  -0.60240
 Alpha  occ. eigenvalues --   -0.59722  -0.59615  -0.58921  -0.58805  -0.58358
 Alpha  occ. eigenvalues --   -0.58321  -0.57506  -0.57417  -0.57162  -0.57128
 Alpha  occ. eigenvalues --   -0.56134  -0.56123  -0.55839  -0.55819  -0.55382
 Alpha  occ. eigenvalues --   -0.55325  -0.55185  -0.55174  -0.54431  -0.54362
 Alpha  occ. eigenvalues --   -0.53839  -0.53707  -0.53153  -0.53110  -0.53072
 Alpha  occ. eigenvalues --   -0.53026  -0.52837  -0.52738  -0.52577  -0.52546
 Alpha  occ. eigenvalues --   -0.52320  -0.52269  -0.51827  -0.51745  -0.51581
 Alpha  occ. eigenvalues --   -0.51421  -0.51138  -0.51021  -0.50377  -0.50345
 Alpha  occ. eigenvalues --   -0.49899  -0.49852  -0.49789  -0.49716  -0.49407
 Alpha  occ. eigenvalues --   -0.49321  -0.49134  -0.49042  -0.49029  -0.48919
 Alpha  occ. eigenvalues --   -0.48500  -0.48423  -0.48313  -0.48291  -0.48254
 Alpha  occ. eigenvalues --   -0.48246  -0.47522  -0.47507  -0.47108  -0.47043
 Alpha  occ. eigenvalues --   -0.46636  -0.46615  -0.46480  -0.46368  -0.46197
 Alpha  occ. eigenvalues --   -0.46174  -0.46022  -0.45991  -0.45771  -0.45659
 Alpha  occ. eigenvalues --   -0.45137  -0.45029  -0.44455  -0.44407  -0.44402
 Alpha  occ. eigenvalues --   -0.44309  -0.44062  -0.44002  -0.43961  -0.43909
 Alpha  occ. eigenvalues --   -0.43861  -0.43830  -0.43507  -0.43331  -0.43317
 Alpha  occ. eigenvalues --   -0.43201  -0.42889  -0.42848  -0.42840  -0.42543
 Alpha  occ. eigenvalues --   -0.42487  -0.42472  -0.41887  -0.41834  -0.41605
 Alpha  occ. eigenvalues --   -0.41524  -0.41384  -0.41348  -0.40960  -0.40920
 Alpha  occ. eigenvalues --   -0.40685  -0.40640  -0.40613  -0.40611  -0.40419
 Alpha  occ. eigenvalues --   -0.40398  -0.40144  -0.40034  -0.39342  -0.39270
 Alpha  occ. eigenvalues --   -0.38294  -0.38274  -0.37580  -0.37559  -0.37190
 Alpha  occ. eigenvalues --   -0.37140  -0.37123  -0.37072  -0.36734  -0.36556
 Alpha  occ. eigenvalues --   -0.36152  -0.36022  -0.34177  -0.34096  -0.33823
 Alpha  occ. eigenvalues --   -0.33609  -0.33099  -0.32997  -0.31180  -0.31134
 Alpha  occ. eigenvalues --   -0.30896  -0.30846  -0.29910  -0.29863  -0.29248
 Alpha  occ. eigenvalues --   -0.29244  -0.29138  -0.29131  -0.23958  -0.23888
 Alpha  occ. eigenvalues --   -0.21038  -0.20935
 Alpha virt. eigenvalues --   -0.08713  -0.08579  -0.01602  -0.01555   0.00055
 Alpha virt. eigenvalues --    0.00146   0.02272   0.02380   0.03354   0.03373
 Alpha virt. eigenvalues --    0.04805   0.04906   0.05199   0.05255   0.06248

 Mulliken charges:
               1
     1  Mg   0.839839
     2  C   -0.002758
     3  C   -0.093563
     4  C   -0.045900
     5  C   -0.064119
     6  N   -0.256770
     7  C   -0.052417
     8  C   -0.014173
     9  C   -0.087164
    10  C    0.046676
    11  C    0.104885
    12  C    0.053324
    13  C   -0.071559
    14  H    0.035581
    15  N   -0.433183
    16  C    0.168973
    17  C   -0.176542
    18  C   -0.003636
    19  C    0.149014
    20  C    0.110100
    21  C    0.012730
    22  O   -0.250035
    23  C    0.062094
    24  N   -0.341170
    25  C    0.041328
    26  C   -0.028107
    27  C   -0.023856
    28  C    0.074784
    29  C    0.076295
    30  C    0.035208
    31  C   -0.004482
    32  N   -0.310353
    33  C    0.080311
    34  C   -0.169992
    35  C    0.008065
    36  C    0.083020
    37  C    0.127381
    38  C    0.045901
    39  O   -0.189280
    40  C   -0.005335
    41  C    0.212657
    42  O   -0.256796
    43  O   -0.304860
    44  C    0.157955
    45  H   -0.017699
    46  H   -0.017059
    47  H   -0.041912
    48  H    0.000452
    49  H   -0.003807
    50  H    0.025199
    51  H    0.016347
    52  H    0.016406
    53  H    0.012468
    54  H    0.044359
    55  H    0.017280
    56  H    0.018211
    57  H    0.005811
    58  H    0.026445
    59  H    0.041182
    60  H    0.036984
    61  H    0.035518
    62  H    0.033230
    63  H    0.016438
    64  H    0.009088
    65  H    0.022920
    66  H    0.012490
    67  H    0.004458
    68  H    0.005893
    69  H    0.004497
    70  H    0.008571
    71  H    0.017987
    72  H    0.029599
    73  H    0.047156
    74  H    0.008913
    75  H    0.045589
    76  H    0.034779
    77  H    0.042320
    78  H    0.046436
    79  H    0.053383
    80  Mg   0.838747
    81  C   -0.016717
    82  C   -0.087576
    83  C   -0.045402
    84  C   -0.064861
    85  N   -0.254585
    86  C   -0.049742
    87  C   -0.015260
    88  C   -0.090570
    89  C    0.045992
    90  C    0.114423
    91  C    0.062422
    92  C   -0.077766
    93  H    0.034558
    94  N   -0.423524
    95  C    0.163368
    96  C   -0.174378
    97  C   -0.007515
    98  C    0.152327
    99  C    0.099362
   100  C    0.015920
   101  O   -0.253223
   102  C    0.060971
   103  N   -0.350096
   104  C    0.037585
   105  C   -0.019836
   106  C   -0.034751
   107  C    0.088896
   108  C    0.073730
   109  C    0.034738
   110  C   -0.007735
   111  N   -0.324023
   112  C    0.078428
   113  C   -0.163280
   114  C    0.001910
   115  C    0.096301
   116  C    0.131555
   117  C    0.042161
   118  O   -0.188871
   119  C    0.000944
   120  C    0.210955
   121  O   -0.250815
   122  O   -0.305619
   123  C    0.152342
   124  H   -0.019708
   125  H   -0.015583
   126  H   -0.040586
   127  H   -0.001042
   128  H   -0.004170
   129  H    0.022241
   130  H    0.014385
   131  H    0.016146
   132  H    0.014755
   133  H    0.037862
   134  H    0.020345
   135  H    0.019860
   136  H    0.008735
   137  H    0.025986
   138  H    0.040606
   139  H    0.038036
   140  H    0.036482
   141  H    0.034742
   142  H    0.014500
   143  H    0.012172
   144  H    0.025055
   145  H    0.011543
   146  H    0.005501
   147  H    0.006024
   148  H    0.003619
   149  H    0.010866
   150  H    0.018181
   151  H    0.030455
   152  H    0.045505
   153  H    0.008631
   154  H    0.046614
   155  H    0.034746
   156  H    0.043233
   157  H    0.049690
   158  H    0.053079
 Sum of Mulliken charges =  -0.00000

 Dipole moment (field-independent basis, Debye):
    X=              0.9523    Y=              3.1237    Z=             -0.9950  Tot=              3.4139
 Quadrupole moment (field-independent basis, Debye-Ang):
   XX=           -458.4145   YY=           -460.8324   ZZ=           -540.2080
   XY=              9.8478   XZ=             41.2381   YZ=             -3.7596

 Normal termination of Gaussian 16 at Sat Sep 11 07:29:01 2021.
