 Gaussian 16, Revision A.03,
 Gaussian 16:  ES64L-G16RevA.03 25-Dec-2016

 -----------------------------------
 #p cam-b3lyp/Def2SVP td=(nstates=5)
 -----------------------------------

 --------------------------------
 TDDFT excited states in gaussian
 --------------------------------
 Symbolic Z-matrix:
 Charge =  0 Multiplicity = 1

                         Standard orientation:
 ---------------------------------------------------------------------
 Center     Atomic      Atomic             Coordinates (Angstroms)
 Number     Number       Type             X           Y           Z
 ---------------------------------------------------------------------
      1         12           0       -4.340878    0.463894   -0.920281
      2          6           0       -4.785495   -2.621201    0.839467
      3          6           0       -5.834271    2.016465    1.725917
      4          6           0       -4.371809    3.127897   -2.640384
      5          6           0       -3.942486   -1.420752   -3.824598
      6          7           0       -5.161175   -0.311807    0.983936
      7          6           0       -5.215797   -1.506989    1.563357
      8          6           0       -5.703530   -1.454964    3.042135
      9          6           0       -6.515661   -0.083887    2.991253
     10          6           0       -5.771424    0.597284    1.856334
     11          6           0       -7.976455   -0.255657    2.587423
     12          6           0       -4.514447   -1.379124    4.058040
     13          6           0       -4.884512   -1.652815    5.518690
     14          1           0       -3.930418   -2.355924    6.362901
     15          7           0       -4.548566    2.347376   -0.361523
     16          6           0       -5.170669    2.797061    0.754747
     17          6           0       -5.057878    4.271049    0.718458
     18          6           0       -4.486513    4.651273   -0.603308
     19          6           0       -4.470310    3.376056   -1.273336
     20          6           0       -5.423880    5.152942    1.872607
     21          6           0       -4.037661    5.958470   -1.175933
     22          8           0       -3.790369    6.106333   -2.421548
     23          6           0       -3.979443    7.098759   -0.243520
     24          7           0       -4.399407    0.826819   -2.975153
     25          6           0       -4.344350    2.073086   -3.457615
     26          6           0       -4.115593    2.075089   -4.940047
     27          6           0       -3.781473    0.565158   -5.337823
     28          6           0       -3.967423   -0.091741   -3.947796
     29          6           0       -5.283936    2.581957   -5.796826
     30          6           0       -2.455943    0.315655   -6.100146
     31          6           0       -1.280388    0.607664   -5.194663
     32          7           0       -4.179105   -1.644515   -1.409653
     33          6           0       -4.040551   -2.205239   -2.687568
     34          6           0       -4.082298   -3.669956   -2.523468
     35          6           0       -4.260019   -3.860543   -1.154550
     36          6           0       -4.351462   -2.594845   -0.508067
     37          6           0       -4.020294   -4.628259   -3.573346
     38          6           0       -4.418613   -4.838882   -0.090803
     39          8           0       -4.334346   -6.065908   -0.021533
     40          6           0       -4.887059   -4.075779    1.226033
     41          6           0       -4.030200   -4.562753    2.362676
     42          8           0       -2.809228   -4.307192    2.398473
     43          8           0       -4.816602   -5.042482    3.338368
     44          6           0       -4.030147   -5.515244    4.508897
     45          1           0       -6.496269    2.578512    2.387584
     46          1           0       -4.268346    4.021539   -3.259366
     47          1           0       -3.739897   -2.073951   -4.675328
     48          1           0       -6.367164   -2.270253    3.330783
     49          1           0       -6.407034    0.487874    3.912672
     50          1           0       -8.185888   -1.278745    2.275412
     51          1           0       -8.132304    0.434698    1.758198
     52          1           0       -8.640659    0.078903    3.384718
     53          1           0       -4.178985   -0.345468    4.142194
     54          1           0       -3.707973   -2.049463    3.758758
     55          1           0       -5.873322   -2.104843    5.601363
     56          1           0       -4.980351   -0.695882    6.031812
     57          1           0       -5.967966    4.603398    2.639756
     58          1           0       -6.142370    5.882889    1.500238
     59          1           0       -4.556976    5.668399    2.286265
     60          1           0       -4.968211    7.264179    0.184877
     61          1           0       -3.552851    7.927213   -0.807907
     62          1           0       -3.323898    6.841123    0.588846
     63          1           0       -3.270583    2.709486   -5.204477
     64          1           0       -4.545621    0.134025   -5.985030
     65          1           0       -5.020778    3.417642   -6.445735
     66          1           0       -6.101567    2.848731   -5.127794
     67          1           0       -5.754435    1.823972   -6.422531
     68          1           0       -2.377534    0.987412   -6.954278
     69          1           0       -2.358106   -0.704815   -6.470713
     70          1           0       -1.163967    1.686877   -5.287275
     71          1           0       -0.389619    0.087150   -5.547945
     72          1           0       -1.517948    0.393803   -4.152399
     73          1           0       -3.346093   -5.413065   -3.230560
     74          1           0       -3.665305   -4.177935   -4.500058
     75          1           0       -5.065162   -4.932936   -3.630611
     76          1           0       -5.938770   -4.319894    1.372434
     77          1           0       -4.311994   -6.553076    4.686947
     78          1           0       -4.206741   -4.798260    5.310865
     79          1           0       -2.954896   -5.617020    4.357845
     80         12           0        4.474307    0.801706    0.878823
     81          6           0        4.852358   -1.857764   -1.500965
     82          6           0        3.227487   -1.517026    3.047583
     83          6           0        3.710863    3.183654    2.830964
     84          6           0        4.658292    3.031883   -1.792908
     85          7           0        4.133748   -1.374969    0.682969
     86          6           0        4.372841   -2.288074   -0.246241
     87          6           0        4.157720   -3.752702    0.220842
     88          6           0        3.126693   -3.473700    1.420017
     89          6           0        3.538626   -2.045022    1.769109
     90          6           0        1.674321   -3.456365    0.973193
     91          6           0        5.481236   -4.413942    0.743388
     92          6           0        5.413557   -5.931901    0.924986
     93          1           0        6.607736   -6.721334    0.636544
     94          7           0        4.062931    0.789448    2.820262
     95          6           0        3.585359   -0.244429    3.544347
     96          6           0        3.433732    0.261949    4.917212
     97          6           0        3.704606    1.725268    4.910032
     98          6           0        3.818776    1.965218    3.485430
     99          6           0        3.142892   -0.632699    6.087010
    100          6           0        3.826383    2.742881    6.003558
    101          8           0        3.828595    4.000454    5.755894
    102          6           0        3.848940    2.226637    7.379962
    103          7           0        4.008564    2.800872    0.549041
    104          6           0        3.766946    3.633104    1.577109
    105          6           0        3.728409    5.071036    1.117450
    106          6           0        4.236517    5.051144   -0.398799
    107          6           0        4.403272    3.527625   -0.589842
    108          6           0        2.363504    5.755503    1.187586
    109          6           0        5.433548    5.975787   -0.752097
    110          6           0        6.685307    5.486817   -0.059695
    111          7           0        4.894595    0.664063   -1.236002
    112          6           0        4.894070    1.717754   -2.176111
    113          6           0        5.122767    1.115278   -3.505460
    114          6           0        5.218294   -0.260485   -3.247318
    115          6           0        5.040151   -0.500566   -1.858028
    116          6           0        5.168081    1.819840   -4.741444
    117          6           0        5.418728   -1.565251   -3.835630
    118          8           0        5.706407   -1.976817   -4.958841
    119          6           0        5.064725   -2.669523   -2.748590
    120          6           0        6.172487   -3.687044   -2.742328
    121          8           0        7.318954   -3.370990   -2.378536
    122          8           0        5.650204   -4.908348   -2.956788
    123          6           0        6.708778   -5.952939   -2.948544
    124          1           0        2.614774   -2.116536    3.721422
    125          1           0        3.557985    4.052831    3.474888
    126          1           0        4.826554    3.669552   -2.663395
    127          1           0        3.702791   -4.402625   -0.517012
    128          1           0        3.308501   -4.139002    2.260058
    129          1           0        1.582535   -3.517429   -0.101041
    130          1           0        1.266300   -2.521764    1.335260
    131          1           0        1.114189   -4.246656    1.481165
    132          1           0        5.647962   -4.107469    1.784069
    133          1           0        6.308983   -4.162441    0.109194
    134          1           0        4.536421   -6.367418    0.431107
    135          1           0        5.259202   -6.148052    1.984931
    136          1           0        2.831609   -1.632792    5.760955
    137          1           0        2.259985   -0.224056    6.590356
    138          1           0        3.968593   -0.674901    6.800529
    139          1           0        2.939057    1.661922    7.568805
    140          1           0        4.030622    3.095793    8.015123
    141          1           0        4.682382    1.521764    7.475619
    142          1           0        4.401142    5.683170    1.705505
    143          1           0        3.448832    5.371010   -1.096713
    144          1           0        2.368245    6.676914    1.800001
    145          1           0        1.644993    5.045294    1.574746
    146          1           0        1.930072    6.021132    0.224897
    147          1           0        5.251083    6.988607   -0.384610
    148          1           0        5.622849    6.049104   -1.817823
    149          1           0        6.598781    5.919868    0.941329
    150          1           0        7.573560    5.851083   -0.571909
    151          1           0        6.673502    4.396266    0.050779
    152          1           0        6.003268    1.417127   -5.298937
    153          1           0        5.273377    2.891335   -4.584671
    154          1           0        4.188311    1.559175   -5.150568
    155          1           0        4.106572   -3.109197   -3.028238
    156          1           0        6.633400   -6.491690   -3.898151
    157          1           0        6.544805   -6.537139   -2.023575
    158          1           0        7.740228   -5.621455   -2.974736
 ---------------------------------------------------------------------

 SCF Done:  E(RCAM-B3LYP) =  -4069.81301005     A.U. after   19 cycles

 Excitation energies and oscillator strengths:

 Excited State   1:      Singlet-A      1.6650 eV  744.66 nm  f=0.2316  <S**2>=0.000
     310 -> 316        0.13873
     311 -> 313       -0.39495
     312 -> 314        0.56151
 This state for optimization and/or second-order correction.
 Total Energy, E(TD-HF/TD-DFT) =  -4069.75182287
 Copying the excited state density for this state as the 1-particle RhoCI density.

 Excited State   2:      Singlet-A      1.6813 eV  737.44 nm  f=0.4451  <S**2>=0.000
     309 -> 315        0.14421
     311 -> 313        0.56041
     312 -> 314        0.39418

 Excited State   3:      Singlet-A      2.1823 eV  568.14 nm  f=0.0863  <S**2>=0.000
     309 -> 313       -0.17355
     310 -> 314        0.61984
     312 -> 316       -0.25802

 Excited State   4:      Singlet-A      2.1939 eV  565.12 nm  f=0.1086  <S**2>=0.000
     309 -> 313        0.61671
     310 -> 314        0.17172
     311 -> 315       -0.26869

 Excited State   5:      Singlet-A      2.3283 eV  532.51 nm  f=0.0000  <S**2>=0.000
     312 -> 313        0.70707

 The electronic state is 1-A.
 Alpha  occ. eigenvalues --  -46.87936 -46.87403 -19.26662 -19.26091 -19.19435
 Alpha  occ. eigenvalues --  -19.18940 -19.18912 -19.18574 -19.18379 -19.17836
 Alpha  occ. eigenvalues --  -14.42597 -14.42188 -14.41577 -14.41115 -14.39539
 Alpha  occ. eigenvalues --  -14.39105 -14.38737 -14.38353 -10.39464 -10.38839
 Alpha  occ. eigenvalues --  -10.35571 -10.35256 -10.34605 -10.34007 -10.32086
 Alpha  occ. eigenvalues --  -10.31566 -10.31505 -10.31071 -10.30961 -10.30721
 Alpha  occ. eigenvalues --  -10.30710 -10.30649 -10.30309 -10.30177 -10.30102
 Alpha  occ. eigenvalues --  -10.30050 -10.29909 -10.29774 -10.29679 -10.29379
 Alpha  occ. eigenvalues --  -10.29194 -10.29185 -10.28955 -10.28829 -10.28522
 Alpha  occ. eigenvalues --  -10.28292 -10.28266 -10.28255 -10.28149 -10.27939
 Alpha  occ. eigenvalues --  -10.27865 -10.27766 -10.27722 -10.27573 -10.27570
 Alpha  occ. eigenvalues --  -10.27558 -10.27543 -10.27525 -10.27401 -10.27337
 Alpha  occ. eigenvalues --  -10.27333 -10.27272 -10.27257 -10.27221 -10.27212
 Alpha  occ. eigenvalues --  -10.26970 -10.26794 -10.26510 -10.26388 -10.26324
 Alpha  occ. eigenvalues --  -10.26307 -10.26185 -10.26135 -10.25980 -10.25969
 Alpha  occ. eigenvalues --  -10.25694 -10.25679 -10.25502 -10.25302 -10.25029
 Alpha  occ. eigenvalues --  -10.24992 -10.24922 -10.24670 -10.24640 -10.24585
 Alpha  occ. eigenvalues --  -10.24466  -3.16678  -3.16154  -1.91560  -1.91146
 Alpha  occ. eigenvalues --   -1.91036  -1.90989  -1.90624  -1.90462  -1.17012
 Alpha  occ. eigenvalues --   -1.16387  -1.08853  -1.08443  -1.07341  -1.07037
 Alpha  occ. eigenvalues --   -1.06832  -1.06697  -1.04734  -1.04190  -1.03894
 Alpha  occ. eigenvalues --   -1.03400  -1.03373  -1.02802  -1.02551  -1.01863
 Alpha  occ. eigenvalues --   -0.92152  -0.91722  -0.89620  -0.89374  -0.89280
 Alpha  occ. eigenvalues --   -0.88659  -0.88381  -0.88023  -0.88014  -0.87823
 Alpha  occ. eigenvalues --   -0.87569  -0.87396  -0.87384  -0.86930  -0.85166
 Alpha  occ. eigenvalues --   -0.84615  -0.84033  -0.83697  -0.83073  -0.82828
 Alpha  occ. eigenvalues --   -0.82775  -0.82309  -0.81824  -0.81334  -0.80778
 Alpha  occ. eigenvalues --   -0.80186  -0.78927  -0.78415  -0.77360  -0.77127
 Alpha  occ. eigenvalues --   -0.76873  -0.76554  -0.76115  -0.75433  -0.75014
 Alpha  occ. eigenvalues --   -0.74586  -0.72911  -0.72441  -0.71822  -0.71263
 Alpha  occ. eigenvalues --   -0.69967  -0.69564  -0.69047  -0.68470  -0.67802
 Alpha  occ. eigenvalues --   -0.67411  -0.67369  -0.66890  -0.65478  -0.65037
 Alpha  occ. eigenvalues --   -0.64916  -0.64788  -0.64505  -0.64376  -0.64349
 Alpha  occ. eigenvalues --   -0.63983  -0.62550  -0.62030  -0.60561  -0.60143
 Alpha  occ. eigenvalues --   -0.59976  -0.59400  -0.59141  -0.58734  -0.58667
 Alpha  occ. eigenvalues --   -0.58177  -0.57835  -0.57448  -0.57306  -0.57029
 Alpha  occ. eigenvalues --   -0.56480  -0.56248  -0.55957  -0.55676  -0.55618
 Alpha  occ. eigenvalues --   -0.55500  -0.55213  -0.55038  -0.54715  -0.54270
 Alpha  occ. eigenvalues --   -0.54090  -0.53458  -0.53439  -0.53402  -0.53132
 Alpha  occ. eigenvalues --   -0.53003  -0.52898  -0.52873  -0.52633  -0.52492
 Alpha  occ. eigenvalues --   -0.52356  -0.52219  -0.52065  -0.51805  -0.51685
 Alpha  occ. eigenvalues --   -0.51363  -0.51323  -0.50941  -0.50673  -0.50295
 Alpha  occ. eigenvalues --   -0.50128  -0.50043  -0.49745  -0.49688  -0.49617
 Alpha  occ. eigenvalues --   -0.49393  -0.49279  -0.49176  -0.48927  -0.48802
 Alpha  occ. eigenvalues --   -0.48665  -0.48621  -0.48568  -0.48234  -0.48194
 Alpha  occ. eigenvalues --   -0.48109  -0.47848  -0.47439  -0.47303  -0.46936
 Alpha  occ. eigenvalues --   -0.46891  -0.46750  -0.46511  -0.46434  -0.46314
 Alpha  occ. eigenvalues --   -0.46146  -0.46035  -0.46029  -0.45871  -0.45545
 Alpha  occ. eigenvalues --   -0.45306  -0.45011  -0.44773  -0.44646  -0.44305
 Alpha  occ. eigenvalues --   -0.44278  -0.44235  -0.44183  -0.44164  -0.43880
 Alpha  occ. eigenvalues --   -0.43731  -0.43721  -0.43661  -0.43538  -0.43291
 Alpha  occ. eigenvalues --   -0.43186  -0.43059  -0.43005  -0.42746  -0.42680
 Alpha  occ. eigenvalues --   -0.42631  -0.42354  -0.42138  -0.41869  -0.41717
 Alpha  occ. eigenvalues --   -0.41710  -0.41403  -0.41294  -0.41119  -0.41029
 Alpha  occ. eigenvalues --   -0.40964  -0.40670  -0.40651  -0.40513  -0.40452
 Alpha  occ. eigenvalues --   -0.40378  -0.40151  -0.39854  -0.39491  -0.39239
 Alpha  occ. eigenvalues --   -0.38577  -0.38120  -0.37968  -0.37452  -0.37432
 Alpha  occ. eigenvalues --   -0.37317  -0.37022  -0.37013  -0.36850  -0.36530
 Alpha  occ. eigenvalues --   -0.36374  -0.35960  -0.34438  -0.34136  -0.33988
 Alpha  occ. eigenvalues --   -0.33614  -0.33342  -0.32922  -0.31471  -0.31188
 Alpha  occ. eigenvalues --   -0.31130  -0.30704  -0.30244  -0.29737  -0.29590
 Alpha  occ. eigenvalues --   -0.29474  -0.29116  -0.28986  -0.24228  -0.23774
 Alpha  occ. eigenvalues --   -0.21266  -0.20855
 Alpha virt. eigenvalues --   -0.08917  -0.08553  -0.01884  -0.01439  -0.00204
 Alpha virt. eigenvalues --    0.00206   0.02030   0.02416   0.02840   0.03518
 Alpha virt. eigenvalues --    0.04545   0.04745   0.05077   0.05419   0.05928

 Mulliken charges:
               1
     1  Mg   0.838950
     2  C   -0.004138
     3  C   -0.093920
     4  C   -0.045638
     5  C   -0.063364
     6  N   -0.256856
     7  C   -0.052698
     8  C   -0.014090
     9  C   -0.087098
    10  C    0.046337
    11  C    0.104701
    12  C    0.053546
    13  C   -0.071254
    14  H    0.033281
    15  N   -0.433239
    16  C    0.168820
    17  C   -0.176594
    18  C   -0.003671
    19  C    0.148915
    20  C    0.109949
    21  C    0.012118
    22  O   -0.249579
    23  C    0.062232
    24  N   -0.341194
    25  C    0.041633
    26  C   -0.028270
    27  C   -0.024082
    28  C    0.074855
    29  C    0.076079
    30  C    0.034971
    31  C   -0.005063
    32  N   -0.310228
    33  C    0.079938
    34  C   -0.170027
    35  C    0.007743
    36  C    0.082408
    37  C    0.127472
    38  C    0.044897
    39  O   -0.189444
    40  C   -0.005057
    41  C    0.213705
    42  O   -0.260916
    43  O   -0.303660
    44  C    0.158381
    45  H   -0.017281
    46  H   -0.016523
    47  H   -0.040651
    48  H    0.000815
    49  H   -0.003844
    50  H    0.025496
    51  H    0.016886
    52  H    0.016987
    53  H    0.011958
    54  H    0.041777
    55  H    0.018624
    56  H    0.018846
    57  H    0.006063
    58  H    0.027109
    59  H    0.040751
    60  H    0.037749
    61  H    0.035566
    62  H    0.032133
    63  H    0.016721
    64  H    0.009770
    65  H    0.023499
    66  H    0.012413
    67  H    0.005174
    68  H    0.006854
    69  H    0.005725
    70  H    0.007976
    71  H    0.020786
    72  H    0.028382
    73  H    0.046722
    74  H    0.010222
    75  H    0.046255
    76  H    0.035690
    77  H    0.043697
    78  H    0.046888
    79  H    0.050565
    80  Mg   0.837232
    81  C   -0.016986
    82  C   -0.087094
    83  C   -0.046690
    84  C   -0.065159
    85  N   -0.255165
    86  C   -0.048542
    87  C   -0.015339
    88  C   -0.090430
    89  C    0.045655
    90  C    0.113898
    91  C    0.062358
    92  C   -0.077501
    93  H    0.032773
    94  N   -0.423535
    95  C    0.162790
    96  C   -0.174418
    97  C   -0.008953
    98  C    0.152556
    99  C    0.099589
   100  C    0.014799
   101  O   -0.254458
   102  C    0.061497
   103  N   -0.350261
   104  C    0.037642
   105  C   -0.019653
   106  C   -0.035042
   107  C    0.088890
   108  C    0.073538
   109  C    0.034945
   110  C   -0.007529
   111  N   -0.324001
   112  C    0.078338
   113  C   -0.163719
   114  C    0.001885
   115  C    0.096169
   116  C    0.131619
   117  C    0.041495
   118  O   -0.189079
   119  C    0.001410
   120  C    0.211259
   121  O   -0.251478
   122  O   -0.305168
   123  C    0.152292
   124  H   -0.016069
   125  H   -0.017108
   126  H   -0.041001
   127  H    0.000538
   128  H   -0.005004
   129  H    0.021191
   130  H    0.015619
   131  H    0.029816
   132  H    0.013019
   133  H    0.036379
   134  H    0.022804
   135  H    0.019570
   136  H    0.010025
   137  H    0.024730
   138  H    0.038956
   139  H    0.037445
   140  H    0.035327
   141  H    0.034092
   142  H    0.013721
   143  H    0.013241
   144  H    0.023314
   145  H    0.010295
   146  H    0.006908
   147  H    0.005564
   148  H    0.003634
   149  H    0.010407
   150  H    0.017467
   151  H    0.030472
   152  H    0.045424
   153  H    0.008322
   154  H    0.045825
   155  H    0.035531
   156  H    0.043290
   157  H    0.050253
   158  H    0.052924
 Sum of Mulliken charges =  -0.00000

 Dipole moment (field-independent basis, Debye):
    X=             -5.5784    Y=              1.4326    Z=              5.1590  Tot=              7.7322
 Quadrupole moment (field-independent basis, Debye-Ang):
   XX=           -518.4619   YY=           -514.9868   ZZ=           -485.9597
   XY=            -15.4876   XZ=              0.1566   YZ=            -17.2147

 Normal termination of Gaussian 16 at Sat Sep  4 00:29:45 2021.
