 Gaussian 16, Revision A.03,
 Gaussian 16:  ES64L-G16RevA.03 25-Dec-2016

 -----------------------------------
 #p cam-b3lyp/Def2SVP td=(nstates=5)
 -----------------------------------

 --------------------------------
 TDDFT excited states in gaussian
 --------------------------------
 Symbolic Z-matrix:
 Charge =  0 Multiplicity = 1

                         Standard orientation:
 ---------------------------------------------------------------------
 Center     Atomic      Atomic             Coordinates (Angstroms)
 Number     Number       Type             X           Y           Z
 ---------------------------------------------------------------------
      1         12           0        3.667366    1.076391    0.464783
      2          6           0        3.988065   -1.835101    2.522105
      3          6           0        5.041954   -0.746442   -2.071130
      4          6           0        3.814900    3.751257   -1.232258
      5          6           0        3.395697    2.938464    3.398133
      6          7           0        4.381527   -1.016419    0.361028
      7          6           0        4.393481   -2.045657    1.202276
      8          6           0        4.806247   -3.388848    0.529345
      9          6           0        5.635063   -2.808761   -0.702954
     10          6           0        4.956853   -1.456722   -0.836912
     11          6           0        7.112439   -2.588730   -0.394005
     12          6           0        3.568157   -4.217637    0.047710
     13          6           0        3.860719   -5.675059   -0.320642
     14          1           0        2.857361   -6.686842   -0.025829
     15          7           0        3.867360    1.349434   -1.481573
     16          6           0        4.437081    0.494801   -2.364922
     17          6           0        4.342621    1.151644   -3.686404
     18          6           0        3.843176    2.538058   -3.470753
     19          6           0        3.846789    2.611302   -2.032004
     20          6           0        4.659460    0.456926   -4.975097
     21          6           0        3.438419    3.628075   -4.412117
     22          8           0        3.256180    4.831603   -4.021116
     23          6           0        3.345702    3.264185   -5.837610
     24          7           0        3.833903    3.088131    0.996575
     25          6           0        3.817170    4.050938    0.068292
     26          6           0        3.663816    5.406993    0.690815
     27          6           0        3.333550    5.151121    2.231986
     28          6           0        3.441573    3.606299    2.243161
     29          6           0        4.879597    6.337013    0.577006
     30          6           0        2.045641    5.804517    2.793043
     31          6           0        0.829049    5.165795    2.161350
     32          7           0        3.507219    0.643792    2.585692
     33          6           0        3.427351    1.573885    3.632220
     34          6           0        3.444492    0.808682    4.892474
     35          6           0        3.550537   -0.521003    4.489314
     36          6           0        3.623149   -0.580707    3.068239
     37          6           0        3.425116    1.361456    6.203389
     38          6           0        3.644201   -1.903532    4.929425
     39          8           0        3.542936   -2.476709    6.015108
     40          6           0        4.053790   -2.800716    3.679176
     41          6           0        3.135122   -3.991820    3.654056
     42          8           0        1.916812   -3.855269    3.420731
     43          8           0        3.865737   -5.117182    3.671476
     44          6           0        3.015820   -6.336602    3.618455
     45          1           0        5.675786   -1.143926   -2.866243
     46          1           0        3.752829    4.692347   -1.782653
     47          1           0        3.229220    3.445822    4.350144
     48          1           0        5.445332   -4.026024    1.140902
     49          1           0        5.486259   -3.398594   -1.607208
     50          1           0        7.326049   -2.745653    0.663193
     51          1           0        7.317726   -1.555473   -0.674592
     52          1           0        7.739083   -3.204672   -1.039537
     53          1           0        3.240343   -3.843379   -0.922100
     54          1           0        2.770491   -4.186717    0.790744
     55          1           0        4.839001   -5.989639    0.043928
     56          1           0        3.941052   -5.743618   -1.405560
     57          1           0        5.157871   -0.496436   -4.804125
     58          1           0        5.403933    1.064227   -5.489542
     59          1           0        3.778487    0.342080   -5.606786
     60          1           0        4.313279    2.895231   -6.178515
     61          1           0        2.957450    4.144807   -6.348116
     62          1           0        2.646029    2.434873   -5.945534
     63          1           0        2.840367    5.955528    0.235330
     64          1           0        4.124666    5.518219    2.886239
     65          1           0        4.658919    7.289003    0.093559
     66          1           0        5.665204    5.801127    0.045086
     67          1           0        5.372746    6.562393    1.522218
     68          1           0        2.018040    6.864406    2.542406
     69          1           0        1.955389    5.717319    3.875865
     70          1           0        0.729440    5.708289    1.221877
     71          1           0       -0.048401    5.312768    2.791978
     72          1           0        1.011136    4.119390    1.915657
     73          1           0        2.725761    0.755715    6.779542
     74          1           0        3.122527    2.408253    6.187289
     75          1           0        4.468101    1.232677    6.492274
     76          1           0        5.093966   -3.089037    3.827587
     77          1           0        3.276765   -6.947551    4.482678
     78          1           0        3.159512   -6.771694    2.629287
     79          1           0        1.948537   -6.187953    3.786230
     80         12           0       -4.168592    0.154926   -0.381026
     81          6           0       -2.065207   -1.887557   -2.450594
     82          6           0       -6.185257   -2.569486    0.000080
     83          6           0       -6.270517    2.037623    1.069767
     84          6           0       -2.652473    2.939368   -1.828090
     85          7           0       -4.036049   -1.906347   -1.172115
     86          6           0       -3.159734   -2.584533   -1.897697
     87          6           0       -3.430718   -4.111160   -1.972182
     88          6           0       -5.007692   -4.090511   -1.669515
     89          6           0       -5.085375   -2.794024   -0.865917
     90          6           0       -5.858179   -3.929921   -2.918595
     91          6           0       -2.645613   -4.911836   -0.874669
     92          6           0       -2.618764   -6.427962   -1.080544
     93          1           0       -1.415187   -7.161116   -0.697994
     94          7           0       -5.688625   -0.297182    0.812157
     95          6           0       -6.376595   -1.457607    0.849467
     96          6           0       -7.408656   -1.280408    1.882722
     97          6           0       -7.379255    0.136469    2.336940
     98          6           0       -6.438465    0.697910    1.388374
     99          6           0       -8.245720   -2.414243    2.399605
    100          6           0       -8.091026    0.868160    3.434312
    101          8           0       -8.094753    2.148304    3.497957
    102          6           0       -8.861122    0.045571    4.378657
    103          7           0       -4.577666    2.187974   -0.528366
    104          6           0       -5.506985    2.764625    0.253799
    105          6           0       -5.433723    4.270526    0.168334
    106          6           0       -4.098136    4.589857   -0.651317
    107          6           0       -3.658080    3.148555   -0.989538
    108          6           0       -6.621043    4.957081   -0.506423
    109          6           0       -3.068738    5.538123    0.022335
    110          6           0       -2.466230    4.867406    1.235804
    111          7           0       -2.515291    0.501384   -1.728107
    112          6           0       -2.066348    1.744417   -2.225495
    113          6           0       -0.989415    1.461562   -3.196386
    114          6           0       -0.901526    0.061390   -3.213738
    115          6           0       -1.869980   -0.490212   -2.332074
    116          6           0       -0.277536    2.432714   -3.955465
    117          6           0       -0.216880   -1.075780   -3.785397
    118          8           0        0.753905   -1.222596   -4.526850
    119          6           0       -1.025111   -2.392441   -3.411786
    120          6           0       -0.042248   -3.413497   -2.907876
    121          8           0        0.580574   -3.222278   -1.848558
    122          8           0       -0.159671   -4.536662   -3.639376
    123          6           0        0.787272   -5.583159   -3.170379
    124          1           0       -7.001669   -3.292224   -0.000024
    125          1           0       -6.897731    2.737086    1.627286
    126          1           0       -2.063358    3.757121   -2.248678
    127          1           0       -3.243867   -4.558958   -2.940868
    128          1           0       -5.303265   -4.937647   -1.056044
    129          1           0       -5.255991   -3.736951   -3.793973
    130          1           0       -6.516696   -3.094318   -2.720683
    131          1           0       -6.506979   -4.801008   -3.047447
    132          1           0       -3.199972   -4.860461    0.071270
    133          1           0       -1.643206   -4.542534   -0.777609
    134          1           0       -2.937249   -6.712462   -2.090778
    135          1           0       -3.367762   -6.880359   -0.426037
    136          1           0       -8.158481   -3.302165    1.761347
    137          1           0       -9.293193   -2.109796    2.299744
    138          1           0       -8.042811   -2.643841    3.447826
    139          1           0       -9.611653   -0.522408    3.834081
    140          1           0       -9.223740    0.737868    5.140953
    141          1           0       -8.185665   -0.684809    4.837929
    142          1           0       -5.354255    4.710444    1.154872
    143          1           0       -4.316344    5.084723   -1.609081
    144          1           0       -7.113227    5.710338    0.137346
    145          1           0       -7.327811    4.196289   -0.810094
    146          1           0       -6.393914    5.451090   -1.449588
    147          1           0       -3.565754    6.442326    0.382231
    148          1           0       -2.271041    5.852045   -0.642592
    149          1           0       -3.208206    5.058004    2.016991
    150          1           0       -1.506779    5.316292    1.484769
    151          1           0       -2.406022    3.781804    1.096184
    152          1           0        0.765771    2.147940   -3.925187
    153          1           0       -0.428487    3.435067   -3.560170
    154          1           0       -0.750129    2.301303   -4.932531
    155          1           0       -1.538558   -2.728572   -4.313428
    156          1           0        1.385317   -5.884030   -4.036120
    157          1           0        0.160963   -6.361717   -2.695699
    158          1           0        1.560677   -5.283076   -2.473055
 ---------------------------------------------------------------------

 SCF Done:  E(RCAM-B3LYP) =  -4069.81399026     A.U. after   18 cycles

 Excitation energies and oscillator strengths:

 Excited State   1:      Singlet-A      1.6269 eV  762.09 nm  f=0.1507  <S**2>=0.000
     309 -> 315        0.11926
     310 -> 316       -0.10710
     311 -> 313        0.50321
     312 -> 314       -0.46613
 This state for optimization and/or second-order correction.
 Total Energy, E(TD-HF/TD-DFT) =  -4069.75420310
 Copying the excited state density for this state as the 1-particle RhoCI density.

 Excited State   2:      Singlet-A      1.7103 eV  724.92 nm  f=0.5778  <S**2>=0.000
     309 -> 315        0.12367
     310 -> 316        0.13223
     311 -> 313        0.46504
     312 -> 314        0.50107

 Excited State   3:      Singlet-A      2.1502 eV  576.63 nm  f=0.0000  <S**2>=0.000
     312 -> 313        0.69663

 Excited State   4:      Singlet-A      2.1749 eV  570.08 nm  f=0.0055  <S**2>=0.000
     309 -> 313        0.51432
     310 -> 314        0.38211
     311 -> 315       -0.20987
     312 -> 316       -0.15228

 Excited State   5:      Singlet-A      2.1962 eV  564.54 nm  f=0.1596  <S**2>=0.000
     309 -> 313       -0.38263
     310 -> 314        0.50924
     311 -> 315        0.16797
     312 -> 316       -0.22331

 The electronic state is 1-A.
 Alpha  occ. eigenvalues --  -46.87584 -46.87084 -19.26728 -19.25817 -19.19620
 Alpha  occ. eigenvalues --  -19.18643 -19.18482 -19.18356 -19.18310 -19.17590
 Alpha  occ. eigenvalues --  -14.42419 -14.41720 -14.41289 -14.40811 -14.39282
 Alpha  occ. eigenvalues --  -14.38708 -14.38559 -14.37913 -10.39449 -10.38540
 Alpha  occ. eigenvalues --  -10.35317 -10.34939 -10.34474 -10.33811 -10.32171
 Alpha  occ. eigenvalues --  -10.31337 -10.31281 -10.30973 -10.30697 -10.30351
 Alpha  occ. eigenvalues --  -10.30334 -10.30156 -10.30019 -10.29926 -10.29870
 Alpha  occ. eigenvalues --  -10.29837 -10.29594 -10.29392 -10.29364 -10.29351
 Alpha  occ. eigenvalues --  -10.29036 -10.28676 -10.28619 -10.28563 -10.28388
 Alpha  occ. eigenvalues --  -10.28153 -10.28102 -10.27984 -10.27958 -10.27661
 Alpha  occ. eigenvalues --  -10.27602 -10.27458 -10.27422 -10.27397 -10.27381
 Alpha  occ. eigenvalues --  -10.27344 -10.27253 -10.27252 -10.27123 -10.27120
 Alpha  occ. eigenvalues --  -10.27102 -10.27002 -10.26943 -10.26738 -10.26576
 Alpha  occ. eigenvalues --  -10.26575 -10.26408 -10.26311 -10.26017 -10.25954
 Alpha  occ. eigenvalues --  -10.25881 -10.25827 -10.25786 -10.25709 -10.25642
 Alpha  occ. eigenvalues --  -10.25584 -10.25401 -10.25339 -10.25302 -10.25115
 Alpha  occ. eigenvalues --  -10.24881 -10.24638 -10.24608 -10.24205 -10.24193
 Alpha  occ. eigenvalues --  -10.24183  -3.16331  -3.15821  -1.91213  -1.90802
 Alpha  occ. eigenvalues --   -1.90702  -1.90640  -1.90290  -1.90133  -1.17023
 Alpha  occ. eigenvalues --   -1.16150  -1.08944  -1.08063  -1.07347  -1.06892
 Alpha  occ. eigenvalues --   -1.06726  -1.06111  -1.04438  -1.03861  -1.03599
 Alpha  occ. eigenvalues --   -1.03118  -1.02977  -1.02575  -1.02062  -1.01755
 Alpha  occ. eigenvalues --   -0.92022  -0.91329  -0.89399  -0.89098  -0.89067
 Alpha  occ. eigenvalues --   -0.88451  -0.88097  -0.87823  -0.87734  -0.87613
 Alpha  occ. eigenvalues --   -0.87254  -0.87052  -0.86961  -0.86548  -0.84951
 Alpha  occ. eigenvalues --   -0.84312  -0.83796  -0.83568  -0.82839  -0.82628
 Alpha  occ. eigenvalues --   -0.82373  -0.82026  -0.81709  -0.81047  -0.80461
 Alpha  occ. eigenvalues --   -0.79997  -0.78574  -0.78093  -0.77081  -0.76929
 Alpha  occ. eigenvalues --   -0.76689  -0.76367  -0.75865  -0.75335  -0.74753
 Alpha  occ. eigenvalues --   -0.74418  -0.72639  -0.72164  -0.71555  -0.71081
 Alpha  occ. eigenvalues --   -0.69829  -0.69396  -0.68789  -0.68241  -0.67587
 Alpha  occ. eigenvalues --   -0.67134  -0.67034  -0.66526  -0.65270  -0.64794
 Alpha  occ. eigenvalues --   -0.64661  -0.64600  -0.64285  -0.64147  -0.64023
 Alpha  occ. eigenvalues --   -0.63731  -0.62420  -0.61784  -0.60272  -0.59804
 Alpha  occ. eigenvalues --   -0.59749  -0.59101  -0.58970  -0.58455  -0.58383
 Alpha  occ. eigenvalues --   -0.57906  -0.57743  -0.57196  -0.57010  -0.56766
 Alpha  occ. eigenvalues --   -0.56229  -0.55998  -0.55683  -0.55508  -0.55433
 Alpha  occ. eigenvalues --   -0.55323  -0.55022  -0.54890  -0.54500  -0.54071
 Alpha  occ. eigenvalues --   -0.53869  -0.53236  -0.53182  -0.53155  -0.52936
 Alpha  occ. eigenvalues --   -0.52776  -0.52618  -0.52578  -0.52353  -0.52276
 Alpha  occ. eigenvalues --   -0.52184  -0.52093  -0.51676  -0.51581  -0.51361
 Alpha  occ. eigenvalues --   -0.51216  -0.50905  -0.50649  -0.50392  -0.50025
 Alpha  occ. eigenvalues --   -0.49909  -0.49755  -0.49497  -0.49369  -0.49282
 Alpha  occ. eigenvalues --   -0.49237  -0.49120  -0.48884  -0.48657  -0.48598
 Alpha  occ. eigenvalues --   -0.48442  -0.48397  -0.48259  -0.48080  -0.47947
 Alpha  occ. eigenvalues --   -0.47839  -0.47569  -0.47129  -0.47059  -0.46688
 Alpha  occ. eigenvalues --   -0.46634  -0.46534  -0.46323  -0.46186  -0.46058
 Alpha  occ. eigenvalues --   -0.45951  -0.45862  -0.45725  -0.45625  -0.45345
 Alpha  occ. eigenvalues --   -0.45167  -0.44754  -0.44551  -0.44399  -0.44201
 Alpha  occ. eigenvalues --   -0.44070  -0.43984  -0.43952  -0.43908  -0.43654
 Alpha  occ. eigenvalues --   -0.43580  -0.43503  -0.43382  -0.43339  -0.43102
 Alpha  occ. eigenvalues --   -0.42984  -0.42908  -0.42763  -0.42623  -0.42376
 Alpha  occ. eigenvalues --   -0.42251  -0.42200  -0.41843  -0.41698  -0.41522
 Alpha  occ. eigenvalues --   -0.41359  -0.41119  -0.40962  -0.40938  -0.40650
 Alpha  occ. eigenvalues --   -0.40620  -0.40559  -0.40391  -0.40347  -0.40245
 Alpha  occ. eigenvalues --   -0.40142  -0.40059  -0.39457  -0.39311  -0.38744
 Alpha  occ. eigenvalues --   -0.38183  -0.38009  -0.37602  -0.37228  -0.37147
 Alpha  occ. eigenvalues --   -0.37103  -0.36990  -0.36772  -0.36568  -0.36250
 Alpha  occ. eigenvalues --   -0.36093  -0.35612  -0.34275  -0.34116  -0.33629
 Alpha  occ. eigenvalues --   -0.33208  -0.33134  -0.32533  -0.31203  -0.30931
 Alpha  occ. eigenvalues --   -0.30831  -0.30389  -0.30226  -0.29456  -0.29310
 Alpha  occ. eigenvalues --   -0.29200  -0.28775  -0.28657  -0.23983  -0.23405
 Alpha  occ. eigenvalues --   -0.21059  -0.20455
 Alpha virt. eigenvalues --   -0.08756  -0.08100  -0.01611  -0.01135   0.00003
 Alpha virt. eigenvalues --    0.00585   0.02144   0.02768   0.02972   0.04518
 Alpha virt. eigenvalues --    0.04668   0.04792   0.05248   0.05643   0.05880

 Mulliken charges:
               1
     1  Mg   0.842309
     2  C   -0.000485
     3  C   -0.085017
     4  C   -0.050956
     5  C   -0.066141
     6  N   -0.257227
     7  C   -0.047116
     8  C   -0.016964
     9  C   -0.090801
    10  C    0.054552
    11  C    0.105670
    12  C    0.055466
    13  C   -0.073501
    14  H    0.027759
    15  N   -0.433095
    16  C    0.176851
    17  C   -0.168093
    18  C   -0.007118
    19  C    0.146749
    20  C    0.112622
    21  C    0.005529
    22  O   -0.254269
    23  C    0.065583
    24  N   -0.340987
    25  C    0.041829
    26  C   -0.028082
    27  C   -0.025018
    28  C    0.073446
    29  C    0.076860
    30  C    0.051803
    31  C   -0.038523
    32  N   -0.309965
    33  C    0.079350
    34  C   -0.171857
    35  C    0.007158
    36  C    0.082283
    37  C    0.127777
    38  C    0.045015
    39  O   -0.191602
    40  C   -0.005853
    41  C    0.212550
    42  O   -0.255725
    43  O   -0.305130
    44  C    0.159249
    45  H   -0.018975
    46  H   -0.020788
    47  H   -0.044205
    48  H   -0.003176
    49  H   -0.004273
    50  H    0.024256
    51  H    0.015640
    52  H    0.014514
    53  H    0.027403
    54  H    0.046348
    55  H    0.015355
    56  H    0.012613
    57  H    0.004723
    58  H    0.020984
    59  H    0.053911
    60  H    0.037206
    61  H    0.031682
    62  H    0.035519
    63  H    0.013330
    64  H    0.008189
    65  H    0.021294
    66  H    0.013109
    67  H    0.004144
    68  H    0.003744
    69  H    0.002570
    70  H    0.018020
    71  H    0.042216
    72  H    0.035688
    73  H    0.045737
    74  H    0.007517
    75  H    0.044510
    76  H    0.033708
    77  H    0.040995
    78  H    0.045587
    79  H    0.051969
    80  Mg   0.841335
    81  C   -0.016441
    82  C   -0.087564
    83  C   -0.045118
    84  C   -0.066013
    85  N   -0.255121
    86  C   -0.048397
    87  C   -0.016500
    88  C   -0.090801
    89  C    0.047390
    90  C    0.114469
    91  C    0.062148
    92  C   -0.077461
    93  H    0.033247
    94  N   -0.423494
    95  C    0.164658
    96  C   -0.174125
    97  C   -0.007001
    98  C    0.152790
    99  C    0.099395
   100  C    0.016271
   101  O   -0.252973
   102  C    0.060776
   103  N   -0.350221
   104  C    0.038084
   105  C   -0.020429
   106  C   -0.031771
   107  C    0.088944
   108  C    0.073835
   109  C    0.033662
   110  C   -0.003260
   111  N   -0.323344
   112  C    0.075743
   113  C   -0.162154
   114  C   -0.000042
   115  C    0.095725
   116  C    0.124827
   117  C    0.043303
   118  O   -0.196641
   119  C    0.001344
   120  C    0.211957
   121  O   -0.245811
   122  O   -0.304477
   123  C    0.157408
   124  H   -0.019790
   125  H   -0.015332
   126  H   -0.038044
   127  H   -0.002290
   128  H   -0.003876
   129  H    0.021696
   130  H    0.014494
   131  H    0.016127
   132  H    0.017127
   133  H    0.040526
   134  H    0.019304
   135  H    0.020274
   136  H    0.008873
   137  H    0.025981
   138  H    0.041164
   139  H    0.037968
   140  H    0.036530
   141  H    0.035177
   142  H    0.014901
   143  H    0.012112
   144  H    0.024864
   145  H    0.011122
   146  H    0.005759
   147  H    0.003930
   148  H    0.003669
   149  H    0.005596
   150  H    0.002756
   151  H    0.028829
   152  H    0.050383
   153  H    0.018072
   154  H    0.042829
   155  H    0.034713
   156  H    0.041079
   157  H    0.051962
   158  H    0.045416
 Sum of Mulliken charges =  -0.00000

 Dipole moment (field-independent basis, Debye):
    X=             -1.7484    Y=             -3.2811    Z=             -3.6868  Tot=              5.2359
 Quadrupole moment (field-independent basis, Debye-Ang):
   XX=           -482.0265   YY=           -466.3496   ZZ=           -534.1082
   XY=             17.5598   XZ=             -6.7942   YZ=             23.4577

 Normal termination of Gaussian 16 at Wed Sep  8 21:25:38 2021.
