 Gaussian 16, Revision A.03,
 Gaussian 16:  ES64L-G16RevA.03 25-Dec-2016

 -----------------------------------
 #p cam-b3lyp/Def2SVP td=(nstates=5)
 -----------------------------------

 --------------------------------
 TDDFT excited states in gaussian
 --------------------------------
 Symbolic Z-matrix:
 Charge =  0 Multiplicity = 1

                         Standard orientation:
 ---------------------------------------------------------------------
 Center     Atomic      Atomic             Coordinates (Angstroms)
 Number     Number       Type             X           Y           Z
 ---------------------------------------------------------------------
      1         12           0        6.889561    0.340950    0.414138
      2          6           0        7.031818   -2.834593   -1.231434
      3          6           0        7.879446    1.745721   -2.533711
      4          6           0        7.210634    3.092125    1.958343
      5          6           0        7.025023   -1.385843    3.438290
      6          7           0        7.362497   -0.537496   -1.562048
      7          6           0        7.320060   -1.761864   -2.078084
      8          6           0        7.536653   -1.789994   -3.620702
      9          6           0        8.336971   -0.421178   -3.787530
     10          6           0        7.802578    0.321871   -2.575826
     11          6           0        9.847267   -0.576770   -3.641590
     12          6           0        6.185404   -1.763605   -4.411372
     13          6           0        6.291307   -2.115595   -5.898060
     14          1           0        5.206324   -2.858844   -6.520748
     15          7           0        6.983688    2.191433   -0.271212
     16          6           0        7.394699    2.579088   -1.502503
     17          6           0        7.281673    4.053341   -1.524519
     18          6           0        6.952363    4.505112   -0.144101
     19          6           0        7.062953    3.267214    0.584429
     20          6           0        7.431445    4.871543   -2.770256
     21          6           0        6.605009    5.842445    0.429498
     22          8           0        6.582391    6.056947    1.689677
     23          6           0        6.375289    6.931995   -0.536500
     24          7           0        7.310597    0.811903    2.403752
     25          6           0        7.335063    2.082155    2.821897
     26          6           0        7.373650    2.163466    4.319174
     27          6           0        7.124322    0.677959    4.849132
     28          6           0        7.063821   -0.052277    3.484814
     29          6           0        8.672829    2.710619    4.926438
     30          6           0        5.956998    0.474088    5.847236
     31          6           0        4.637457    0.722136    5.151261
     32          7           0        6.829569   -1.737987    1.034999
     33          6           0        6.923780   -2.229769    2.344941
     34          6           0        6.944107   -3.701264    2.253518
     35          6           0        6.876577   -3.964696    0.886811
     36          6           0        6.844269   -2.735338    0.168531
     37          6           0        7.075372   -4.602420    3.346734
     38          6           0        6.849050   -4.998548   -0.135074
     39          8           0        6.760875   -6.227199   -0.123428
     40          6           0        7.071374   -4.307959   -1.552637
     41          6           0        6.028808   -4.851217   -2.491378
     42          8           0        4.819490   -4.593367   -2.322772
     43          8           0        6.631857   -5.384838   -3.564748
     44          6           0        5.652461   -5.915959   -4.550065
     45          1           0        8.409936    2.269492   -3.331323
     46          1           0        7.213782    4.017653    2.537848
     47          1           0        6.980763   -1.992342    4.344741
     48          1           0        8.143042   -2.621883   -3.979420
     49          1           0        8.062877    0.101414   -4.703768
     50          1           0       10.114752   -1.582682   -3.318305
     51          1           0       10.144159    0.155920   -2.890915
     52          1           0       10.357112   -0.287351   -4.560868
     53          1           0        5.834373   -0.734610   -4.488890
     54          1           0        5.448905   -2.414158   -3.938428
     55          1           0        7.252228   -2.575041   -6.131403
     56          1           0        6.288827   -1.187525   -6.469793
     57          1           0        7.833545    4.280147   -3.591908
     58          1           0        8.200498    5.617497   -2.570706
     59          1           0        6.501829    5.367607   -3.049659
     60          1           0        7.271112    7.070828   -1.142120
     61          1           0        6.051131    7.790741    0.050293
     62          1           0        5.583628    6.633107   -1.224169
     63          1           0        6.585515    2.814111    4.695910
     64          1           0        7.993882    0.278844    5.371862
     65          1           0        8.524489    3.580451    5.566823
     66          1           0        9.356857    2.938564    4.109470
     67          1           0        9.251486    1.985067    5.497531
     68          1           0        6.027909    1.190397    6.665050
     69          1           0        5.932521   -0.524968    6.282597
     70          1           0        4.533152    1.805164    5.206058
     71          1           0        3.826753    0.224369    5.684362
     72          1           0        4.687052    0.452529    4.096112
     73          1           0        6.355479   -5.401754    3.171264
     74          1           0        6.888305   -4.102361    4.296761
     75          1           0        8.115499   -4.907526    3.233150
     76          1           0        8.081658   -4.563393   -1.870760
     77          1           0        5.904114   -6.962801   -4.720434
     78          1           0        5.679446   -5.243087   -5.407340
     79          1           0        4.621834   -6.005595   -4.204939
     80         12           0       -6.337574    0.760610    0.104550
     81          6           0       -8.918923   -1.730090    0.214373
     82          6           0       -8.409076    2.605581   -1.880282
     83          6           0       -3.925052    2.763283   -0.381757
     84          6           0       -4.098713   -1.714886    1.107109
     85          7           0       -8.376546    0.380324   -0.663697
     86          6           0       -9.282441   -0.572923   -0.505527
     87          6           0      -10.681152   -0.233893   -1.087082
     88          6           0      -10.229805    0.850198   -2.182479
     89          6           0       -8.941652    1.340685   -1.524628
     90          6           0       -9.875789    0.236066   -3.526678
     91          6           0      -11.637441    0.396822   -0.014823
     92          6           0      -13.109295    0.467009   -0.427708
     93          1           0      -14.130034    0.270350    0.597907
     94          7           0       -6.335726    2.634174   -0.549929
     95          6           0       -7.267019    3.225472   -1.327317
     96          6           0       -6.794327    4.601384   -1.545477
     97          6           0       -5.427310    4.724478   -0.970275
     98          6           0       -5.162264    3.342852   -0.622519
     99          6           0       -7.648585    5.665756   -2.170598
    100          6           0       -4.505423    5.890420   -0.778218
    101          8           0       -3.270358    5.729563   -0.475606
    102          6           0       -5.067951    7.222057   -1.046198
    103          7           0       -4.273491    0.512455    0.122903
    104          6           0       -3.449766    1.557927   -0.067871
    105          6           0       -2.021576    1.194295    0.261427
    106          6           0       -2.092827   -0.248711    0.947173
    107          6           0       -3.606941   -0.520184    0.808758
    108          6           0       -1.056966    1.147366   -0.923360
    109          6           0       -1.440915   -0.394472    2.349472
    110          6           0       -2.220199    0.407505    3.366783
    111          7           0       -6.480632   -1.293686    0.758338
    112          6           0       -5.416338   -2.154492    1.105266
    113          6           0       -6.001357   -3.484569    1.371855
    114          6           0       -7.373534   -3.309631    1.137312
    115          6           0       -7.623252   -1.970601    0.732200
    116          6           0       -5.275763   -4.656421    1.727369
    117          6           0       -8.666145   -3.956006    1.130032
    118          8           0       -9.086210   -5.062078    1.467519
    119          6           0       -9.707571   -2.995177    0.409876
    120          6           0      -10.943270   -2.925442    1.264687
    121          8           0      -10.901763   -2.407593    2.394614
    122          8           0      -12.010328   -3.281777    0.526611
    123          6           0      -13.261672   -3.217734    1.327775
    124          1           0       -8.885279    3.160122   -2.689353
    125          1           0       -3.069674    3.441229   -0.428557
    126          1           0       -3.479788   -2.514517    1.519660
    127          1           0      -11.185430   -1.062442   -1.569764
    128          1           0      -10.951455    1.659448   -2.258007
    129          1           0       -9.872682   -0.843121   -3.488277
    130          1           0       -8.889390    0.608840   -3.769768
    131          1           0      -10.542958    0.619769   -4.303855
    132          1           0      -11.416505    1.468121    0.076033
    133          1           0      -11.549310   -0.116198    0.923080
    134          1           0      -13.321348   -0.155693   -1.305339
    135          1           0      -13.327897    1.484210   -0.761678
    136          1           0       -8.542030    5.238755   -2.642640
    137          1           0       -7.075962    6.086803   -3.004067
    138          1           0       -7.899528    6.467928   -1.473300
    139          1           0       -5.425708    7.263147   -2.072255
    140          1           0       -4.285821    7.931089   -0.767942
    141          1           0       -5.942094    7.368684   -0.402002
    142          1           0       -1.596123    1.897823    0.966501
    143          1           0       -1.580222   -1.012309    0.343855
    144          1           0       -0.184098    1.816321   -0.802293
    145          1           0       -1.606471    1.397920   -1.821025
    146          1           0       -0.664681    0.159948   -1.160659
    147          1           0       -0.428088    0.015727    2.340740
    148          1           0       -1.368975   -1.422828    2.687569
    149          1           0       -1.818619    1.417895    3.244603
    150          1           0       -2.040301    0.030069    4.371383
    151          1           0       -3.284938    0.442503    3.108422
    152          1           0       -5.829960   -5.136389    2.522971
    153          1           0       -4.260716   -4.416831    2.037295
    154          1           0       -5.298156   -5.195647    0.776571
    155          1           0       -9.914317   -3.415561   -0.575068
    156          1           0      -13.732701   -4.203506    1.263946
    157          1           0      -13.831567   -2.360040    0.923646
    158          1           0      -13.164412   -3.098874    2.400556
 ---------------------------------------------------------------------

 SCF Done:  E(RCAM-B3LYP) =  -4069.81195196     A.U. after   19 cycles

 Excitation energies and oscillator strengths:

 Excited State   1:      Singlet-A      1.6644 eV  744.93 nm  f=0.0100  <S**2>=0.000
     309 -> 315       -0.10783
     310 -> 316        0.13297
     311 -> 313       -0.43105
     312 -> 314        0.53452
 This state for optimization and/or second-order correction.
 Total Energy, E(TD-HF/TD-DFT) =  -4069.75078727
 Copying the excited state density for this state as the 1-particle RhoCI density.

 Excited State   2:      Singlet-A      1.6898 eV  733.72 nm  f=0.7306  <S**2>=0.000
     309 -> 315        0.13883
     310 -> 316        0.11124
     311 -> 313        0.53331
     312 -> 314        0.43011

 Excited State   3:      Singlet-A      2.1851 eV  567.41 nm  f=0.1044  <S**2>=0.000
     310 -> 314        0.64099
     312 -> 316       -0.27186

 Excited State   4:      Singlet-A      2.1941 eV  565.08 nm  f=0.0976  <S**2>=0.000
     309 -> 313        0.63888
     311 -> 315       -0.27825

 Excited State   5:      Singlet-A      2.6447 eV  468.79 nm  f=0.0000  <S**2>=0.000
     312 -> 313        0.70680

 The electronic state is 1-A.
 Alpha  occ. eigenvalues --  -46.87839 -46.87534 -19.26335 -19.26260 -19.19082
 Alpha  occ. eigenvalues --  -19.19066 -19.18796 -19.18619 -19.18205 -19.17935
 Alpha  occ. eigenvalues --  -14.42487 -14.42376 -14.41487 -14.41221 -14.39436
 Alpha  occ. eigenvalues --  -14.39230 -14.38631 -14.38471 -10.39138 -10.38994
 Alpha  occ. eigenvalues --  -10.35425 -10.35300 -10.34427 -10.34112 -10.31724
 Alpha  occ. eigenvalues --  -10.31678 -10.31446 -10.31186 -10.30938 -10.30915
 Alpha  occ. eigenvalues --  -10.30610 -10.30542 -10.30267 -10.30234 -10.30231
 Alpha  occ. eigenvalues --  -10.29995 -10.29960 -10.29746 -10.29658 -10.29311
 Alpha  occ. eigenvalues --  -10.29280 -10.29276 -10.28784 -10.28625 -10.28582
 Alpha  occ. eigenvalues --  -10.28575 -10.28398 -10.28288 -10.28149 -10.28043
 Alpha  occ. eigenvalues --  -10.27876 -10.27822 -10.27760 -10.27605 -10.27549
 Alpha  occ. eigenvalues --  -10.27537 -10.27479 -10.27474 -10.27439 -10.27381
 Alpha  occ. eigenvalues --  -10.27362 -10.27348 -10.27307 -10.27199 -10.27193
 Alpha  occ. eigenvalues --  -10.26941 -10.26749 -10.26608 -10.26349 -10.26345
 Alpha  occ. eigenvalues --  -10.26260 -10.26238 -10.26056 -10.25937 -10.25916
 Alpha  occ. eigenvalues --  -10.25880 -10.25781 -10.25670 -10.25451 -10.25205
 Alpha  occ. eigenvalues --  -10.24866 -10.24819 -10.24777 -10.24748 -10.24559
 Alpha  occ. eigenvalues --  -10.24552  -3.16583  -3.16284  -1.91465  -1.91166
 Alpha  occ. eigenvalues --   -1.91051  -1.90893  -1.90754  -1.90591  -1.16685
 Alpha  occ. eigenvalues --   -1.16553  -1.08665  -1.08543  -1.07194  -1.06874
 Alpha  occ. eigenvalues --   -1.06850  -1.06702  -1.04617  -1.04376  -1.03796
 Alpha  occ. eigenvalues --   -1.03535  -1.03269  -1.02904  -1.02447  -1.01981
 Alpha  occ. eigenvalues --   -0.92009  -0.91866  -0.89560  -0.89337  -0.89223
 Alpha  occ. eigenvalues --   -0.89048  -0.88324  -0.88054  -0.87905  -0.87707
 Alpha  occ. eigenvalues --   -0.87652  -0.87558  -0.87278  -0.87016  -0.85013
 Alpha  occ. eigenvalues --   -0.84893  -0.83978  -0.83712  -0.82962  -0.82824
 Alpha  occ. eigenvalues --   -0.82670  -0.82546  -0.81625  -0.81483  -0.80626
 Alpha  occ. eigenvalues --   -0.80329  -0.78814  -0.78518  -0.77252  -0.77024
 Alpha  occ. eigenvalues --   -0.76972  -0.76774  -0.75958  -0.75730  -0.74931
 Alpha  occ. eigenvalues --   -0.74650  -0.72808  -0.72564  -0.71704  -0.71451
 Alpha  occ. eigenvalues --   -0.69956  -0.69579  -0.68901  -0.68718  -0.67668
 Alpha  occ. eigenvalues --   -0.67479  -0.67242  -0.67104  -0.65323  -0.65164
 Alpha  occ. eigenvalues --   -0.64891  -0.64657  -0.64641  -0.64535  -0.64308
 Alpha  occ. eigenvalues --   -0.64045  -0.62341  -0.62162  -0.60456  -0.60219
 Alpha  occ. eigenvalues --   -0.59838  -0.59687  -0.59022  -0.58861  -0.58537
 Alpha  occ. eigenvalues --   -0.58298  -0.57626  -0.57440  -0.57339  -0.57100
 Alpha  occ. eigenvalues --   -0.56336  -0.56080  -0.56019  -0.55783  -0.55532
 Alpha  occ. eigenvalues --   -0.55381  -0.55348  -0.55100  -0.54568  -0.54346
 Alpha  occ. eigenvalues --   -0.53929  -0.53812  -0.53323  -0.53238  -0.53104
 Alpha  occ. eigenvalues --   -0.53031  -0.52953  -0.52789  -0.52757  -0.52578
 Alpha  occ. eigenvalues --   -0.52489  -0.52221  -0.51952  -0.51730  -0.51639
 Alpha  occ. eigenvalues --   -0.51561  -0.51234  -0.51072  -0.50557  -0.50379
 Alpha  occ. eigenvalues --   -0.50065  -0.49926  -0.49873  -0.49716  -0.49531
 Alpha  occ. eigenvalues --   -0.49385  -0.49240  -0.49125  -0.49095  -0.48990
 Alpha  occ. eigenvalues --   -0.48628  -0.48491  -0.48447  -0.48446  -0.48240
 Alpha  occ. eigenvalues --   -0.48220  -0.47719  -0.47478  -0.47317  -0.46996
 Alpha  occ. eigenvalues --   -0.46835  -0.46587  -0.46573  -0.46447  -0.46393
 Alpha  occ. eigenvalues --   -0.46200  -0.46137  -0.45941  -0.45861  -0.45693
 Alpha  occ. eigenvalues --   -0.45234  -0.45060  -0.44614  -0.44522  -0.44406
 Alpha  occ. eigenvalues --   -0.44352  -0.44178  -0.44118  -0.44036  -0.44018
 Alpha  occ. eigenvalues --   -0.43943  -0.43836  -0.43534  -0.43435  -0.43418
 Alpha  occ. eigenvalues --   -0.43265  -0.43061  -0.42823  -0.42772  -0.42742
 Alpha  occ. eigenvalues --   -0.42703  -0.42402  -0.42055  -0.41823  -0.41738
 Alpha  occ. eigenvalues --   -0.41566  -0.41545  -0.41341  -0.41171  -0.40906
 Alpha  occ. eigenvalues --   -0.40868  -0.40815  -0.40627  -0.40609  -0.40583
 Alpha  occ. eigenvalues --   -0.40333  -0.40264  -0.40139  -0.39495  -0.39246
 Alpha  occ. eigenvalues --   -0.38506  -0.38194  -0.37785  -0.37553  -0.37357
 Alpha  occ. eigenvalues --   -0.37299  -0.37118  -0.37085  -0.36762  -0.36661
 Alpha  occ. eigenvalues --   -0.36236  -0.36078  -0.34324  -0.34125  -0.33828
 Alpha  occ. eigenvalues --   -0.33761  -0.33223  -0.33047  -0.31329  -0.31177
 Alpha  occ. eigenvalues --   -0.31067  -0.30848  -0.30066  -0.29839  -0.29472
 Alpha  occ. eigenvalues --   -0.29356  -0.29211  -0.29085  -0.24118  -0.23908
 Alpha  occ. eigenvalues --   -0.21162  -0.20989
 Alpha virt. eigenvalues --   -0.08803  -0.08669  -0.01781  -0.01554  -0.00068
 Alpha virt. eigenvalues --    0.00076   0.02166   0.02335   0.03000   0.03345
 Alpha virt. eigenvalues --    0.04681   0.04845   0.05044   0.05264   0.06139

 Mulliken charges:
               1
     1  Mg   0.837414
     2  C   -0.003248
     3  C   -0.093961
     4  C   -0.045827
     5  C   -0.064148
     6  N   -0.256828
     7  C   -0.052706
     8  C   -0.013893
     9  C   -0.087038
    10  C    0.046309
    11  C    0.104762
    12  C    0.053405
    13  C   -0.071849
    14  H    0.036028
    15  N   -0.433343
    16  C    0.168478
    17  C   -0.176824
    18  C   -0.003621
    19  C    0.148648
    20  C    0.110106
    21  C    0.012861
    22  O   -0.249210
    23  C    0.062188
    24  N   -0.341029
    25  C    0.041128
    26  C   -0.028286
    27  C   -0.023937
    28  C    0.074430
    29  C    0.076083
    30  C    0.035215
    31  C   -0.004668
    32  N   -0.310322
    33  C    0.079780
    34  C   -0.170191
    35  C    0.008318
    36  C    0.082342
    37  C    0.127411
    38  C    0.045736
    39  O   -0.188479
    40  C   -0.005197
    41  C    0.213101
    42  O   -0.257960
    43  O   -0.304616
    44  C    0.157670
    45  H   -0.017357
    46  H   -0.016443
    47  H   -0.041555
    48  H    0.001017
    49  H   -0.003880
    50  H    0.025543
    51  H    0.016537
    52  H    0.016817
    53  H    0.011213
    54  H    0.043589
    55  H    0.018029
    56  H    0.018148
    57  H    0.005822
    58  H    0.027020
    59  H    0.040397
    60  H    0.037026
    61  H    0.036443
    62  H    0.032552
    63  H    0.016787
    64  H    0.009664
    65  H    0.023542
    66  H    0.012653
    67  H    0.004858
    68  H    0.006864
    69  H    0.004764
    70  H    0.009430
    71  H    0.017378
    72  H    0.027927
    73  H    0.047258
    74  H    0.009004
    75  H    0.046213
    76  H    0.035344
    77  H    0.043203
    78  H    0.046507
    79  H    0.053430
    80  Mg   0.837635
    81  C   -0.017092
    82  C   -0.088105
    83  C   -0.045609
    84  C   -0.064296
    85  N   -0.254583
    86  C   -0.049798
    87  C   -0.015101
    88  C   -0.090461
    89  C    0.045710
    90  C    0.114478
    91  C    0.062585
    92  C   -0.077737
    93  H    0.034652
    94  N   -0.423375
    95  C    0.162791
    96  C   -0.175039
    97  C   -0.008115
    98  C    0.152068
    99  C    0.099554
   100  C    0.015275
   101  O   -0.253437
   102  C    0.061254
   103  N   -0.350068
   104  C    0.037525
   105  C   -0.020062
   106  C   -0.035551
   107  C    0.088666
   108  C    0.073035
   109  C    0.034772
   110  C   -0.007701
   111  N   -0.324186
   112  C    0.078409
   113  C   -0.162745
   114  C    0.002184
   115  C    0.096346
   116  C    0.131499
   117  C    0.042489
   118  O   -0.187878
   119  C    0.000888
   120  C    0.211233
   121  O   -0.251104
   122  O   -0.305642
   123  C    0.152098
   124  H   -0.020168
   125  H   -0.015810
   126  H   -0.038842
   127  H   -0.000791
   128  H   -0.004613
   129  H    0.022436
   130  H    0.014379
   131  H    0.015882
   132  H    0.013872
   133  H    0.037666
   134  H    0.020685
   135  H    0.019425
   136  H    0.008516
   137  H    0.025529
   138  H    0.039457
   139  H    0.037827
   140  H    0.035988
   141  H    0.033919
   142  H    0.014298
   143  H    0.015430
   144  H    0.024188
   145  H    0.010675
   146  H    0.008569
   147  H    0.006817
   148  H    0.004942
   149  H    0.010786
   150  H    0.017364
   151  H    0.029540
   152  H    0.045800
   153  H    0.009671
   154  H    0.047564
   155  H    0.034914
   156  H    0.043800
   157  H    0.049346
   158  H    0.053506
 Sum of Mulliken charges =  -0.00000

 Dipole moment (field-independent basis, Debye):
    X=              1.2938    Y=              5.8593    Z=             -5.9195  Tot=              8.4289
 Quadrupole moment (field-independent basis, Debye-Ang):
   XX=           -448.2591   YY=           -552.0659   ZZ=           -472.1118
   XY=            -27.4555   XZ=             17.3504   YZ=            -11.4744

 Normal termination of Gaussian 16 at Sat Sep 11 17:39:54 2021.
