 Gaussian 16, Revision A.03,
 Gaussian 16:  ES64L-G16RevA.03 25-Dec-2016

 -----------------------------------
 #p cam-b3lyp/Def2SVP td=(nstates=5)
 -----------------------------------

 --------------------------------
 TDDFT excited states in gaussian
 --------------------------------
 Symbolic Z-matrix:
 Charge =  0 Multiplicity = 1

                         Standard orientation:
 ---------------------------------------------------------------------
 Center     Atomic      Atomic             Coordinates (Angstroms)
 Number     Number       Type             X           Y           Z
 ---------------------------------------------------------------------
      1         12           0        4.063010   -1.306713    0.401687
      2          6           0        4.869488    1.763893   -1.251548
      3          6           0        4.936079    0.213100    3.329312
      4          6           0        3.794207   -4.129740    1.821154
      5          6           0        4.349435   -2.878209   -2.695734
      6          7           0        4.792972    0.733930    0.852883
      7          6           0        5.002084    1.834372    0.137011
      8          6           0        5.302196    3.090546    1.008408
      9          6           0        5.847273    2.363679    2.318580
     10          6           0        5.122463    1.036571    2.179447
     11          6           0        7.350644    2.107376    2.292356
     12          6           0        4.012944    3.925971    1.311104
     13          6           0        4.260445    5.329041    1.872791
     14          1           0        3.363969    6.407216    1.483926
     15          7           0        3.854612   -1.765591    2.311884
     16          6           0        4.253177   -1.021697    3.371627
     17          6           0        3.874591   -1.792018    4.575769
     18          6           0        3.395231   -3.129238    4.128387
     19          6           0        3.690624   -3.070420    2.719607
     20          6           0        3.938945   -1.233101    5.964013
     21          6           0        2.779758   -4.281841    4.856969
     22          8           0        2.651183   -5.435171    4.320431
     23          6           0        2.407128   -4.046347    6.263643
     24          7           0        4.284320   -3.266665   -0.281864
     25          6           0        4.054423   -4.308784    0.524436
     26          6           0        3.997568   -5.593917   -0.247017
     27          6           0        3.995340   -5.183454   -1.790153
     28          6           0        4.141900   -3.650450   -1.626790
     29          6           0        5.140915   -6.583618    0.016158
     30          6           0        2.833174   -5.724738   -2.660096
     31          6           0        1.529585   -5.093099   -2.225601
     32          7           0        4.350017   -0.674885   -1.654879
     33          6           0        4.462260   -1.500686   -2.782766
     34          6           0        4.755387   -0.624741   -3.932054
     35          6           0        4.810064    0.656365   -3.386506
     36          6           0        4.592537    0.582306   -1.980985
     37          6           0        4.990217   -1.053648   -5.268216
     38          6           0        5.026076    2.067866   -3.660115
     39          8           0        5.162900    2.742055   -4.681996
     40          6           0        5.194100    2.827592   -2.270722
     41          6           0        4.319674    4.051069   -2.313053
     42          8           0        3.076368    3.948050   -2.343736
     43          8           0        5.066322    5.139668   -2.072201
     44          6           0        4.254189    6.385699   -2.070737
     45          1           0        5.403982    0.507455    4.270780
     46          1           0        3.597621   -5.113609    2.252190
     47          1           0        4.368181   -3.288283   -3.707140
     48          1           0        6.068362    3.752016    0.603597
     49          1           0        5.531792    2.874201    3.228284
     50          1           0        7.779406    2.350856    1.320348
     51          1           0        7.468474    1.044648    2.505002
     52          1           0        7.847500    2.633079    3.108167
     53          1           0        3.484831    3.479374    2.153547
     54          1           0        3.383228    3.998789    0.423703
     55          1           0        5.300089    5.631869    1.744948
     56          1           0        4.119314    5.294251    2.953102
     57          1           0        4.485403   -0.291205    5.991598
     58          1           0        4.547335   -1.917507    6.554910
     59          1           0        2.950726   -1.137544    6.414150
     60          1           0        3.293647   -3.753599    6.826609
     61          1           0        1.900983   -4.951895    6.596284
     62          1           0        1.721082   -3.200110    6.310255
     63          1           0        3.085049   -6.144701   -0.022582
     64          1           0        4.893933   -5.523885   -2.305236
     65          1           0        4.802505   -7.565139    0.349022
     66          1           0        5.814530   -6.134215    0.745247
     67          1           0        5.810839   -6.743149   -0.828335
     68          1           0        2.728543   -6.800853   -2.526029
     69          1           0        2.968059   -5.534752   -3.724973
     70          1           0        1.226792   -5.714430   -1.383523
     71          1           0        0.795947   -5.142481   -3.030926
     72          1           0        1.683749   -4.082752   -1.846235
     73          1           0        4.438539   -0.367148   -5.910351
     74          1           0        4.664677   -2.083013   -5.416657
     75          1           0        6.073093   -0.945469   -5.327651
     76          1           0        6.249536    3.081735   -2.178054
     77          1           0        4.701219    7.061056   -2.800320
     78          1           0        4.203757    6.721491   -1.034829
     79          1           0        3.240254    6.300682   -2.463223
     80         12           0       -4.805890    0.039119   -0.342398
     81          6           0       -2.027187    2.246134    0.193290
     82          6           0       -6.698853    2.225359    1.466369
     83          6           0       -7.155055   -2.092586   -0.410914
     84          6           0       -2.496785   -2.460825   -1.093411
     85          7           0       -4.313201    1.953883    0.649165
     86          6           0       -3.239236    2.724522    0.733231
     87          6           0       -3.496153    4.119139    1.364574
     88          6           0       -4.808869    3.759208    2.216688
     89          6           0       -5.333009    2.595213    1.378199
     90          6           0       -4.497939    3.241398    3.611153
     91          6           0       -3.795394    5.217952    0.285180
     92          6           0       -3.750318    6.657242    0.803024
     93          1           0       -3.242879    7.700478   -0.083896
     94          7           0       -6.751455    0.261243   -0.019877
     95          6           0       -7.349474    1.217568    0.721124
     96          6           0       -8.791099    0.930846    0.660433
     97          6           0       -8.981960   -0.367786   -0.040864
     98          6           0       -7.605637   -0.803038   -0.168835
     99          6           0       -9.832813    1.886871    1.164673
    100          6           0      -10.202137   -1.103065   -0.506412
    101          8           0      -10.148447   -2.327811   -0.880494
    102          6           0      -11.477280   -0.376051   -0.423068
    103          7           0       -4.824329   -2.034389   -0.492637
    104          6           0       -5.983610   -2.712834   -0.553500
    105          6           0       -5.752036   -4.155346   -0.935501
    106          6           0       -4.211845   -4.246391   -1.356337
    107          6           0       -3.778605   -2.796769   -1.046048
    108          6           0       -6.043490   -5.187054    0.154010
    109          6           0       -3.899774   -4.826037   -2.763219
    110          6           0       -4.398580   -3.881368   -3.832888
    111          7           0       -2.666148   -0.068936   -0.621445
    112          6           0       -1.900018   -1.220740   -0.905103
    113          6           0       -0.479994   -0.813628   -0.890284
    114          6           0       -0.517602    0.552724   -0.573839
    115          6           0       -1.864707    0.963343   -0.383588
    116          6           0        0.634293   -1.673992   -1.100628
    117          6           0        0.276617    1.738667   -0.347022
    118          8           0        1.469909    2.018593   -0.453982
    119          6           0       -0.657368    2.859306    0.284027
    120          6           0       -0.413104    4.142082   -0.462515
    121          8           0       -0.719380    4.242497   -1.663651
    122          8           0       -0.062518    5.101609    0.413139
    123          6           0        0.179612    6.395795   -0.278450
    124          1           0       -7.324905    2.724876    2.206256
    125          1           0       -7.933967   -2.845300   -0.553043
    126          1           0       -1.721558   -3.159930   -1.414261
    127          1           0       -2.710853    4.471574    2.022496
    128          1           0       -5.519482    4.581634    2.213736
    129          1           0       -3.438943    3.088783    3.757400
    130          1           0       -5.031422    2.304352    3.702720
    131          1           0       -4.927212    3.907516    4.365026
    132          1           0       -4.851973    5.155889   -0.005568
    133          1           0       -3.136971    5.115574   -0.555432
    134          1           0       -3.274437    6.725911    1.788807
    135          1           0       -4.774692    6.996143    0.975732
    136          1           0       -9.387471    2.681040    1.776533
    137          1           0      -10.467119    1.329686    1.862583
    138          1           0      -10.457123    2.290050    0.364452
    139          1           0      -11.656931   -0.078996    0.607446
    140          1           0      -12.218443   -1.032274   -0.883420
    141          1           0      -11.392238    0.547487   -1.006551
    142          1           0       -6.365170   -4.433992   -1.783737
    143          1           0       -3.641629   -4.897013   -0.677084
    144          1           0       -6.785563   -5.948129   -0.152863
    145          1           0       -6.379720   -4.663253    1.038944
    146          1           0       -5.173517   -5.728063    0.522334
    147          1           0       -4.430806   -5.769701   -2.910334
    148          1           0       -2.845032   -5.021317   -2.925672
    149          1           0       -5.457311   -4.143438   -3.919381
    150          1           0       -3.872074   -4.051310   -4.769874
    151          1           0       -4.343297   -2.839958   -3.495167
    152          1           0        1.316862   -1.145611   -1.752859
    153          1           0        0.326891   -2.624524   -1.531643
    154          1           0        0.991317   -1.785436   -0.073312
    155          1           0       -0.398846    2.944691    1.340184
    156          1           0        1.189624    6.718673   -0.007681
    157          1           0       -0.656985    7.055144    0.020079
    158          1           0        0.244992    6.381508   -1.360096
 ---------------------------------------------------------------------

 SCF Done:  E(RCAM-B3LYP) =  -4069.81352427     A.U. after   18 cycles

 Excitation energies and oscillator strengths:

 Excited State   1:      Singlet-A      1.6519 eV  750.57 nm  f=0.3533  <S**2>=0.000
     309 -> 315        0.13473
     311 -> 313        0.54975
     312 -> 314       -0.41159
 This state for optimization and/or second-order correction.
 Total Energy, E(TD-HF/TD-DFT) =  -4069.75281902
 Copying the excited state density for this state as the 1-particle RhoCI density.

 Excited State   2:      Singlet-A      1.6878 eV  734.60 nm  f=0.4541  <S**2>=0.000
     309 -> 315        0.10478
     310 -> 316        0.13940
     311 -> 313        0.40761
     312 -> 314        0.54655

 Excited State   3:      Singlet-A      2.1432 eV  578.50 nm  f=0.0010  <S**2>=0.000
     310 -> 314        0.12413
     312 -> 313        0.68614

 Excited State   4:      Singlet-A      2.1643 eV  572.86 nm  f=0.0033  <S**2>=0.000
     309 -> 313       -0.38809
     310 -> 314        0.50308
     311 -> 315        0.15582
     312 -> 313       -0.13735
     312 -> 316       -0.19828

 Excited State   5:      Singlet-A      2.1886 eV  566.51 nm  f=0.1639  <S**2>=0.000
     309 -> 313        0.51150
     310 -> 314        0.38226
     311 -> 315       -0.21863
     312 -> 316       -0.16727

 The electronic state is 1-A.
 Alpha  occ. eigenvalues --  -46.87619 -46.87009 -19.26130 -19.25510 -19.18723
 Alpha  occ. eigenvalues --  -19.18688 -19.18314 -19.18303 -19.17972 -19.17471
 Alpha  occ. eigenvalues --  -14.42471 -14.41638 -14.41307 -14.40748 -14.39320
 Alpha  occ. eigenvalues --  -14.38695 -14.38564 -14.37780 -10.38737 -10.38038
 Alpha  occ. eigenvalues --  -10.35366 -10.34949 -10.34209 -10.33664 -10.31626
 Alpha  occ. eigenvalues --  -10.31295 -10.31289 -10.30977 -10.30596 -10.30375
 Alpha  occ. eigenvalues --  -10.30341 -10.30084 -10.30047 -10.29859 -10.29834
 Alpha  occ. eigenvalues --  -10.29815 -10.29684 -10.29421 -10.29386 -10.29294
 Alpha  occ. eigenvalues --  -10.28954 -10.28693 -10.28640 -10.28623 -10.28366
 Alpha  occ. eigenvalues --  -10.28135 -10.27992 -10.27973 -10.27893 -10.27651
 Alpha  occ. eigenvalues --  -10.27557 -10.27453 -10.27445 -10.27441 -10.27438
 Alpha  occ. eigenvalues --  -10.27360 -10.27309 -10.27178 -10.27130 -10.27079
 Alpha  occ. eigenvalues --  -10.27040 -10.26986 -10.26981 -10.26921 -10.26628
 Alpha  occ. eigenvalues --  -10.26601 -10.26391 -10.26344 -10.26107 -10.26076
 Alpha  occ. eigenvalues --  -10.26069 -10.26063 -10.26023 -10.25869 -10.25603
 Alpha  occ. eigenvalues --  -10.25564 -10.25426 -10.25323 -10.25314 -10.25091
 Alpha  occ. eigenvalues --  -10.24895 -10.24840 -10.24667 -10.24649 -10.24143
 Alpha  occ. eigenvalues --  -10.24123  -3.16369  -3.15704  -1.91251  -1.90840
 Alpha  occ. eigenvalues --   -1.90677  -1.90586  -1.90173  -1.90019  -1.16347
 Alpha  occ. eigenvalues --   -1.15813  -1.08719  -1.07906  -1.06940  -1.06719
 Alpha  occ. eigenvalues --   -1.06539  -1.05603  -1.04464  -1.03774  -1.03630
 Alpha  occ. eigenvalues --   -1.03056  -1.02999  -1.02534  -1.02075  -1.01693
 Alpha  occ. eigenvalues --   -0.91936  -0.91193  -0.89438  -0.89133  -0.89092
 Alpha  occ. eigenvalues --   -0.88383  -0.88163  -0.87899  -0.87808  -0.87651
 Alpha  occ. eigenvalues --   -0.87227  -0.87101  -0.86958  -0.86688  -0.84972
 Alpha  occ. eigenvalues --   -0.84264  -0.83807  -0.83595  -0.82896  -0.82612
 Alpha  occ. eigenvalues --   -0.82503  -0.82011  -0.81526  -0.80957  -0.80391
 Alpha  occ. eigenvalues --   -0.79931  -0.78651  -0.78176  -0.77155  -0.76842
 Alpha  occ. eigenvalues --   -0.76721  -0.76293  -0.75808  -0.75277  -0.74745
 Alpha  occ. eigenvalues --   -0.74422  -0.72725  -0.72138  -0.71541  -0.71034
 Alpha  occ. eigenvalues --   -0.69716  -0.69652  -0.68801  -0.68208  -0.67569
 Alpha  occ. eigenvalues --   -0.67169  -0.67009  -0.66462  -0.65234  -0.64724
 Alpha  occ. eigenvalues --   -0.64587  -0.64563  -0.64218  -0.64142  -0.64029
 Alpha  occ. eigenvalues --   -0.63705  -0.62151  -0.61653  -0.60308  -0.59883
 Alpha  occ. eigenvalues --   -0.59790  -0.59030  -0.58947  -0.58372  -0.58332
 Alpha  occ. eigenvalues --   -0.57851  -0.57475  -0.57174  -0.56875  -0.56659
 Alpha  occ. eigenvalues --   -0.56251  -0.55785  -0.55670  -0.55476  -0.55300
 Alpha  occ. eigenvalues --   -0.55170  -0.54973  -0.54834  -0.54374  -0.53944
 Alpha  occ. eigenvalues --   -0.53874  -0.53278  -0.53111  -0.53101  -0.52808
 Alpha  occ. eigenvalues --   -0.52743  -0.52650  -0.52604  -0.52371  -0.52333
 Alpha  occ. eigenvalues --   -0.52245  -0.52069  -0.52002  -0.51616  -0.51311
 Alpha  occ. eigenvalues --   -0.51191  -0.50905  -0.50584  -0.50450  -0.50105
 Alpha  occ. eigenvalues --   -0.49969  -0.49850  -0.49695  -0.49450  -0.49336
 Alpha  occ. eigenvalues --   -0.49237  -0.49132  -0.48820  -0.48630  -0.48480
 Alpha  occ. eigenvalues --   -0.48438  -0.48334  -0.48308  -0.48037  -0.47858
 Alpha  occ. eigenvalues --   -0.47826  -0.47542  -0.47215  -0.47041  -0.46721
 Alpha  occ. eigenvalues --   -0.46670  -0.46550  -0.46394  -0.46196  -0.46055
 Alpha  occ. eigenvalues --   -0.45932  -0.45797  -0.45689  -0.45497  -0.45187
 Alpha  occ. eigenvalues --   -0.45140  -0.44743  -0.44541  -0.44465  -0.44147
 Alpha  occ. eigenvalues --   -0.44079  -0.43965  -0.43907  -0.43866  -0.43662
 Alpha  occ. eigenvalues --   -0.43457  -0.43421  -0.43389  -0.43296  -0.42890
 Alpha  occ. eigenvalues --   -0.42880  -0.42767  -0.42672  -0.42505  -0.42425
 Alpha  occ. eigenvalues --   -0.42236  -0.42003  -0.41883  -0.41609  -0.41509
 Alpha  occ. eigenvalues --   -0.41360  -0.41011  -0.40949  -0.40826  -0.40698
 Alpha  occ. eigenvalues --   -0.40672  -0.40512  -0.40429  -0.40304  -0.40279
 Alpha  occ. eigenvalues --   -0.40192  -0.39974  -0.39412  -0.39363  -0.39174
 Alpha  occ. eigenvalues --   -0.38295  -0.37983  -0.37613  -0.37208  -0.37168
 Alpha  occ. eigenvalues --   -0.37037  -0.36753  -0.36566  -0.36448  -0.36048
 Alpha  occ. eigenvalues --   -0.35964  -0.35409  -0.34214  -0.33535  -0.33516
 Alpha  occ. eigenvalues --   -0.33086  -0.32761  -0.32424  -0.31243  -0.30926
 Alpha  occ. eigenvalues --   -0.30835  -0.30324  -0.29933  -0.29315  -0.29305
 Alpha  occ. eigenvalues --   -0.29213  -0.28799  -0.28609  -0.23990  -0.23284
 Alpha  occ. eigenvalues --   -0.21092  -0.20443
 Alpha virt. eigenvalues --   -0.08774  -0.08076  -0.01648  -0.01099  -0.00017
 Alpha virt. eigenvalues --    0.00612   0.02149   0.02866   0.03300   0.04697
 Alpha virt. eigenvalues --    0.04825   0.05206   0.05578   0.06004   0.06175

 Mulliken charges:
               1
     1  Mg   0.784330
     2  C    0.028735
     3  C   -0.094140
     4  C   -0.049102
     5  C   -0.067433
     6  N   -0.253246
     7  C   -0.037017
     8  C   -0.022462
     9  C   -0.087991
    10  C    0.049744
    11  C    0.105648
    12  C    0.061533
    13  C   -0.070391
    14  H    0.026800
    15  N   -0.427440
    16  C    0.167939
    17  C   -0.179055
    18  C   -0.005688
    19  C    0.145681
    20  C    0.110976
    21  C    0.010502
    22  O   -0.252385
    23  C    0.063236
    24  N   -0.335955
    25  C    0.039125
    26  C   -0.027526
    27  C   -0.024279
    28  C    0.071942
    29  C    0.077216
    30  C    0.047471
    31  C   -0.032778
    32  N   -0.310925
    33  C    0.075694
    34  C   -0.172512
    35  C    0.005446
    36  C    0.090812
    37  C    0.127623
    38  C    0.051535
    39  O   -0.189649
    40  C   -0.014813
    41  C    0.208979
    42  O   -0.238775
    43  O   -0.307108
    44  C    0.157688
    45  H   -0.020159
    46  H   -0.020652
    47  H   -0.046013
    48  H   -0.002565
    49  H   -0.006608
    50  H    0.024522
    51  H    0.015299
    52  H    0.014003
    53  H    0.008259
    54  H    0.054785
    55  H    0.015257
    56  H    0.015275
    57  H    0.004900
    58  H    0.024934
    59  H    0.036834
    60  H    0.036802
    61  H    0.033467
    62  H    0.030239
    63  H    0.013246
    64  H    0.009000
    65  H    0.021294
    66  H    0.013329
    67  H    0.003556
    68  H    0.004220
    69  H    0.004320
    70  H    0.007785
    71  H    0.016466
    72  H    0.047477
    73  H    0.047307
    74  H    0.006726
    75  H    0.044826
    76  H    0.032211
    77  H    0.041090
    78  H    0.042204
    79  H    0.051117
    80  Mg   0.839027
    81  C   -0.018242
    82  C   -0.087828
    83  C   -0.045685
    84  C   -0.068530
    85  N   -0.254430
    86  C   -0.050385
    87  C   -0.014779
    88  C   -0.090491
    89  C    0.045838
    90  C    0.114601
    91  C    0.062683
    92  C   -0.077471
    93  H    0.035063
    94  N   -0.423486
    95  C    0.163145
    96  C   -0.174596
    97  C   -0.007726
    98  C    0.152345
    99  C    0.099401
   100  C    0.015652
   101  O   -0.253020
   102  C    0.061153
   103  N   -0.350109
   104  C    0.038097
   105  C   -0.020077
   106  C   -0.034103
   107  C    0.088156
   108  C    0.073396
   109  C    0.033578
   110  C   -0.007433
   111  N   -0.324519
   112  C    0.081733
   113  C   -0.150955
   114  C    0.007557
   115  C    0.099733
   116  C    0.069778
   117  C    0.054825
   118  O   -0.167380
   119  C   -0.004954
   120  C    0.224852
   121  O   -0.243725
   122  O   -0.310394
   123  C    0.156340
   124  H   -0.019966
   125  H   -0.015487
   126  H   -0.038081
   127  H   -0.001616
   128  H   -0.004385
   129  H    0.021408
   130  H    0.014436
   131  H    0.015771
   132  H    0.013850
   133  H    0.039385
   134  H    0.019670
   135  H    0.019244
   136  H    0.008628
   137  H    0.026054
   138  H    0.039926
   139  H    0.038128
   140  H    0.036427
   141  H    0.033985
   142  H    0.014305
   143  H    0.014061
   144  H    0.024939
   145  H    0.011535
   146  H    0.006837
   147  H    0.006014
   148  H    0.004180
   149  H    0.010842
   150  H    0.017456
   151  H    0.030518
   152  H    0.081858
   153  H    0.018335
   154  H    0.074529
   155  H    0.032217
   156  H    0.029982
   157  H    0.046610
   158  H    0.059031
 Sum of Mulliken charges =  -0.00000

 Dipole moment (field-independent basis, Debye):
    X=             -2.0296    Y=              2.4694    Z=              6.2103  Tot=              6.9846
 Quadrupole moment (field-independent basis, Debye-Ang):
   XX=           -494.8196   YY=           -483.2344   ZZ=           -508.4468
   XY=            -27.9273   XZ=              5.7654   YZ=             47.5442

 Normal termination of Gaussian 16 at Thu Sep  9 23:52:31 2021.
