 Gaussian 16, Revision A.03,
 Gaussian 16:  ES64L-G16RevA.03 25-Dec-2016

 -----------------------------------
 #p cam-b3lyp/Def2SVP td=(nstates=5)
 -----------------------------------

 --------------------------------
 TDDFT excited states in gaussian
 --------------------------------
 Symbolic Z-matrix:
 Charge =  0 Multiplicity = 1

                         Standard orientation:
 ---------------------------------------------------------------------
 Center     Atomic      Atomic             Coordinates (Angstroms)
 Number     Number       Type             X           Y           Z
 ---------------------------------------------------------------------
      1         12           0      -15.790215    0.653382   -0.425559
      2          6           0      -16.011576   -2.662820    0.903357
      3          6           0      -16.738913    1.788789    2.649159
      4          6           0      -16.042794    3.549295   -1.693041
      5          6           0      -15.974902   -0.766303   -3.602986
      6          7           0      -16.282471   -0.401231    1.457556
      7          6           0      -16.270755   -1.670762    1.851667
      8          6           0      -16.485549   -1.843643    3.385078
      9          6           0      -17.250089   -0.477677    3.687752
     10          6           0      -16.698666    0.366123    2.552032
     11          6           0      -18.764121   -0.579777    3.533528
     12          6           0      -15.132812   -1.928900    4.169021
     13          6           0      -15.245381   -2.421359    5.614762
     14          1           0      -14.178907   -3.249174    6.157628
     15          7           0      -15.835572    2.430018    0.437203
     16          6           0      -16.234508    2.706113    1.702078
     17          6           0      -16.083523    4.167835    1.867164
     18          6           0      -15.744884    4.743514    0.535995
     19          6           0      -15.888471    3.585770   -0.309221
     20          6           0      -16.210197    4.864223    3.187295
     21          6           0      -15.364123    6.121120    0.094005
     22          8           0      -15.337992    6.456826   -1.139361
     23          6           0      -15.104888    7.105083    1.160615
     24          7           0      -16.202146    1.326657   -2.358083
     25          6           0      -16.194561    2.631837   -2.650372
     26          6           0      -16.233421    2.859707   -4.132433
     27          6           0      -16.023269    1.427084   -4.805620
     28          6           0      -15.979423    0.565999   -3.519199
     29          6           0      -17.519044    3.496377   -4.678177
     30          6           0      -14.863170    1.291836   -5.823607
     31          6           0      -13.536575    1.437151   -5.112181
     32          7           0      -15.784761   -1.355962   -1.246259
     33          6           0      -15.893685   -1.715117   -2.597487
     34          6           0      -15.951750   -3.187517   -2.649786
     35          6           0      -15.888854   -3.584587   -1.315536
     36          6           0      -15.823759   -2.432345   -0.481034
     37          6           0      -16.107913   -3.974149   -3.825055
     38          6           0      -15.886332   -4.713515   -0.399363
     39          8           0      -15.829842   -5.937021   -0.531022
     40          6           0      -16.088547   -4.158996    1.079638
     41          6           0      -15.058825   -4.817576    1.956709
     42          8           0      -13.843537   -4.575402    1.809081
     43          8           0      -15.673707   -5.437777    2.975440
     44          6           0      -14.706747   -6.087213    3.900305
     45          1           0      -17.254472    2.245637    3.496171
     46          1           0      -16.023031    4.526696   -2.179596
     47          1           0      -15.947715   -1.282459   -4.564390
     48          1           0      -17.112586   -2.690827    3.663517
     49          1           0      -16.961174   -0.054063    4.649418
     50          1           0      -19.057932   -1.542233    3.114871
     51          1           0      -19.043240    0.229940    2.859032
     52          1           0      -19.264882   -0.368478    4.478709
     53          1           0      -14.755279   -0.921644    4.344990
     54          1           0      -14.414062   -2.548788    3.631935
     55          1           0      -16.217442   -2.876742    5.806162
     56          1           0      -15.218095   -1.553822    6.274183
     57          1           0      -16.626085    4.205965    3.949056
     58          1           0      -16.960103    5.645425    3.064521
     59          1           0      -15.267673    5.306840    3.509894
     60          1           0      -15.995875    7.206978    1.780541
     61          1           0      -14.759659    8.008416    0.658960
     62          1           0      -14.320094    6.720502    1.812646
     63          1           0      -15.429393    3.523697   -4.447206
     64          1           0      -16.903647    1.103118   -5.361186
     65          1           0      -17.349374    4.420443   -5.231369
     66          1           0      -18.195676    3.660927   -3.840094
     67          1           0      -18.117098    2.844942   -5.314871
     68          1           0      -14.916913    2.086045   -6.567442
     69          1           0      -14.865118    0.339693   -6.354332
     70          1           0      -13.404505    2.517352   -5.061623
     71          1           0      -12.739805    0.973247   -5.694556
     72          1           0      -13.591418    1.067299   -4.088126
     73          1           0      -15.408563   -4.804859   -3.731247
     74          1           0      -15.909542   -3.388770   -4.722598
     75          1           0      -17.155370   -4.262283   -3.737482
     76          1           0      -17.104566   -4.418415    1.375492
     77          1           0      -14.985001   -7.138928    3.968898
     78          1           0      -14.715034   -5.500667    4.819164
     79          1           0      -13.679319   -6.168994    3.543874
     80         12           0       15.959225    0.755014    0.296659
     81          6           0       15.802898   -2.380088   -1.442821
     82          6           0       15.024029   -0.930176    3.110930
     83          6           0       15.649699    3.557448    1.751985
     84          6           0       15.756648    2.328428   -2.806410
     85          7           0       15.502278   -1.378274    0.660753
     86          6           0       15.536226   -2.487703   -0.061975
     87          6           0       15.348584   -3.793871    0.755520
     88          6           0       14.558208   -3.180044    2.011457
     89          6           0       15.082444   -1.746695    1.953358
     90          6           0       13.051559   -3.145852    1.816098
     91          6           0       16.716090   -4.427810    1.191481
     92          6           0       16.620754   -5.859644    1.723013
     93          1           0       17.712337   -6.784629    1.430948
     94          7           0       15.897923    1.198201    2.230152
     95          6           0       15.514993    0.387737    3.239002
     96          6           0       15.629262    1.191185    4.466024
     97          6           0       15.953104    2.591797    4.081133
     98          6           0       15.822788    2.506095    2.640378
     99          6           0       15.514464    0.598472    5.840410
    100          6           0       16.307320    3.810215    4.878752
    101          8           0       16.316120    4.979509    4.353879
    102          6           0       16.552467    3.605859    6.313893
    103          7           0       15.523078    2.664800   -0.399634
    104          6           0       15.500897    3.717290    0.436839
    105          6           0       15.439342    5.019108   -0.325975
    106          6           0       15.669747    4.629580   -1.859850
    107          6           0       15.738763    3.092725   -1.723036
    108          6           0       14.137006    5.807939   -0.191585
    109          6           0       16.821456    5.357729   -2.605527
    110          6           0       18.155376    4.934027   -2.034095
    111          7           0       15.992571    0.127554   -1.770521
    112          6           0       15.867904    0.947982   -2.913074
    113          6           0       15.833266    0.054442   -4.089006
    114          6           0       15.917677   -1.235266   -3.543103
    115          6           0       15.978838   -1.152326   -2.125758
    116          6           0       15.687276    0.467206   -5.443415
    117          6           0       15.958251   -2.648465   -3.843004
    118          8           0       16.025763   -3.316058   -4.874260
    119          6           0       15.758270   -3.458141   -2.489924
    120          6           0       16.807893   -4.534049   -2.432980
    121          8           0       18.012396   -4.237849   -2.343323
    122          8           0       16.207283   -5.727635   -2.274908
    123          6           0       17.207802   -6.825566   -2.201850
    124          1           0       14.516727   -1.318358    3.994593
    125          1           0       15.648262    4.555245    2.196817
    126          1           0       15.793584    2.745992   -3.814850
    127          1           0       14.744502   -4.550866    0.269915
    128          1           0       14.859019   -3.658726    2.939751
    129          1           0       12.768645   -3.431876    0.813948
    130          1           0       12.751932   -2.125643    2.017189
    131          1           0       12.558954   -3.759890    2.575462
    132          1           0       17.076601   -3.916264    2.093200
    133          1           0       17.427896   -4.386521    0.390068
    134          1           0       15.653280   -6.321626    1.491705
    135          1           0       16.647945   -5.826985    2.814906
    136          1           0       15.110471   -0.420860    5.806417
    137          1           0       14.751751    1.175249    6.374686
    138          1           0       16.451075    0.647597    6.399885
    139          1           0       15.668469    3.169394    6.772705
    140          1           0       16.878469    4.575331    6.695620
    141          1           0       17.360704    2.875215    6.430185
    142          1           0       16.229584    5.689552   -0.011138
    143          1           0       14.784432    4.850972   -2.473880
    144          1           0       14.287086    6.837261    0.185314
    145          1           0       13.470479    5.258007    0.459457
    146          1           0       13.550997    5.890978   -1.105319
    147          1           0       16.747737    6.437422   -2.453944
    148          1           0       16.821861    5.182120   -3.676108
    149          1           0       18.264909    5.580059   -1.157898
    150          1           0       18.952802    5.106791   -2.754018
    151          1           0       18.119558    3.898095   -1.677429
    152          1           0       16.393712   -0.111820   -6.023230
    153          1           0       15.861591    1.535401   -5.554511
    154          1           0       14.640890    0.201863   -5.616469
    155          1           0       14.748876   -3.871141   -2.501421
    156          1           0       16.943933   -7.550455   -2.978123
    157          1           0       17.186869   -7.179590   -1.154009
    158          1           0       18.230784   -6.590173   -2.471237
 ---------------------------------------------------------------------

 SCF Done:  E(RCAM-B3LYP) =  -4069.81177056     A.U. after   19 cycles

 Excitation energies and oscillator strengths:

 Excited State   1:      Singlet-A      1.6755 eV  740.00 nm  f=0.3109  <S**2>=0.000
     310 -> 316        0.17134
     311 -> 314       -0.10929
     312 -> 313        0.67729
     310 <- 316        0.10327
 This state for optimization and/or second-order correction.
 Total Energy, E(TD-HF/TD-DFT) =  -4069.75019819
 Copying the excited state density for this state as the 1-particle RhoCI density.

 Excited State   2:      Singlet-A      1.6800 eV  738.02 nm  f=0.4659  <S**2>=0.000
     309 -> 315        0.17335
     311 -> 314        0.67693
     312 -> 313        0.10925
     309 <- 315        0.10380

 Excited State   3:      Singlet-A      2.1861 eV  567.16 nm  f=0.0991  <S**2>=0.000
     310 -> 313        0.64230
     312 -> 316       -0.27300

 Excited State   4:      Singlet-A      2.1926 eV  565.48 nm  f=0.1015  <S**2>=0.000
     309 -> 314        0.64052
     311 -> 315       -0.27825

 Excited State   5:      Singlet-A      3.0660 eV  404.39 nm  f=0.0000  <S**2>=0.000
     311 -> 313        0.70711

 The electronic state is 1-A.
 Alpha  occ. eigenvalues --  -46.87796 -46.87660 -19.26344 -19.26289 -19.19157
 Alpha  occ. eigenvalues --  -19.19024 -19.18814 -19.18716 -19.18170 -19.18049
 Alpha  occ. eigenvalues --  -14.42496 -14.42450 -14.41449 -14.41359 -14.39403
 Alpha  occ. eigenvalues --  -14.39352 -14.38599 -14.38586 -10.39087 -10.39083
 Alpha  occ. eigenvalues --  -10.35447 -10.35393 -10.34390 -10.34226 -10.31750
 Alpha  occ. eigenvalues --  -10.31685 -10.31405 -10.31307 -10.31022 -10.30909
 Alpha  occ. eigenvalues --  -10.30570 -10.30507 -10.30398 -10.30360 -10.30206
 Alpha  occ. eigenvalues --  -10.30142 -10.29920 -10.29895 -10.29630 -10.29437
 Alpha  occ. eigenvalues --  -10.29401 -10.29254 -10.28751 -10.28715 -10.28649
 Alpha  occ. eigenvalues --  -10.28544 -10.28404 -10.28365 -10.28136 -10.28118
 Alpha  occ. eigenvalues --  -10.28000 -10.27793 -10.27727 -10.27668 -10.27584
 Alpha  occ. eigenvalues --  -10.27520 -10.27499 -10.27483 -10.27481 -10.27468
 Alpha  occ. eigenvalues --  -10.27465 -10.27447 -10.27404 -10.27378 -10.27160
 Alpha  occ. eigenvalues --  -10.27047 -10.26708 -10.26689 -10.26418 -10.26409
 Alpha  occ. eigenvalues --  -10.26236 -10.26180 -10.26140 -10.26019 -10.26018
 Alpha  occ. eigenvalues --  -10.25934 -10.25850 -10.25842 -10.25433 -10.25400
 Alpha  occ. eigenvalues --  -10.24872 -10.24833 -10.24787 -10.24734 -10.24690
 Alpha  occ. eigenvalues --  -10.24684  -3.16539  -3.16410  -1.91421  -1.91292
 Alpha  occ. eigenvalues --   -1.91007  -1.90881  -1.90849  -1.90718  -1.16639
 Alpha  occ. eigenvalues --   -1.16637  -1.08656  -1.08628  -1.07215  -1.06969
 Alpha  occ. eigenvalues --   -1.06942  -1.06646  -1.04581  -1.04494  -1.03760
 Alpha  occ. eigenvalues --   -1.03663  -1.03234  -1.03039  -1.02411  -1.02111
 Alpha  occ. eigenvalues --   -0.91986  -0.91973  -0.89518  -0.89495  -0.89189
 Alpha  occ. eigenvalues --   -0.89148  -0.88285  -0.88221  -0.87870  -0.87793
 Alpha  occ. eigenvalues --   -0.87683  -0.87673  -0.87273  -0.87121  -0.84997
 Alpha  occ. eigenvalues --   -0.84983  -0.83935  -0.83877  -0.82966  -0.82933
 Alpha  occ. eigenvalues --   -0.82651  -0.82649  -0.81594  -0.81588  -0.80597
 Alpha  occ. eigenvalues --   -0.80441  -0.78797  -0.78635  -0.77218  -0.77143
 Alpha  occ. eigenvalues --   -0.76936  -0.76896  -0.75925  -0.75836  -0.74897
 Alpha  occ. eigenvalues --   -0.74803  -0.72774  -0.72699  -0.71672  -0.71580
 Alpha  occ. eigenvalues --   -0.69905  -0.69759  -0.68874  -0.68825  -0.67641
 Alpha  occ. eigenvalues --   -0.67601  -0.67221  -0.67198  -0.65288  -0.65269
 Alpha  occ. eigenvalues --   -0.64854  -0.64769  -0.64652  -0.64621  -0.64268
 Alpha  occ. eigenvalues --   -0.64204  -0.62300  -0.62276  -0.60441  -0.60340
 Alpha  occ. eigenvalues --   -0.59805  -0.59794  -0.58992  -0.58987  -0.58504
 Alpha  occ. eigenvalues --   -0.58425  -0.57586  -0.57552  -0.57308  -0.57236
 Alpha  occ. eigenvalues --   -0.56310  -0.56203  -0.55981  -0.55883  -0.55520
 Alpha  occ. eigenvalues --   -0.55451  -0.55339  -0.55247  -0.54524  -0.54487
 Alpha  occ. eigenvalues --   -0.53909  -0.53896  -0.53299  -0.53227  -0.53223
 Alpha  occ. eigenvalues --   -0.53140  -0.52916  -0.52900  -0.52756  -0.52668
 Alpha  occ. eigenvalues --   -0.52436  -0.52403  -0.51914  -0.51884  -0.51656
 Alpha  occ. eigenvalues --   -0.51618  -0.51200  -0.51196  -0.50572  -0.50476
 Alpha  occ. eigenvalues --   -0.50030  -0.49979  -0.49918  -0.49868  -0.49515
 Alpha  occ. eigenvalues --   -0.49487  -0.49215  -0.49201  -0.49102  -0.49097
 Alpha  occ. eigenvalues --   -0.48594  -0.48556  -0.48460  -0.48446  -0.48376
 Alpha  occ. eigenvalues --   -0.48339  -0.47695  -0.47593  -0.47297  -0.47118
 Alpha  occ. eigenvalues --   -0.46797  -0.46708  -0.46557  -0.46551  -0.46359
 Alpha  occ. eigenvalues --   -0.46270  -0.46162  -0.46085  -0.45823  -0.45820
 Alpha  occ. eigenvalues --   -0.45209  -0.45200  -0.44578  -0.44512  -0.44507
 Alpha  occ. eigenvalues --   -0.44474  -0.44144  -0.44126  -0.44089  -0.44078
 Alpha  occ. eigenvalues --   -0.44020  -0.43938  -0.43551  -0.43496  -0.43386
 Alpha  occ. eigenvalues --   -0.43384  -0.43027  -0.42928  -0.42899  -0.42701
 Alpha  occ. eigenvalues --   -0.42655  -0.42554  -0.42009  -0.41964  -0.41704
 Alpha  occ. eigenvalues --   -0.41668  -0.41535  -0.41457  -0.41141  -0.40988
 Alpha  occ. eigenvalues --   -0.40870  -0.40823  -0.40722  -0.40697  -0.40570
 Alpha  occ. eigenvalues --   -0.40493  -0.40236  -0.40224  -0.39439  -0.39427
 Alpha  occ. eigenvalues --   -0.38468  -0.38351  -0.37750  -0.37651  -0.37319
 Alpha  occ. eigenvalues --   -0.37266  -0.37265  -0.37197  -0.36768  -0.36715
 Alpha  occ. eigenvalues --   -0.36216  -0.36193  -0.34286  -0.34253  -0.33859
 Alpha  occ. eigenvalues --   -0.33773  -0.33186  -0.33175  -0.31344  -0.31275
 Alpha  occ. eigenvalues --   -0.31035  -0.30972  -0.30030  -0.29953  -0.29449
 Alpha  occ. eigenvalues --   -0.29327  -0.29322  -0.29211  -0.24080  -0.24036
 Alpha  occ. eigenvalues --   -0.21127  -0.21116
 Alpha virt. eigenvalues --   -0.08792  -0.08774  -0.01749  -0.01684  -0.00058
 Alpha virt. eigenvalues --   -0.00029   0.02200   0.02208   0.03124   0.03226
 Alpha virt. eigenvalues --    0.04717   0.04732   0.05095   0.05169   0.06175

 Mulliken charges:
               1
     1  Mg   0.838772
     2  C   -0.002969
     3  C   -0.094124
     4  C   -0.045872
     5  C   -0.063957
     6  N   -0.256780
     7  C   -0.052477
     8  C   -0.014006
     9  C   -0.086997
    10  C    0.046304
    11  C    0.104811
    12  C    0.053461
    13  C   -0.071779
    14  H    0.036067
    15  N   -0.433152
    16  C    0.168436
    17  C   -0.177169
    18  C   -0.003993
    19  C    0.148715
    20  C    0.110186
    21  C    0.012293
    22  O   -0.249603
    23  C    0.062475
    24  N   -0.341153
    25  C    0.041248
    26  C   -0.028176
    27  C   -0.023991
    28  C    0.074868
    29  C    0.076171
    30  C    0.035118
    31  C   -0.004505
    32  N   -0.310470
    33  C    0.080410
    34  C   -0.169710
    35  C    0.008345
    36  C    0.082981
    37  C    0.127314
    38  C    0.046124
    39  O   -0.188461
    40  C   -0.005338
    41  C    0.212861
    42  O   -0.257115
    43  O   -0.304786
    44  C    0.157704
    45  H   -0.017607
    46  H   -0.016819
    47  H   -0.041472
    48  H    0.000925
    49  H   -0.004047
    50  H    0.025473
    51  H    0.016460
    52  H    0.016653
    53  H    0.011207
    54  H    0.044108
    55  H    0.017873
    56  H    0.017948
    57  H    0.005864
    58  H    0.026833
    59  H    0.039551
    60  H    0.037346
    61  H    0.035671
    62  H    0.031498
    63  H    0.016569
    64  H    0.009470
    65  H    0.023229
    66  H    0.012539
    67  H    0.004763
    68  H    0.006391
    69  H    0.004745
    70  H    0.008789
    71  H    0.018169
    72  H    0.028958
    73  H    0.047566
    74  H    0.009132
    75  H    0.046009
    76  H    0.035145
    77  H    0.042930
    78  H    0.046390
    79  H    0.053660
    80  Mg   0.837894
    81  C   -0.016825
    82  C   -0.087773
    83  C   -0.045537
    84  C   -0.064878
    85  N   -0.254559
    86  C   -0.049832
    87  C   -0.015086
    88  C   -0.090525
    89  C    0.045760
    90  C    0.114365
    91  C    0.062529
    92  C   -0.077925
    93  H    0.034915
    94  N   -0.423514
    95  C    0.162915
    96  C   -0.174624
    97  C   -0.007816
    98  C    0.152114
    99  C    0.099368
   100  C    0.015565
   101  O   -0.253204
   102  C    0.061196
   103  N   -0.350068
   104  C    0.037558
   105  C   -0.019846
   106  C   -0.034815
   107  C    0.088919
   108  C    0.073644
   109  C    0.034743
   110  C   -0.007674
   111  N   -0.324125
   112  C    0.078455
   113  C   -0.163129
   114  C    0.002255
   115  C    0.096203
   116  C    0.131477
   117  C    0.042402
   118  O   -0.187820
   119  C    0.000915
   120  C    0.211266
   121  O   -0.251038
   122  O   -0.305604
   123  C    0.152014
   124  H   -0.019623
   125  H   -0.015589
   126  H   -0.040454
   127  H   -0.000592
   128  H   -0.004312
   129  H    0.022513
   130  H    0.014424
   131  H    0.016347
   132  H    0.013902
   133  H    0.037669
   134  H    0.020843
   135  H    0.019598
   136  H    0.008787
   137  H    0.026137
   138  H    0.039788
   139  H    0.038254
   140  H    0.036371
   141  H    0.033902
   142  H    0.014383
   143  H    0.012436
   144  H    0.025118
   145  H    0.011656
   146  H    0.005693
   147  H    0.006249
   148  H    0.003654
   149  H    0.010921
   150  H    0.017926
   151  H    0.030111
   152  H    0.046014
   153  H    0.008502
   154  H    0.046994
   155  H    0.035095
   156  H    0.043956
   157  H    0.049510
   158  H    0.053570
 Sum of Mulliken charges =  -0.00000

 Dipole moment (field-independent basis, Debye):
    X=             -4.1650    Y=              2.2317    Z=              6.8580  Tot=              8.3283
 Quadrupole moment (field-independent basis, Debye-Ang):
   XX=           -516.5376   YY=           -532.4647   ZZ=           -466.5034
   XY=            -49.3633   XZ=             14.4305   YZ=            -30.8682

 Normal termination of Gaussian 16 at Sat Sep  4 20:25:32 2021.
