 Gaussian 16, Revision A.03,
 Gaussian 16:  ES64L-G16RevA.03 25-Dec-2016

 -----------------------------------
 #p cam-b3lyp/Def2SVP td=(nstates=5)
 -----------------------------------

 --------------------------------
 TDDFT excited states in gaussian
 --------------------------------
 Symbolic Z-matrix:
 Charge =  0 Multiplicity = 1

                         Standard orientation:
 ---------------------------------------------------------------------
 Center     Atomic      Atomic             Coordinates (Angstroms)
 Number     Number       Type             X           Y           Z
 ---------------------------------------------------------------------
      1         12           0       -5.214360   -0.686112   -0.190176
      2          6           0       -5.449544    2.642227    1.105611
      3          6           0       -5.919858    0.619698   -3.262666
      4          6           0       -5.460802   -3.655657   -1.275389
      5          6           0       -5.654870   -1.829310    3.072447
      6          7           0       -5.612347    1.384139   -0.865687
      7          6           0       -5.613839    2.577430   -0.279832
      8          6           0       -5.731038    3.760134   -1.287230
      9          6           0       -6.430800    2.992248   -2.496644
     10          6           0       -5.930461    1.586670   -2.213913
     11          6           0       -7.954193    2.995891   -2.420722
     12          6           0       -4.332284    4.328501   -1.702171
     13          6           0       -4.363332    5.681074   -2.419762
     14          1           0       -3.289258    6.630684   -2.170854
     15          7           0       -5.146720   -1.385104   -2.036709
     16          6           0       -5.451526   -0.708836   -3.170305
     17          6           0       -5.244459   -1.662033   -4.281710
     18          6           0       -4.977716   -3.001777   -3.688391
     19          6           0       -5.213363   -2.736402   -2.292173
     20          6           0       -5.260979   -1.259817   -5.724520
     21          6           0       -4.584648   -4.315630   -4.286237
     22          8           0       -4.630499   -5.406506   -3.621058
     23          6           0       -4.224290   -4.305436   -5.715600
     24          7           0       -5.733267   -2.491932    0.719430
     25          6           0       -5.704618   -3.641740    0.036711
     26          6           0       -5.835244   -4.823305    0.951468
     27          6           0       -5.715177   -4.248248    2.436273
     28          6           0       -5.612340   -2.740553    2.097821
     29          6           0       -7.134009   -5.630797    0.820404
     30          6           0       -4.630409   -4.875258    3.347622
     31          6           0       -3.255395   -4.523701    2.825280
     32          7           0       -5.326225    0.211888    1.782672
     33          6           0       -5.536250   -0.451414    3.000290
     34          6           0       -5.643451    0.584763    4.043800
     35          6           0       -5.503987    1.787404    3.353835
     36          6           0       -5.347506    1.520505    1.963666
     37          6           0       -5.902134    0.354131    5.423773
     38          6           0       -5.475416    3.236823    3.464404
     39          8           0       -5.465930    4.034900    4.402740
     40          6           0       -5.561077    3.852952    1.998500
     41          6           0       -4.496075    4.909631    1.886660
     42          8           0       -3.286414    4.603989    1.912491
     43          8           0       -5.060557    6.073827    1.530919
     44          6           0       -4.054672    7.158106    1.373796
     45          1           0       -6.363249    0.880564   -4.225628
     46          1           0       -5.443176   -4.700667   -1.591745
     47          1           0       -5.708007   -2.114170    4.124818
     48          1           0       -6.364134    4.581794   -0.951838
     49          1           0       -6.065280    3.337234   -3.463651
     50          1           0       -8.305099    3.415388   -1.477956
     51          1           0       -8.252403    1.950831   -2.506820
     52          1           0       -8.383910    3.502320   -3.285389
     53          1           0       -3.912694    3.707984   -2.493982
     54          1           0       -3.670631    4.394095   -0.837742
     55          1           0       -5.334137    6.166132   -2.314099
     56          1           0       -4.265103    5.501974   -3.490497
     57          1           0       -5.645350   -0.248868   -5.854083
     58          1           0       -5.992744   -1.894689   -6.223686
     59          1           0       -4.285706   -1.382279   -6.195878
     60          1           0       -5.068294   -3.933517   -6.296878
     61          1           0       -3.885395   -5.314512   -5.947476
     62          1           0       -3.410054   -3.596697   -5.869412
     63          1           0       -5.033763   -5.540792    0.780394
     64          1           0       -6.640337   -4.373339    2.999393
     65          1           0       -6.972993   -6.686224    0.599378
     66          1           0       -7.747724   -5.159758    0.053093
     67          1           0       -7.793216   -5.579979    1.686592
     68          1           0       -4.708968   -5.961851    3.338146
     69          1           0       -4.697407   -4.546931    4.384908
     70          1           0       -3.086706   -5.277593    2.057150
     71          1           0       -2.514106   -4.604420    3.621010
     72          1           0       -3.253216   -3.550925    2.333154
     73          1           0       -5.224262    1.006307    5.974340
     74          1           0       -5.746023   -0.691917    5.686480
     75          1           0       -6.949861    0.648091    5.484698
     76          1           0       -6.562651    4.268190    1.891035
     77          1           0       -4.360305    7.976424    2.025852
     78          1           0       -3.983337    7.362151    0.305301
     79          1           0       -3.056379    6.949158    1.759919
     80         12           0        5.362361   -0.793839    0.344415
     81          6           0        5.239136    2.669607   -0.587470
     82          6           0        4.643057   -1.539632   -2.905357
     83          6           0        5.019006   -3.824252    1.219709
     84          6           0        4.935635    0.223814    3.650164
     85          7           0        5.009715    0.486493   -1.424385
     86          6           0        5.049574    1.787171   -1.671353
     87          6           0        4.956722    2.159389   -3.175483
     88          6           0        4.209543    0.839840   -3.704062
     89          6           0        4.673007   -0.148095   -2.635473
     90          6           0        2.694561    0.938848   -3.638119
     91          6           0        6.369144    2.324353   -3.838709
     92          6           0        6.358384    2.986160   -5.218438
     93          1           0        7.468863    3.863583   -5.578194
     94          7           0        5.384906   -2.454731   -0.741632
     95          6           0        5.087615   -2.573823   -2.052623
     96          6           0        5.234137   -4.002758   -2.370201
     97          6           0        5.481811   -4.742007   -1.102564
     98          6           0        5.279750   -3.681896   -0.135396
     99          6           0        5.214941   -4.530130   -3.775525
    100          6           0        5.828897   -6.170062   -0.808645
    101          8           0        5.764031   -6.648089    0.378838
    102          6           0        6.156726   -7.016452   -1.965206
    103          7           0        4.815273   -1.689801    2.138931
    104          6           0        4.795367   -3.028271    2.265525
    105          6           0        4.642588   -3.437253    3.711127
    106          6           0        4.807595   -2.090875    4.558260
    107          6           0        4.944317   -1.078313    3.400064
    108          6           0        3.318936   -4.108891    4.076135
    109          6           0        5.889036   -2.088995    5.673237
    110          6           0        7.266724   -2.169682    5.056106
    111          7           0        5.312210    1.092297    1.397050
    112          6           0        5.095600    1.292947    2.777960
    113          6           0        5.034766    2.751957    3.001618
    114          6           0        5.198511    3.302861    1.721711
    115          6           0        5.330455    2.260437    0.764923
    116          6           0        4.801879    3.393031    4.250984
    117          6           0        5.279106    4.529060    0.961030
    118          8           0        5.318860    5.725785    1.243895
    119          6           0        5.182375    4.172075   -0.584800
    120          6           0        6.275208    4.915772   -1.302538
    121          8           0        7.470117    4.649733   -1.083387
    122          8           0        5.731310    5.661066   -2.281868
    123          6           0        6.776867    6.409060   -3.029632
    124          1           0        4.198437   -1.877004   -3.842034
    125          1           0        5.001443   -4.851492    1.591122
    126          1           0        4.903212    0.622886    4.666219
    127          1           0        4.358409    3.036703   -3.390241
    128          1           0        4.577215    0.543053   -4.682888
    129          1           0        2.371097    1.837792   -3.134703
    130          1           0        2.365807    0.062186   -3.095503
    131          1           0        2.267016    0.850479   -4.640975
    132          1           0        6.755875    1.333252   -4.108738
    133          1           0        7.035821    2.856126   -3.188050
    134          1           0        5.399128    3.471729   -5.435218
    135          1           0        6.441385    2.205444   -5.978443
    136          1           0        4.850306   -3.775553   -4.483386
    137          1           0        4.459055   -5.322181   -3.809526
    138          1           0        6.176886   -4.946216   -4.082441
    139          1           0        5.315884   -7.027322   -2.654650
    140          1           0        6.463717   -7.976945   -1.546766
    141          1           0        6.998163   -6.564503   -2.502184
    142          1           0        5.421130   -4.132301    4.000744
    143          1           0        3.883293   -1.831374    5.095076
    144          1           0        3.447771   -5.110514    4.528048
    145          1           0        2.709647   -4.169670    3.184171
    146          1           0        2.683082   -3.539497    4.751916
    147          1           0        5.780766   -2.972373    6.307331
    148          1           0        5.840335   -1.219870    6.320726
    149          1           0        7.396372   -3.241926    4.881221
    150          1           0        8.017924   -1.788443    5.744871
    151          1           0        7.290568   -1.671250    4.080075
    152          1           0        5.499314    4.217842    4.312473
    153          1           0        4.927818    2.702097    5.081958
    154          1           0        3.759173    3.695930    4.123407
    155          1           0        4.190865    4.469544   -0.928294
    156          1           0        6.501550    7.467550   -2.991193
    157          1           0        6.824808    5.937015   -4.028945
    158          1           0        7.774240    6.434447   -2.606486
 ---------------------------------------------------------------------

 SCF Done:  E(RCAM-B3LYP) =  -4069.81158592     A.U. after   19 cycles

 Excitation energies and oscillator strengths:

 Excited State   1:      Singlet-A      1.6600 eV  746.91 nm  f=0.0743  <S**2>=0.000
     309 -> 315       -0.11414
     310 -> 316        0.12589
     311 -> 313       -0.45998
     312 -> 314        0.51006
 This state for optimization and/or second-order correction.
 Total Energy, E(TD-HF/TD-DFT) =  -4069.75058370
 Copying the excited state density for this state as the 1-particle RhoCI density.

 Excited State   2:      Singlet-A      1.6927 eV  732.47 nm  f=0.6365  <S**2>=0.000
     309 -> 315        0.13265
     310 -> 316        0.11945
     311 -> 313        0.50851
     312 -> 314        0.45873

 Excited State   3:      Singlet-A      2.1843 eV  567.61 nm  f=0.0390  <S**2>=0.000
     309 -> 313       -0.27810
     310 -> 314        0.58010
     311 -> 315        0.11669
     312 -> 316       -0.24540

 Excited State   4:      Singlet-A      2.1927 eV  565.44 nm  f=0.1491  <S**2>=0.000
     309 -> 313        0.57748
     310 -> 314        0.27569
     311 -> 315       -0.25163
     312 -> 316       -0.12105

 Excited State   5:      Singlet-A      2.4854 eV  498.84 nm  f=0.0000  <S**2>=0.000
     312 -> 313        0.70709

 The electronic state is 1-A.
 Alpha  occ. eigenvalues --  -46.87873 -46.87497 -19.26260 -19.26258 -19.19052
 Alpha  occ. eigenvalues --  -19.19010 -19.18929 -19.18566 -19.18222 -19.17876
 Alpha  occ. eigenvalues --  -14.42525 -14.42344 -14.41522 -14.41196 -14.39485
 Alpha  occ. eigenvalues --  -14.39190 -14.38660 -14.38426 -10.39075 -10.38977
 Alpha  occ. eigenvalues --  -10.35566 -10.35245 -10.34438 -10.34054 -10.31695
 Alpha  occ. eigenvalues --  -10.31614 -10.31472 -10.31154 -10.30984 -10.30886
 Alpha  occ. eigenvalues --  -10.30643 -10.30583 -10.30288 -10.30222 -10.30187
 Alpha  occ. eigenvalues --  -10.29986 -10.29983 -10.29721 -10.29713 -10.29341
 Alpha  occ. eigenvalues --  -10.29272 -10.29227 -10.28807 -10.28622 -10.28618
 Alpha  occ. eigenvalues --  -10.28571 -10.28441 -10.28243 -10.28180 -10.28044
 Alpha  occ. eigenvalues --  -10.27872 -10.27826 -10.27805 -10.27674 -10.27611
 Alpha  occ. eigenvalues --  -10.27563 -10.27520 -10.27507 -10.27472 -10.27359
 Alpha  occ. eigenvalues --  -10.27337 -10.27326 -10.27299 -10.27226 -10.27195
 Alpha  occ. eigenvalues --  -10.26892 -10.26760 -10.26619 -10.26574 -10.26291
 Alpha  occ. eigenvalues --  -10.26287 -10.26238 -10.26095 -10.25994 -10.25947
 Alpha  occ. eigenvalues --  -10.25913 -10.25761 -10.25582 -10.25488 -10.25261
 Alpha  occ. eigenvalues --  -10.24907 -10.24860 -10.24737 -10.24690 -10.24599
 Alpha  occ. eigenvalues --  -10.24528  -3.16616  -3.16247  -1.91498  -1.91129
 Alpha  occ. eigenvalues --   -1.91084  -1.90926  -1.90718  -1.90554  -1.16612
 Alpha  occ. eigenvalues --   -1.16547  -1.08673  -1.08484  -1.07331  -1.06836
 Alpha  occ. eigenvalues --   -1.06819  -1.06633  -1.04655  -1.04343  -1.03834
 Alpha  occ. eigenvalues --   -1.03502  -1.03311  -1.02871  -1.02486  -1.01944
 Alpha  occ. eigenvalues --   -0.92034  -0.91825  -0.89585  -0.89336  -0.89249
 Alpha  occ. eigenvalues --   -0.89046  -0.88351  -0.88068  -0.87945  -0.87746
 Alpha  occ. eigenvalues --   -0.87597  -0.87531  -0.87381  -0.86967  -0.85047
 Alpha  occ. eigenvalues --   -0.84882  -0.83993  -0.83728  -0.83080  -0.82790
 Alpha  occ. eigenvalues --   -0.82712  -0.82531  -0.81615  -0.81463  -0.80654
 Alpha  occ. eigenvalues --   -0.80302  -0.78891  -0.78471  -0.77287  -0.77009
 Alpha  occ. eigenvalues --   -0.76978  -0.76777  -0.75971  -0.75712  -0.74954
 Alpha  occ. eigenvalues --   -0.74660  -0.72847  -0.72529  -0.71735  -0.71439
 Alpha  occ. eigenvalues --   -0.69966  -0.69612  -0.68941  -0.68704  -0.67714
 Alpha  occ. eigenvalues --   -0.67450  -0.67293  -0.67086  -0.65345  -0.65151
 Alpha  occ. eigenvalues --   -0.64910  -0.64673  -0.64620  -0.64522  -0.64332
 Alpha  occ. eigenvalues --   -0.64053  -0.62315  -0.62152  -0.60535  -0.60185
 Alpha  occ. eigenvalues --   -0.59872  -0.59668  -0.59052  -0.58838  -0.58567
 Alpha  occ. eigenvalues --   -0.58274  -0.57624  -0.57402  -0.57370  -0.57081
 Alpha  occ. eigenvalues --   -0.56387  -0.56044  -0.55992  -0.55773  -0.55603
 Alpha  occ. eigenvalues --   -0.55383  -0.55312  -0.55103  -0.54554  -0.54356
 Alpha  occ. eigenvalues --   -0.53956  -0.53807  -0.53383  -0.53294  -0.53074
 Alpha  occ. eigenvalues --   -0.53011  -0.52964  -0.52849  -0.52775  -0.52539
 Alpha  occ. eigenvalues --   -0.52494  -0.52257  -0.51983  -0.51687  -0.51655
 Alpha  occ. eigenvalues --   -0.51540  -0.51250  -0.51049  -0.50700  -0.50340
 Alpha  occ. eigenvalues --   -0.50101  -0.50014  -0.49854  -0.49721  -0.49591
 Alpha  occ. eigenvalues --   -0.49354  -0.49283  -0.49155  -0.49065  -0.48965
 Alpha  occ. eigenvalues --   -0.48640  -0.48552  -0.48502  -0.48421  -0.48226
 Alpha  occ. eigenvalues --   -0.48196  -0.47765  -0.47463  -0.47370  -0.46976
 Alpha  occ. eigenvalues --   -0.46862  -0.46617  -0.46565  -0.46441  -0.46427
 Alpha  occ. eigenvalues --   -0.46215  -0.46114  -0.45922  -0.45862  -0.45666
 Alpha  occ. eigenvalues --   -0.45264  -0.45064  -0.44635  -0.44589  -0.44389
 Alpha  occ. eigenvalues --   -0.44333  -0.44216  -0.44154  -0.44081  -0.43994
 Alpha  occ. eigenvalues --   -0.43934  -0.43796  -0.43528  -0.43451  -0.43428
 Alpha  occ. eigenvalues --   -0.43251  -0.43089  -0.42808  -0.42750  -0.42744
 Alpha  occ. eigenvalues --   -0.42662  -0.42406  -0.42065  -0.41832  -0.41766
 Alpha  occ. eigenvalues --   -0.41595  -0.41516  -0.41340  -0.41205  -0.40945
 Alpha  occ. eigenvalues --   -0.40914  -0.40855  -0.40630  -0.40601  -0.40578
 Alpha  occ. eigenvalues --   -0.40350  -0.40296  -0.40135  -0.39499  -0.39279
 Alpha  occ. eigenvalues --   -0.38530  -0.38211  -0.37804  -0.37556  -0.37386
 Alpha  occ. eigenvalues --   -0.37326  -0.37117  -0.37065  -0.36728  -0.36659
 Alpha  occ. eigenvalues --   -0.36229  -0.36079  -0.34358  -0.34093  -0.33778
 Alpha  occ. eigenvalues --   -0.33742  -0.33254  -0.33013  -0.31456  -0.31126
 Alpha  occ. eigenvalues --   -0.31106  -0.30816  -0.30077  -0.29782  -0.29539
 Alpha  occ. eigenvalues --   -0.29397  -0.29161  -0.29025  -0.24153  -0.23871
 Alpha  occ. eigenvalues --   -0.21205  -0.20953
 Alpha virt. eigenvalues --   -0.08855  -0.08624  -0.01828  -0.01524  -0.00151
 Alpha virt. eigenvalues --    0.00124   0.02134   0.02386   0.03026   0.03378
 Alpha virt. eigenvalues --    0.04654   0.04865   0.05094   0.05283   0.06138

 Mulliken charges:
               1
     1  Mg   0.838591
     2  C   -0.002839
     3  C   -0.094578
     4  C   -0.045826
     5  C   -0.064063
     6  N   -0.256774
     7  C   -0.052383
     8  C   -0.013907
     9  C   -0.086907
    10  C    0.046206
    11  C    0.104811
    12  C    0.053607
    13  C   -0.072213
    14  H    0.037451
    15  N   -0.433062
    16  C    0.168124
    17  C   -0.177695
    18  C   -0.004383
    19  C    0.148638
    20  C    0.110277
    21  C    0.011858
    22  O   -0.249414
    23  C    0.062834
    24  N   -0.341190
    25  C    0.041234
    26  C   -0.028239
    27  C   -0.024075
    28  C    0.075103
    29  C    0.076116
    30  C    0.035067
    31  C   -0.004454
    32  N   -0.310566
    33  C    0.080671
    34  C   -0.169764
    35  C    0.008559
    36  C    0.083099
    37  C    0.127299
    38  C    0.046269
    39  O   -0.187767
    40  C   -0.005301
    41  C    0.212904
    42  O   -0.256733
    43  O   -0.305024
    44  C    0.157166
    45  H   -0.017705
    46  H   -0.016789
    47  H   -0.041398
    48  H    0.001314
    49  H   -0.004312
    50  H    0.025665
    51  H    0.016399
    52  H    0.016699
    53  H    0.010176
    54  H    0.044587
    55  H    0.018110
    56  H    0.017296
    57  H    0.005883
    58  H    0.026938
    59  H    0.038045
    60  H    0.037645
    61  H    0.035274
    62  H    0.029932
    63  H    0.016773
    64  H    0.009604
    65  H    0.023371
    66  H    0.012495
    67  H    0.004866
    68  H    0.006760
    69  H    0.004549
    70  H    0.009469
    71  H    0.017813
    72  H    0.028764
    73  H    0.047636
    74  H    0.009043
    75  H    0.046306
    76  H    0.035301
    77  H    0.043361
    78  H    0.046349
    79  H    0.055054
    80  Mg   0.838228
    81  C   -0.016597
    82  C   -0.087982
    83  C   -0.045328
    84  C   -0.063641
    85  N   -0.254443
    86  C   -0.049542
    87  C   -0.015076
    88  C   -0.090626
    89  C    0.045792
    90  C    0.114518
    91  C    0.062673
    92  C   -0.077479
    93  H    0.034497
    94  N   -0.423431
    95  C    0.162708
    96  C   -0.174773
    97  C   -0.007890
    98  C    0.151909
    99  C    0.099425
   100  C    0.015536
   101  O   -0.253537
   102  C    0.061235
   103  N   -0.349826
   104  C    0.037410
   105  C   -0.019788
   106  C   -0.035061
   107  C    0.089001
   108  C    0.073671
   109  C    0.034719
   110  C   -0.007590
   111  N   -0.324428
   112  C    0.078740
   113  C   -0.161594
   114  C    0.002968
   115  C    0.096402
   116  C    0.130903
   117  C    0.043466
   118  O   -0.187785
   119  C    0.000501
   120  C    0.211027
   121  O   -0.251212
   122  O   -0.305697
   123  C    0.152188
   124  H   -0.020718
   125  H   -0.015873
   126  H   -0.039751
   127  H   -0.001071
   128  H   -0.005203
   129  H    0.023375
   130  H    0.014959
   131  H    0.013963
   132  H    0.013895
   133  H    0.037750
   134  H    0.020113
   135  H    0.019157
   136  H    0.007909
   137  H    0.026227
   138  H    0.039231
   139  H    0.038412
   140  H    0.036032
   141  H    0.033529
   142  H    0.014022
   143  H    0.013273
   144  H    0.024321
   145  H    0.011999
   146  H    0.005596
   147  H    0.005855
   148  H    0.003992
   149  H    0.010654
   150  H    0.017713
   151  H    0.030136
   152  H    0.045359
   153  H    0.008270
   154  H    0.050833
   155  H    0.035837
   156  H    0.043481
   157  H    0.049014
   158  H    0.053516
 Sum of Mulliken charges =  -0.00000

 Dipole moment (field-independent basis, Debye):
    X=             -3.7274    Y=             -2.0246    Z=             -7.2246  Tot=              8.3778
 Quadrupole moment (field-independent basis, Debye-Ang):
   XX=           -518.6140   YY=           -541.2346   ZZ=           -457.9718
   XY=            -15.7376   XZ=              0.9909   YZ=            -38.7932

 Normal termination of Gaussian 16 at Sat Sep  4 05:01:22 2021.
