 Gaussian 16, Revision A.03,
 Gaussian 16:  ES64L-G16RevA.03 25-Dec-2016

 -----------------------------------
 #p cam-b3lyp/Def2SVP td=(nstates=5)
 -----------------------------------

 --------------------------------
 TDDFT excited states in gaussian
 --------------------------------
 Symbolic Z-matrix:
 Charge =  0 Multiplicity = 1

                         Standard orientation:
 ---------------------------------------------------------------------
 Center     Atomic      Atomic             Coordinates (Angstroms)
 Number     Number       Type             X           Y           Z
 ---------------------------------------------------------------------
      1         12           0       15.606328   -0.810033    0.253115
      2          6           0       15.864027    2.244272   -1.595405
      3          6           0       16.457228    0.974955    3.033916
      4          6           0       15.829523   -3.559774    1.816998
      5          6           0       15.896577   -2.498850   -2.781570
      6          7           0       16.074824    1.332552    0.553929
      7          6           0       16.079823    2.409456   -0.225445
      8          6           0       16.261215    3.741353    0.562286
      9          6           0       16.989925    3.169166    1.859815
     10          6           0       16.448677    1.750562    1.836672
     11          6           0       18.509010    3.117433    1.732511
     12          6           0       14.892072    4.410367    0.922286
     13          6           0       14.979990    5.863172    1.398713
     14          1           0       13.918075    6.786818    1.029170
     15          7           0       15.594284   -1.185490    2.192635
     16          6           0       15.956922   -0.336533    3.184125
     17          6           0       15.771900   -1.082519    4.447436
     18          6           0       15.453555   -2.495150    4.099264
     19          6           0       15.641262   -2.475688    2.671060
     20          6           0       15.852416   -0.443396    5.799763
     21          6           0       15.055197   -3.677891    4.924229
     22          8           0       15.051802   -4.866158    4.452440
     23          6           0       14.750162   -3.416769    6.342612
     24          7           0       16.050620   -2.757144   -0.354337
     25          6           0       16.023146   -3.774114    0.513996
     26          6           0       16.092912   -5.096185   -0.191127
     27          6           0       15.928591   -4.776606   -1.746961
     28          6           0       15.871605   -3.231155   -1.665697
     29          6           0       17.377877   -5.905947    0.030599
     30          6           0       14.796333   -5.517784   -2.501325
     31          6           0       13.450306   -5.044943   -1.999597
     32          7           0       15.662044   -0.261031   -1.846060
     33          6           0       15.810800   -1.125751   -2.940047
     34          6           0       15.900458   -0.283768   -4.147149
     35          6           0       15.813712    1.021411   -3.666704
     36          6           0       15.704828    0.997218   -2.246897
     37          6           0       16.101016   -0.750919   -5.476051
     38          6           0       15.812452    2.431656   -4.020347
     39          8           0       15.784388    3.060033   -5.079520
     40          6           0       15.967579    3.283510   -2.683893
     41          6           0       14.930873    4.373226   -2.716583
     42          8           0       13.714750    4.101489   -2.648992
     43          8           0       15.533751    5.564520   -2.582796
     44          6           0       14.558439    6.687415   -2.577579
     45          1           0       16.942747    1.381981    3.923041
     46          1           0       15.801307   -4.535571    2.306345
     47          1           0       15.903157   -2.958452   -3.771608
     48          1           0       16.898717    4.476699    0.071081
     49          1           0       16.669303    3.682335    2.766226
     50          1           0       18.832587    3.361993    0.720874
     51          1           0       18.787503    2.093944    1.984315
     52          1           0       18.982444    3.750216    2.483658
     53          1           0       14.489726    3.944208    1.821659
     54          1           0       14.199376    4.347704    0.082303
     55          1           0       15.956354    6.296179    1.179333
     56          1           0       14.918976    5.869997    2.487028
     57          1           0       16.263361    0.563796    5.742895
     58          1           0       16.588786   -1.005182    6.374103
     59          1           0       14.893482   -0.457353    6.318012
     60          1           0       15.623700   -2.975865    6.823325
     61          1           0       14.398535   -4.362439    6.753607
     62          1           0       13.958020   -2.669796    6.401702
     63          1           0       15.283159   -5.751898    0.126313
     64          1           0       16.828564   -5.020634   -2.311917
     65          1           0       17.202532   -6.904080    0.432704
     66          1           0       18.030631   -5.329585    0.685587
     67          1           0       18.004370   -6.020334   -0.853618
     68          1           0       14.851549   -6.588984   -2.310463
     69          1           0       14.830673   -5.371066   -3.580929
     70          1           0       13.294809   -5.653511   -1.109486
     71          1           0       12.677501   -5.237960   -2.744398
     72          1           0       13.488134   -4.003438   -1.679721
     73          1           0       15.416895   -0.182254   -6.105787
     74          1           0       15.912246   -1.821516   -5.552149
     75          1           0       17.151785   -0.500802   -5.621592
     76          1           0       16.981327    3.682803   -2.682568
     77          1           0       14.856594    7.375212   -3.368952
     78          1           0       14.532539    7.070620   -1.557339
     79          1           0       13.541781    6.444298   -2.888447
     80         12           0      -16.142366   -0.510359   -0.218712
     81          6           0      -13.682896    1.908481    0.770875
     82          6           0      -18.515636    1.653633    0.929910
     83          6           0      -18.298434   -2.795619   -0.661919
     84          6           0      -13.597654   -2.891557   -0.221096
     85          7           0      -15.994159    1.492297    0.708461
     86          6           0      -15.010524    2.337365    0.978024
     87          6           0      -15.478969    3.748731    1.423191
     88          6           0      -16.935077    3.355909    1.974823
     89          6           0      -17.187871    2.108385    1.130756
     90          6           0      -16.934471    2.949742    3.439190
     91          6           0      -15.571719    4.754171    0.222150
     92          6           0      -15.722626    6.223175    0.623409
     93          1           0      -15.074707    7.239869   -0.200596
     94          7           0      -18.117956   -0.399884   -0.371768
     95          6           0      -18.921021    0.559036    0.135025
     96          6           0      -20.291603    0.172523   -0.234120
     97          6           0      -20.246260   -1.177905   -0.857836
     98          6           0      -18.858116   -1.526620   -0.630855
     99          6           0      -21.469756    1.086208   -0.059278
    100          6           0      -21.284050   -2.021804   -1.533879
    101          8           0      -21.081904   -3.261404   -1.789524
    102          6           0      -22.578308   -1.378586   -1.803400
    103          7           0      -16.019749   -2.585734   -0.208179
    104          6           0      -17.096339   -3.343282   -0.482040
    105          6           0      -16.708621   -4.788214   -0.687484
    106          6           0      -15.110094   -4.801751   -0.733439
    107          6           0      -14.835990   -3.309461   -0.444777
    108          6           0      -17.195046   -5.766030    0.381935
    109          6           0      -14.447331   -5.447119   -1.981205
    110          6           0      -14.728259   -4.607994   -3.206903
    111          7           0      -13.994294   -0.491407    0.012466
    112          6           0      -13.125528   -1.604625    0.003188
    113          6           0      -11.771248   -1.102589    0.313524
    114          6           0      -11.951425    0.275438    0.506029
    115          6           0      -13.324583    0.605551    0.348094
    116          6           0      -10.596533   -1.897495    0.433087
    117          6           0      -11.293927    1.524217    0.817389
    118          8           0      -10.124677    1.876597    0.967168
    119          6           0      -12.405637    2.617119    1.127332
    120          6           0      -12.058303    3.863490    0.360244
    121          8           0      -12.078614    3.866628   -0.883220
    122          8           0      -11.972342    4.898085    1.216155
    123          6           0      -11.640573    6.159162    0.501008
    124          1           0      -19.322464    2.155746    1.464518
    125          1           0      -18.982941   -3.606623   -0.921145
    126          1           0      -12.734300   -3.555759   -0.299404
    127          1           0      -14.889078    4.194320    2.215176
    128          1           0      -17.665919    4.126712    1.744407
    129          1           0      -15.933105    2.878456    3.837096
    130          1           0      -17.426273    1.986573    3.477516
    131          1           0      -17.562031    3.631895    4.019849
    132          1           0      -16.525908    4.602707   -0.298738
    133          1           0      -14.729970    4.643287   -0.433431
    134          1           0      -15.495678    6.386165    1.684015
    135          1           0      -16.774753    6.502517    0.528447
    136          1           0      -21.221457    1.945791    0.575431
    137          1           0      -22.221104    0.532932    0.514507
    138          1           0      -21.908301    1.394796   -1.010653
    139          1           0      -23.009784   -1.029540   -0.868272
    140          1           0      -23.156338   -2.111152   -2.370052
    141          1           0      -22.405599   -0.490294   -2.421232
    142          1           0      -17.090436   -5.160808   -1.630085
    143          1           0      -14.683086   -5.368044    0.107288
    144          1           0      -17.804675   -6.593325   -0.027935
    145          1           0      -17.755840   -5.210999    1.122199
    146          1           0      -16.409606   -6.222694    0.981711
    147          1           0      -14.880363   -6.431868   -2.173318
    148          1           0      -13.375435   -5.580771   -1.880413
    149          1           0      -15.722364   -4.945795   -3.514682
    150          1           0      -13.988495   -4.801152   -3.981160
    151          1           0      -14.806770   -3.545896   -2.947195
    152          1           0       -9.807597   -1.366741   -0.083033
    153          1           0      -10.745463   -2.892006    0.017716
    154          1           0      -10.485578   -1.919212    1.520509
    155          1           0      -12.407059    2.786560    2.204765
    156          1           0      -10.740129    6.565913    0.971584
    157          1           0      -12.556230    6.778223    0.546585
    158          1           0      -11.322351    6.080716   -0.531964
 ---------------------------------------------------------------------

 SCF Done:  E(RCAM-B3LYP) =  -4069.81175256     A.U. after   19 cycles

 Excitation energies and oscillator strengths:

 Excited State   1:      Singlet-A      1.6756 eV  739.94 nm  f=0.3947  <S**2>=0.000
     309 -> 315        0.17361
     311 -> 313        0.68604
     309 <- 315        0.10464
 This state for optimization and/or second-order correction.
 Total Energy, E(TD-HF/TD-DFT) =  -4069.75017555
 Copying the excited state density for this state as the 1-particle RhoCI density.

 Excited State   2:      Singlet-A      1.6799 eV  738.06 nm  f=0.3873  <S**2>=0.000
     310 -> 316        0.17554
     312 -> 314        0.68569
     310 <- 316        0.10512

 Excited State   3:      Singlet-A      2.1861 eV  567.15 nm  f=0.0945  <S**2>=0.000
     309 -> 313        0.64201
     311 -> 315       -0.27294

 Excited State   4:      Singlet-A      2.1925 eV  565.49 nm  f=0.1056  <S**2>=0.000
     310 -> 314        0.64025
     312 -> 316       -0.27809

 Excited State   5:      Singlet-A      3.0450 eV  407.17 nm  f=0.0000  <S**2>=0.000
     312 -> 313        0.70708

 The electronic state is 1-A.
 Alpha  occ. eigenvalues --  -46.87725 -46.87660 -19.26345 -19.26208 -19.19156
 Alpha  occ. eigenvalues --  -19.18943 -19.18745 -19.18714 -19.18098 -19.18048
 Alpha  occ. eigenvalues --  -14.42497 -14.42379 -14.41379 -14.41359 -14.39352
 Alpha  occ. eigenvalues --  -14.39331 -14.38599 -14.38515 -10.39086 -10.39003
 Alpha  occ. eigenvalues --  -10.35391 -10.35378 -10.34318 -10.34226 -10.31750
 Alpha  occ. eigenvalues --  -10.31602 -10.31334 -10.31308 -10.31023 -10.30837
 Alpha  occ. eigenvalues --  -10.30498 -10.30436 -10.30397 -10.30360 -10.30141
 Alpha  occ. eigenvalues --  -10.30137 -10.29894 -10.29850 -10.29559 -10.29436
 Alpha  occ. eigenvalues --  -10.29400 -10.29184 -10.28719 -10.28677 -10.28653
 Alpha  occ. eigenvalues --  -10.28462 -10.28404 -10.28293 -10.28141 -10.28046
 Alpha  occ. eigenvalues --  -10.28000 -10.27722 -10.27669 -10.27656 -10.27517
 Alpha  occ. eigenvalues --  -10.27513 -10.27483 -10.27467 -10.27464 -10.27432
 Alpha  occ. eigenvalues --  -10.27411 -10.27381 -10.27376 -10.27332 -10.27086
 Alpha  occ. eigenvalues --  -10.27049 -10.26691 -10.26628 -10.26415 -10.26340
 Alpha  occ. eigenvalues --  -10.26168 -10.26135 -10.26113 -10.26028 -10.25949
 Alpha  occ. eigenvalues --  -10.25934 -10.25847 -10.25774 -10.25400 -10.25372
 Alpha  occ. eigenvalues --  -10.24872 -10.24762 -10.24727 -10.24717 -10.24689
 Alpha  occ. eigenvalues --  -10.24612  -3.16468  -3.16410  -1.91349  -1.91292
 Alpha  occ. eigenvalues --   -1.90936  -1.90881  -1.90778  -1.90717  -1.16639
 Alpha  occ. eigenvalues --   -1.16557  -1.08655  -1.08555  -1.07146  -1.06966
 Alpha  occ. eigenvalues --   -1.06940  -1.06566  -1.04510  -1.04495  -1.03690
 Alpha  occ. eigenvalues --   -1.03663  -1.03163  -1.03038  -1.02340  -1.02111
 Alpha  occ. eigenvalues --   -0.91986  -0.91901  -0.89493  -0.89449  -0.89152
 Alpha  occ. eigenvalues --   -0.89116  -0.88220  -0.88217  -0.87800  -0.87792
 Alpha  occ. eigenvalues --   -0.87684  -0.87602  -0.87203  -0.87120  -0.84999
 Alpha  occ. eigenvalues --   -0.84910  -0.83875  -0.83866  -0.82931  -0.82897
 Alpha  occ. eigenvalues --   -0.82652  -0.82577  -0.81594  -0.81513  -0.80524
 Alpha  occ. eigenvalues --   -0.80441  -0.78726  -0.78635  -0.77147  -0.77144
 Alpha  occ. eigenvalues --   -0.76897  -0.76862  -0.75852  -0.75838  -0.74829
 Alpha  occ. eigenvalues --   -0.74803  -0.72703  -0.72698  -0.71602  -0.71581
 Alpha  occ. eigenvalues --   -0.69836  -0.69756  -0.68827  -0.68801  -0.67601
 Alpha  occ. eigenvalues --   -0.67570  -0.67199  -0.67147  -0.65271  -0.65214
 Alpha  occ. eigenvalues --   -0.64782  -0.64769  -0.64653  -0.64549  -0.64203
 Alpha  occ. eigenvalues --   -0.64199  -0.62276  -0.62224  -0.60372  -0.60339
 Alpha  occ. eigenvalues --   -0.59797  -0.59733  -0.58992  -0.58916  -0.58432
 Alpha  occ. eigenvalues --   -0.58424  -0.57552  -0.57512  -0.57238  -0.57236
 Alpha  occ. eigenvalues --   -0.56239  -0.56203  -0.55904  -0.55884  -0.55451
 Alpha  occ. eigenvalues --   -0.55449  -0.55268  -0.55246  -0.54486  -0.54451
 Alpha  occ. eigenvalues --   -0.53913  -0.53823  -0.53228  -0.53227  -0.53150
 Alpha  occ. eigenvalues --   -0.53141  -0.52901  -0.52842  -0.52685  -0.52668
 Alpha  occ. eigenvalues --   -0.52399  -0.52366  -0.51882  -0.51844  -0.51658
 Alpha  occ. eigenvalues --   -0.51544  -0.51199  -0.51124  -0.50502  -0.50475
 Alpha  occ. eigenvalues --   -0.49980  -0.49962  -0.49867  -0.49848  -0.49487
 Alpha  occ. eigenvalues --   -0.49443  -0.49201  -0.49143  -0.49104  -0.49025
 Alpha  occ. eigenvalues --   -0.48557  -0.48521  -0.48392  -0.48375  -0.48374
 Alpha  occ. eigenvalues --   -0.48338  -0.47624  -0.47594  -0.47227  -0.47118
 Alpha  occ. eigenvalues --   -0.46726  -0.46708  -0.46554  -0.46483  -0.46288
 Alpha  occ. eigenvalues --   -0.46269  -0.46092  -0.46084  -0.45820  -0.45750
 Alpha  occ. eigenvalues --   -0.45209  -0.45132  -0.44513  -0.44506  -0.44476
 Alpha  occ. eigenvalues --   -0.44436  -0.44127  -0.44077  -0.44073  -0.44017
 Alpha  occ. eigenvalues --   -0.43948  -0.43938  -0.43551  -0.43422  -0.43385
 Alpha  occ. eigenvalues --   -0.43315  -0.42956  -0.42928  -0.42899  -0.42626
 Alpha  occ. eigenvalues --   -0.42582  -0.42553  -0.41963  -0.41938  -0.41668
 Alpha  occ. eigenvalues --   -0.41633  -0.41462  -0.41458  -0.41071  -0.40990
 Alpha  occ. eigenvalues --   -0.40797  -0.40752  -0.40722  -0.40698  -0.40501
 Alpha  occ. eigenvalues --   -0.40493  -0.40226  -0.40160  -0.39424  -0.39370
 Alpha  occ. eigenvalues --   -0.38399  -0.38350  -0.37674  -0.37653  -0.37265
 Alpha  occ. eigenvalues --   -0.37250  -0.37199  -0.37191  -0.36767  -0.36639
 Alpha  occ. eigenvalues --   -0.36216  -0.36120  -0.34253  -0.34215  -0.33858
 Alpha  occ. eigenvalues --   -0.33694  -0.33175  -0.33115  -0.31274  -0.31273
 Alpha  occ. eigenvalues --   -0.30972  -0.30964  -0.29957  -0.29953  -0.29378
 Alpha  occ. eigenvalues --   -0.29327  -0.29250  -0.29210  -0.24036  -0.24009
 Alpha  occ. eigenvalues --   -0.21117  -0.21057
 Alpha virt. eigenvalues --   -0.08791  -0.08703  -0.01683  -0.01679  -0.00028
 Alpha virt. eigenvalues --    0.00013   0.02209   0.02272   0.03200   0.03229
 Alpha virt. eigenvalues --    0.04729   0.04790   0.05169   0.05174   0.06183

 Mulliken charges:
               1
     1  Mg   0.838842
     2  C   -0.002916
     3  C   -0.094072
     4  C   -0.045883
     5  C   -0.063971
     6  N   -0.256755
     7  C   -0.052477
     8  C   -0.014008
     9  C   -0.087013
    10  C    0.046326
    11  C    0.104835
    12  C    0.053468
    13  C   -0.071838
    14  H    0.036264
    15  N   -0.433129
    16  C    0.168437
    17  C   -0.177161
    18  C   -0.004003
    19  C    0.148733
    20  C    0.110198
    21  C    0.012317
    22  O   -0.249663
    23  C    0.062455
    24  N   -0.341143
    25  C    0.041235
    26  C   -0.028136
    27  C   -0.023987
    28  C    0.074859
    29  C    0.076195
    30  C    0.035137
    31  C   -0.004508
    32  N   -0.310469
    33  C    0.080432
    34  C   -0.169699
    35  C    0.008357
    36  C    0.083029
    37  C    0.127298
    38  C    0.046143
    39  O   -0.188445
    40  C   -0.005367
    41  C    0.212865
    42  O   -0.256968
    43  O   -0.304853
    44  C    0.157665
    45  H   -0.017659
    46  H   -0.016876
    47  H   -0.041521
    48  H    0.000891
    49  H   -0.004020
    50  H    0.025432
    51  H    0.016401
    52  H    0.016593
    53  H    0.011274
    54  H    0.044215
    55  H    0.017776
    56  H    0.017946
    57  H    0.005852
    58  H    0.026740
    59  H    0.039623
    60  H    0.037278
    61  H    0.035628
    62  H    0.031606
    63  H    0.016574
    64  H    0.009383
    65  H    0.023162
    66  H    0.012500
    67  H    0.004683
    68  H    0.006299
    69  H    0.004709
    70  H    0.008787
    71  H    0.018221
    72  H    0.029055
    73  H    0.047620
    74  H    0.009105
    75  H    0.045924
    76  H    0.035076
    77  H    0.042892
    78  H    0.046397
    79  H    0.053809
    80  Mg   0.837823
    81  C   -0.016819
    82  C   -0.087798
    83  C   -0.045498
    84  C   -0.064863
    85  N   -0.254556
    86  C   -0.049820
    87  C   -0.015111
    88  C   -0.090493
    89  C    0.045748
    90  C    0.114388
    91  C    0.062525
    92  C   -0.077912
    93  H    0.034968
    94  N   -0.423466
    95  C    0.162918
    96  C   -0.174643
    97  C   -0.007804
    98  C    0.152106
    99  C    0.099378
   100  C    0.015572
   101  O   -0.253184
   102  C    0.061199
   103  N   -0.350080
   104  C    0.037504
   105  C   -0.019827
   106  C   -0.034820
   107  C    0.088923
   108  C    0.073667
   109  C    0.034718
   110  C   -0.007675
   111  N   -0.324112
   112  C    0.078436
   113  C   -0.163087
   114  C    0.002267
   115  C    0.096218
   116  C    0.131479
   117  C    0.042417
   118  O   -0.187791
   119  C    0.000909
   120  C    0.211267
   121  O   -0.250958
   122  O   -0.305662
   123  C    0.152003
   124  H   -0.019681
   125  H   -0.015574
   126  H   -0.040416
   127  H   -0.000668
   128  H   -0.004319
   129  H    0.022436
   130  H    0.014406
   131  H    0.016255
   132  H    0.013933
   133  H    0.037721
   134  H    0.020752
   135  H    0.019586
   136  H    0.008750
   137  H    0.026122
   138  H    0.039814
   139  H    0.038236
   140  H    0.036406
   141  H    0.033919
   142  H    0.014422
   143  H    0.012408
   144  H    0.025143
   145  H    0.011604
   146  H    0.005656
   147  H    0.006266
   148  H    0.003695
   149  H    0.010926
   150  H    0.018010
   151  H    0.030104
   152  H    0.046125
   153  H    0.008555
   154  H    0.046910
   155  H    0.034983
   156  H    0.043929
   157  H    0.049465
   158  H    0.053665
 Sum of Mulliken charges =  -0.00000

 Dipole moment (field-independent basis, Debye):
    X=             -1.8612    Y=              1.9079    Z=              6.0351  Tot=              6.5975
 Quadrupole moment (field-independent basis, Debye-Ang):
   XX=           -347.4958   YY=           -475.1454   ZZ=           -512.9038
   XY=            -36.3530   XZ=             27.6036   YZ=             40.5583

 Normal termination of Gaussian 16 at Sun Sep 12 16:15:20 2021.
