 Gaussian 16, Revision A.03,
 Gaussian 16:  ES64L-G16RevA.03 25-Dec-2016

 -----------------------------------
 #p cam-b3lyp/Def2SVP td=(nstates=5)
 -----------------------------------

 --------------------------------
 TDDFT excited states in gaussian
 --------------------------------
 Symbolic Z-matrix:
 Charge =  0 Multiplicity = 1

                         Standard orientation:
 ---------------------------------------------------------------------
 Center     Atomic      Atomic             Coordinates (Angstroms)
 Number     Number       Type             X           Y           Z
 ---------------------------------------------------------------------
      1         12           0       -3.821869   -0.947538    0.131844
      2          6           0       -4.186970    1.781198    2.419400
      3          6           0       -4.922641    1.154995   -2.319832
      4          6           0       -3.941935   -3.451270   -1.810715
      5          6           0       -3.852252   -3.073572    2.893133
      6          7           0       -4.443128    1.176916    0.168949
      7          6           0       -4.480021    2.126737    1.098276
      8          6           0       -4.786216    3.542042    0.523359
      9          6           0       -5.538888    3.112664   -0.814967
     10          6           0       -4.905900    1.748048   -1.022512
     11          6           0       -7.043298    2.934423   -0.637531
     12          6           0       -3.482875    4.352371    0.212876
     13          6           0       -3.688509    5.848709   -0.040192
     14          1           0       -2.672165    6.782909    0.419876
     15          7           0       -3.880567   -1.036939   -1.840822
     16          6           0       -4.345943   -0.081788   -2.681296
     17          6           0       -4.174926   -0.622197   -4.047090
     18          6           0       -3.748542   -2.043851   -3.923836
     19          6           0       -3.866820   -2.244474   -2.502168
     20          6           0       -4.363156    0.198216   -5.286139
     21          6           0       -3.314944   -3.063364   -4.929180
     22          8           0       -3.211010   -4.304009   -4.638368
     23          6           0       -3.097525   -2.578846   -6.304321
     24          7           0       -4.108045   -2.988759    0.462232
     25          6           0       -4.057021   -3.864966   -0.547047
     26          6           0       -4.005841   -5.276622   -0.042522
     27          6           0       -3.786551   -5.174292    1.535829
     28          6           0       -3.834410   -3.633248    1.681312
     29          6           0       -5.244658   -6.135764   -0.331001
     30          6           0       -2.572772   -5.933693    2.127835
     31          6           0       -1.286645   -5.298142    1.649243
     32          7           0       -3.810168   -0.713064    2.289604
     33          6           0       -3.848428   -1.735207    3.248997
     34          6           0       -3.933409   -1.085106    4.569684
     35          6           0       -3.955542    0.278628    4.284051
     36          6           0       -3.915104    0.467724    2.873059
     37          6           0       -4.037669   -1.752542    5.821919
     38          6           0       -4.028797    1.619396    4.841572
     39          8           0       -3.989791    2.088496    5.979956
     40          6           0       -4.304467    2.642118    3.652508
     41          6           0       -3.340593    3.787088    3.805154
     42          8           0       -2.114135    3.615768    3.650825
     43          8           0       -4.025626    4.938945    3.872217
     44          6           0       -3.126962    6.117740    3.994689
     45          1           0       -5.476680    1.650409   -3.119549
     46          1           0       -3.874259   -4.341557   -2.439401
     47          1           0       -3.780299   -3.670698    3.804021
     48          1           0       -5.445394    4.151123    1.142171
     49          1           0       -5.297233    3.773061   -1.647554
     50          1           0       -7.332093    3.006418    0.410961
     51          1           0       -7.266549    1.940777   -1.026530
     52          1           0       -7.593227    3.633565   -1.268051
     53          1           0       -3.095629    4.051096   -0.760435
     54          1           0       -2.747192    4.218751    1.006754
     55          1           0       -4.679063    6.174422    0.278591
     56          1           0       -3.681538    6.017085   -1.117132
     57          1           0       -4.835549    1.154575   -5.065304
     58          1           0       -5.088658   -0.325952   -5.907913
     59          1           0       -3.431933    0.328007   -5.837782
     60          1           0       -4.020458   -2.136806   -6.680277
     61          1           0       -2.705633   -3.427562   -6.863743
     62          1           0       -2.359577   -1.776385   -6.283409
     63          1           0       -3.171648   -5.819887   -0.484575
     64          1           0       -4.639912   -5.561217    2.093268
     65          1           0       -5.024608   -7.050165   -0.882502
     66          1           0       -5.964918   -5.519042   -0.867817
     67          1           0       -5.818231   -6.421297    0.550420
     68          1           0       -2.567392   -6.967242    1.783317
     69          1           0       -2.563587   -5.947367    3.217780
     70          1           0       -1.135697   -5.758978    0.673703
     71          1           0       -0.467300   -5.540918    2.326696
     72          1           0       -1.407885   -4.226755    1.488254
     73          1           0       -3.361972   -1.233332    6.501495
     74          1           0       -3.776057   -2.806601    5.731805
     75          1           0       -5.094090   -1.601982    6.043647
     76          1           0       -5.340913    2.963776    3.749655
     77          1           0       -3.430100    6.660820    4.889902
     78          1           0       -3.176167    6.645217    3.041928
     79          1           0       -2.082602    5.905690    4.226389
     80         12           0        4.083133   -0.317347   -0.046348
     81          6           0        3.183205    2.035056   -2.602789
     82          6           0        5.538292    2.278270    1.620957
     83          6           0        5.278782   -2.430062    1.996762
     84          6           0        3.589172   -2.845819   -2.393374
     85          7           0        4.270420    1.832809   -0.530084
     86          6           0        3.835604    2.623722   -1.499483
     87          6           0        4.044662    4.139076   -1.235716
     88          6           0        5.269519    4.036525   -0.202240
     89          6           0        4.996618    2.644076    0.362831
     90          6           0        6.629314    4.018687   -0.880456
     91          6           0        2.789600    4.809373   -0.574277
     92          6           0        2.804335    6.339578   -0.571468
     93          1           0        1.538667    7.048143   -0.740264
     94          7           0        4.801862   -0.066887    1.786483
     95          6           0        5.334178    1.059698    2.304885
     96          6           0        5.732779    0.720637    3.679773
     97          6           0        5.543101   -0.742332    3.875887
     98          6           0        5.213029   -1.148822    2.524628
     99          6           0        6.160640    1.753859    4.681185
    100          6           0        5.654491   -1.630696    5.077802
    101          8           0        5.679627   -2.907736    4.971208
    102          6           0        5.827241   -0.960281    6.374800
    103          7           0        4.595823   -2.323646   -0.231373
    104          6           0        5.044790   -3.022801    0.825764
    105          6           0        5.085445   -4.501898    0.524087
    106          6           0        4.338454   -4.674810   -0.879368
    107          6           0        4.061617   -3.190280   -1.203284
    108          6           0        6.478408   -5.125458    0.439136
    109          6           0        3.151320   -5.675404   -0.926192
    110          6           0        2.003671   -5.154021   -0.091653
    111          7           0        3.319545   -0.439310   -2.063804
    112          6           0        3.224451   -1.593724   -2.871499
    113          6           0        2.751809   -1.156952   -4.201264
    114          6           0        2.625729    0.235202   -4.080875
    115          6           0        3.013120    0.639997   -2.774897
    116          6           0        2.544982   -2.000492   -5.328994
    117          6           0        2.263165    1.455589   -4.764912
    118          8           0        1.775965    1.724544   -5.862198
    119          6           0        2.728648    2.689578   -3.877777
    120          6           0        1.583588    3.661579   -3.796784
    121          8           0        0.529661    3.349608   -3.214943
    122          8           0        1.998123    4.867556   -4.225918
    123          6           0        0.900390    5.868384   -4.154098
    124          1           0        6.218912    2.972583    2.114468
    125          1           0        5.580138   -3.213289    2.696198
    126          1           0        3.316738   -3.585122   -3.149607
    127          1           0        4.338773    4.715116   -2.104880
    128          1           0        5.190609    4.787472    0.579563
    129          1           0        6.542735    3.958639   -1.955180
    130          1           0        7.140009    3.146953   -0.492738
    131          1           0        7.221077    4.881418   -0.561337
    132          1           0        2.810053    4.619306    0.506557
    133          1           0        1.884854    4.457552   -1.030656
    134          1           0        3.565421    6.745703   -1.248780
    135          1           0        3.116301    6.681789    0.418274
    136          1           0        6.361056    2.719966    4.201738
    137          1           0        7.133948    1.437175    5.071393
    138          1           0        5.460167    1.849103    5.513605
    139          1           0        6.724108   -0.346010    6.347189
    140          1           0        5.797517   -1.756217    7.121432
    141          1           0        4.983688   -0.278723    6.531425
    142          1           0        4.550455   -5.065337    1.278695
    143          1           0        5.018868   -5.045224   -1.660180
    144          1           0        6.622152   -5.969697    1.139606
    145          1           0        7.210980   -4.350600    0.622089
    146          1           0        6.764015   -5.484981   -0.547967
    147          1           0        3.444822   -6.632072   -0.487110
    148          1           0        2.796343   -5.877719   -1.931203
    149          1           0        2.274043   -5.465442    0.921749
    150          1           0        1.065066   -5.605816   -0.406217
    151          1           0        1.974732   -4.058266   -0.103090
    152          1           0        1.610266   -1.694282   -5.779590
    153          1           0        2.523986   -3.049786   -5.042106
    154          1           0        3.430284   -1.754579   -5.921477
    155          1           0        3.604002    3.127368   -4.359099
    156          1           0        0.792201    6.296340   -5.155516
    157          1           0        1.180285    6.560734   -3.337972
    158          1           0       -0.102444    5.500145   -3.971996
 ---------------------------------------------------------------------

 SCF Done:  E(RCAM-B3LYP) =  -4069.81280492     A.U. after   19 cycles

 Excitation energies and oscillator strengths:

 Excited State   1:      Singlet-A      1.6385 eV  756.69 nm  f=0.0329  <S**2>=0.000
     309 -> 315        0.12147
     310 -> 316        0.11008
     311 -> 313        0.50873
     312 -> 314        0.46366
 This state for optimization and/or second-order correction.
 Total Energy, E(TD-HF/TD-DFT) =  -4069.75259085
 Copying the excited state density for this state as the 1-particle RhoCI density.

 Excited State   2:      Singlet-A      1.7104 eV  724.87 nm  f=0.6601  <S**2>=0.000
     309 -> 315       -0.12292
     310 -> 316        0.13486
     311 -> 313       -0.46059
     312 -> 314        0.50544

 Excited State   3:      Singlet-A      2.1799 eV  568.76 nm  f=0.0113  <S**2>=0.000
     309 -> 313        0.54781
     310 -> 314       -0.34230
     311 -> 315       -0.22641
     312 -> 316        0.13984

 Excited State   4:      Singlet-A      2.1979 eV  564.10 nm  f=0.1579  <S**2>=0.000
     309 -> 313        0.33726
     310 -> 314        0.54203
     311 -> 315       -0.14972
     312 -> 316       -0.23893

 Excited State   5:      Singlet-A      2.3026 eV  538.44 nm  f=0.0000  <S**2>=0.000
     312 -> 313        0.70693

 The electronic state is 1-A.
 Alpha  occ. eigenvalues --  -46.87518 -46.87356 -19.26502 -19.26087 -19.19303
 Alpha  occ. eigenvalues --  -19.18793 -19.18554 -19.18411 -19.18075 -19.17828
 Alpha  occ. eigenvalues --  -14.42352 -14.42007 -14.41228 -14.41038 -14.39202
 Alpha  occ. eigenvalues --  -14.38945 -14.38483 -14.38172 -10.39209 -10.38842
 Alpha  occ. eigenvalues --  -10.35226 -10.35036 -10.34252 -10.34054 -10.31987
 Alpha  occ. eigenvalues --  -10.31561 -10.31198 -10.30985 -10.30883 -10.30451
 Alpha  occ. eigenvalues --  -10.30278 -10.30247 -10.30141 -10.30112 -10.29975
 Alpha  occ. eigenvalues --  -10.29786 -10.29781 -10.29569 -10.29281 -10.29279
 Alpha  occ. eigenvalues --  -10.29219 -10.28797 -10.28599 -10.28578 -10.28319
 Alpha  occ. eigenvalues --  -10.28288 -10.28229 -10.28020 -10.27927 -10.27892
 Alpha  occ. eigenvalues --  -10.27693 -10.27525 -10.27370 -10.27366 -10.27361
 Alpha  occ. eigenvalues --  -10.27330 -10.27273 -10.27255 -10.27253 -10.27191
 Alpha  occ. eigenvalues --  -10.27175 -10.27138 -10.27061 -10.26995 -10.26836
 Alpha  occ. eigenvalues --  -10.26836 -10.26525 -10.26192 -10.26188 -10.25948
 Alpha  occ. eigenvalues --  -10.25936 -10.25914 -10.25914 -10.25878 -10.25810
 Alpha  occ. eigenvalues --  -10.25784 -10.25608 -10.25517 -10.25298 -10.25190
 Alpha  occ. eigenvalues --  -10.24780 -10.24569 -10.24517 -10.24438 -10.24422
 Alpha  occ. eigenvalues --  -10.24396  -3.16266  -3.16097  -1.91148  -1.90978
 Alpha  occ. eigenvalues --   -1.90737  -1.90574  -1.90565  -1.90408  -1.16790
 Alpha  occ. eigenvalues --   -1.16427  -1.08704  -1.08304  -1.07080  -1.06819
 Alpha  occ. eigenvalues --   -1.06804  -1.06415  -1.04360  -1.04142  -1.03527
 Alpha  occ. eigenvalues --   -1.03346  -1.02908  -1.02808  -1.01993  -1.01987
 Alpha  occ. eigenvalues --   -0.91907  -0.91582  -0.89362  -0.89170  -0.89028
 Alpha  occ. eigenvalues --   -0.88765  -0.88087  -0.87950  -0.87705  -0.87549
 Alpha  occ. eigenvalues --   -0.87480  -0.87238  -0.86952  -0.86784  -0.84880
 Alpha  occ. eigenvalues --   -0.84573  -0.83762  -0.83630  -0.82771  -0.82543
 Alpha  occ. eigenvalues --   -0.82532  -0.82250  -0.81596  -0.81277  -0.80371
 Alpha  occ. eigenvalues --   -0.80219  -0.78496  -0.78337  -0.77024  -0.76856
 Alpha  occ. eigenvalues --   -0.76816  -0.76589  -0.75775  -0.75564  -0.74707
 Alpha  occ. eigenvalues --   -0.74566  -0.72583  -0.72373  -0.71481  -0.71298
 Alpha  occ. eigenvalues --   -0.69717  -0.69497  -0.68716  -0.68473  -0.67500
 Alpha  occ. eigenvalues --   -0.67247  -0.67060  -0.66790  -0.65177  -0.64885
 Alpha  occ. eigenvalues --   -0.64694  -0.64567  -0.64489  -0.64267  -0.64081
 Alpha  occ. eigenvalues --   -0.63904  -0.62292  -0.62011  -0.60191  -0.60006
 Alpha  occ. eigenvalues --   -0.59676  -0.59382  -0.58892  -0.58606  -0.58346
 Alpha  occ. eigenvalues --   -0.58126  -0.57570  -0.57267  -0.57127  -0.56948
 Alpha  occ. eigenvalues --   -0.56126  -0.55920  -0.55886  -0.55684  -0.55375
 Alpha  occ. eigenvalues --   -0.55187  -0.55110  -0.55038  -0.54454  -0.54234
 Alpha  occ. eigenvalues --   -0.53794  -0.53479  -0.53122  -0.53067  -0.52917
 Alpha  occ. eigenvalues --   -0.52826  -0.52810  -0.52565  -0.52500  -0.52302
 Alpha  occ. eigenvalues --   -0.52255  -0.52126  -0.51836  -0.51565  -0.51535
 Alpha  occ. eigenvalues --   -0.51185  -0.51137  -0.50843  -0.50285  -0.50061
 Alpha  occ. eigenvalues --   -0.49846  -0.49743  -0.49654  -0.49483  -0.49371
 Alpha  occ. eigenvalues --   -0.49118  -0.49117  -0.49039  -0.48824  -0.48723
 Alpha  occ. eigenvalues --   -0.48516  -0.48313  -0.48260  -0.48196  -0.48147
 Alpha  occ. eigenvalues --   -0.48030  -0.47491  -0.47307  -0.46998  -0.46888
 Alpha  occ. eigenvalues --   -0.46605  -0.46461  -0.46404  -0.46185  -0.46156
 Alpha  occ. eigenvalues --   -0.46008  -0.45958  -0.45821  -0.45797  -0.45509
 Alpha  occ. eigenvalues --   -0.45114  -0.44854  -0.44471  -0.44358  -0.44247
 Alpha  occ. eigenvalues --   -0.44104  -0.44076  -0.43971  -0.43813  -0.43780
 Alpha  occ. eigenvalues --   -0.43735  -0.43613  -0.43573  -0.43289  -0.43187
 Alpha  occ. eigenvalues --   -0.42998  -0.42975  -0.42826  -0.42663  -0.42460
 Alpha  occ. eigenvalues --   -0.42438  -0.42305  -0.41845  -0.41669  -0.41594
 Alpha  occ. eigenvalues --   -0.41352  -0.41322  -0.41151  -0.40887  -0.40766
 Alpha  occ. eigenvalues --   -0.40594  -0.40543  -0.40494  -0.40397  -0.40363
 Alpha  occ. eigenvalues --   -0.40234  -0.40074  -0.39775  -0.39491  -0.38873
 Alpha  occ. eigenvalues --   -0.38225  -0.38121  -0.37546  -0.37358  -0.37146
 Alpha  occ. eigenvalues --   -0.37083  -0.36946  -0.36849  -0.36837  -0.36455
 Alpha  occ. eigenvalues --   -0.36119  -0.35859  -0.34152  -0.33946  -0.33878
 Alpha  occ. eigenvalues --   -0.33510  -0.33054  -0.32774  -0.31117  -0.30946
 Alpha  occ. eigenvalues --   -0.30853  -0.30630  -0.29988  -0.29697  -0.29203
 Alpha  occ. eigenvalues --   -0.29101  -0.29011  -0.28896  -0.23909  -0.23659
 Alpha  occ. eigenvalues --   -0.20984  -0.20699
 Alpha virt. eigenvalues --   -0.08666  -0.08338  -0.01543  -0.01332   0.00108
 Alpha virt. eigenvalues --    0.00382   0.02261   0.02536   0.02637   0.04565
 Alpha virt. eigenvalues --    0.04771   0.05060   0.05110   0.05352   0.05929

 Mulliken charges:
               1
     1  Mg   0.841215
     2  C   -0.002720
     3  C   -0.088076
     4  C   -0.047547
     5  C   -0.064567
     6  N   -0.256875
     7  C   -0.051985
     8  C   -0.014682
     9  C   -0.088138
    10  C    0.048928
    11  C    0.104981
    12  C    0.051114
    13  C   -0.069832
    14  H    0.030776
    15  N   -0.433534
    16  C    0.172384
    17  C   -0.172689
    18  C   -0.003346
    19  C    0.149644
    20  C    0.109896
    21  C    0.011753
    22  O   -0.252468
    23  C    0.060235
    24  N   -0.341200
    25  C    0.042152
    26  C   -0.028843
    27  C   -0.023702
    28  C    0.073851
    29  C    0.076805
    30  C    0.040066
    31  C   -0.014619
    32  N   -0.310009
    33  C    0.079280
    34  C   -0.170938
    35  C    0.007418
    36  C    0.082115
    37  C    0.127676
    38  C    0.044902
    39  O   -0.191097
    40  C   -0.005244
    41  C    0.212792
    42  O   -0.257989
    43  O   -0.304537
    44  C    0.158721
    45  H   -0.018104
    46  H   -0.018490
    47  H   -0.042794
    48  H   -0.000880
    49  H   -0.003024
    50  H    0.024678
    51  H    0.016180
    52  H    0.015756
    53  H    0.022427
    54  H    0.043176
    55  H    0.016356
    56  H    0.017456
    57  H    0.005888
    58  H    0.024467
    59  H    0.048717
    60  H    0.037216
    61  H    0.033375
    62  H    0.038168
    63  H    0.015106
    64  H    0.008802
    65  H    0.021851
    66  H    0.012687
    67  H    0.004311
    68  H    0.003921
    69  H    0.003661
    70  H    0.013216
    71  H    0.021107
    72  H    0.030003
    73  H    0.045964
    74  H    0.008591
    75  H    0.044943
    76  H    0.034376
    77  H    0.041801
    78  H    0.046391
    79  H    0.051580
    80  Mg   0.839987
    81  C   -0.017065
    82  C   -0.086288
    83  C   -0.045520
    84  C   -0.064329
    85  N   -0.254807
    86  C   -0.049198
    87  C   -0.015826
    88  C   -0.091009
    89  C    0.047206
    90  C    0.114445
    91  C    0.062038
    92  C   -0.076981
    93  H    0.031910
    94  N   -0.423704
    95  C    0.165173
    96  C   -0.173290
    97  C   -0.006771
    98  C    0.152902
    99  C    0.099378
   100  C    0.016483
   101  O   -0.253674
   102  C    0.060385
   103  N   -0.350087
   104  C    0.037910
   105  C   -0.020216
   106  C   -0.034458
   107  C    0.088014
   108  C    0.073886
   109  C    0.038112
   110  C   -0.014300
   111  N   -0.323863
   112  C    0.077828
   113  C   -0.163519
   114  C    0.000423
   115  C    0.096031
   116  C    0.132344
   117  C    0.040714
   118  O   -0.192412
   119  C    0.001387
   120  C    0.210436
   121  O   -0.252232
   122  O   -0.304892
   123  C    0.153350
   124  H   -0.019713
   125  H   -0.015760
   126  H   -0.039826
   127  H   -0.001919
   128  H   -0.003651
   129  H    0.021912
   130  H    0.014412
   131  H    0.016043
   132  H    0.018847
   133  H    0.037413
   134  H    0.019696
   135  H    0.020536
   136  H    0.008872
   137  H    0.025584
   138  H    0.042753
   139  H    0.037798
   140  H    0.036195
   141  H    0.036712
   142  H    0.014246
   143  H    0.012040
   144  H    0.024723
   145  H    0.011469
   146  H    0.005549
   147  H    0.004549
   148  H    0.004132
   149  H    0.010982
   150  H    0.022808
   151  H    0.029725
   152  H    0.041463
   153  H    0.011296
   154  H    0.046268
   155  H    0.034752
   156  H    0.042857
   157  H    0.050675
   158  H    0.049715
 Sum of Mulliken charges =  -0.00000

 Dipole moment (field-independent basis, Debye):
    X=              1.0582    Y=              3.2806    Z=             -1.4981  Tot=              3.7585
 Quadrupole moment (field-independent basis, Debye-Ang):
   XX=           -480.9938   YY=           -462.5225   ZZ=           -543.4105
   XY=              9.2642   XZ=             19.5626   YZ=             -7.0165

 Normal termination of Gaussian 16 at Wed Sep  8 19:41:09 2021.
