 Gaussian 16, Revision A.03,
 Gaussian 16:  ES64L-G16RevA.03 25-Dec-2016

 -----------------------------------
 #p cam-b3lyp/Def2SVP td=(nstates=5)
 -----------------------------------

 --------------------------------
 TDDFT excited states in gaussian
 --------------------------------
 Symbolic Z-matrix:
 Charge =  0 Multiplicity = 1

                         Standard orientation:
 ---------------------------------------------------------------------
 Center     Atomic      Atomic             Coordinates (Angstroms)
 Number     Number       Type             X           Y           Z
 ---------------------------------------------------------------------
      1         12           0        5.344753    0.485671    1.194277
      2          6           0        6.004824   -2.432783   -0.770193
      3          6           0        6.787606    2.310431   -1.302018
      4          6           0        5.185343    3.015701    3.099574
      5          6           0        5.010271   -1.623944    3.948058
      6          7           0        6.243186   -0.100896   -0.742060
      7          6           0        6.379732   -1.245828   -1.403617
      8          6           0        6.889024   -1.058552   -2.864070
      9          6           0        7.616101    0.350666   -2.698357
     10          6           0        6.812616    0.903140   -1.534266
     11          6           0        9.077363    0.236416   -2.276264
     12          6           0        5.715334   -0.979632   -3.897489
     13          6           0        6.126490   -1.124888   -5.365550
     14          1           0        5.231262   -1.820105   -6.278013
     15          7           0        5.448290    2.413532    0.775372
     16          6           0        6.061450    2.978466   -0.292416
     17          6           0        5.859478    4.436791   -0.153940
     18          6           0        5.243409    4.686303    1.178837
     19          6           0        5.292417    3.367293    1.756062
     20          6           0        6.191668    5.419724   -1.234331
     21          6           0        4.706780    5.920063    1.833053
     22          8           0        4.429463    5.962787    3.080387
     23          6           0        4.596175    7.119301    0.982972
     24          7           0        5.345665    0.702075    3.270525
     25          6           0        5.207290    1.904847    3.839011
     26          6           0        4.953147    1.786335    5.312546
     27          6           0        4.703722    0.234588    5.594721
     28          6           0        4.952980   -0.308140    4.165880
     29          6           0        6.073805    2.297861    6.228230
     30          6           0        3.382600   -0.146856    6.308554
     31          6           0        2.207477    0.140115    5.400903
     32          7           0        5.301791   -1.658428    1.528999
     33          6           0        5.175112   -2.317145    2.760551
     34          6           0        5.307838   -3.761190    2.493739
     35          6           0        5.520433   -3.841641    1.118903
     36          6           0        5.546682   -2.529383    0.566109
     37          6           0        5.285459   -4.794788    3.471291
     38          6           0        5.756089   -4.729583   -0.007988
     39          8           0        5.747088   -5.951231   -0.166068
     40          6           0        6.200497   -3.847149   -1.256842
     41          6           0        5.394368   -4.300334   -2.443471
     42          8           0        4.161025   -4.115126   -2.487408
     43          8           0        6.225041   -4.661260   -3.433550
     44          6           0        5.488908   -5.093706   -4.651439
     45          1           0        7.425930    2.956758   -1.907612
     46          1           0        5.017525    3.854674    3.778102
     47          1           0        4.832662   -2.347654    4.745649
     48          1           0        7.605461   -1.810414   -3.195499
     49          1           0        7.489235    0.980089   -3.578956
     50          1           0        9.342589   -0.792434   -2.033276
     51          1           0        9.176944    0.873058   -1.396910
     52          1           0        9.733942    0.666169   -3.033227
     53          1           0        5.319737    0.035872   -3.915223
     54          1           0        4.945625   -1.716112   -3.664096
     55          1           0        7.142014   -1.510811   -5.458733
     56          1           0        6.173409   -0.129424   -5.807194
     57          1           0        6.781088    4.959974   -2.026643
     58          1           0        6.858324    6.161876   -0.795595
     59          1           0        5.302600    5.911813   -1.628966
     60          1           0        5.580467    7.373104    0.588889
     61          1           0        4.110737    7.878303    1.595439
     62          1           0        3.971873    6.884327    0.120428
     63          1           0        4.067004    2.349170    5.603050
     64          1           0        5.481106   -0.196453    6.226029
     65          1           0        5.749578    3.067574    6.929033
     66          1           0        6.885366    2.659886    5.597677
     67          1           0        6.578175    1.525666    6.808525
     68          1           0        3.249073    0.455690    7.206359
     69          1           0        3.339988   -1.195405    6.603478
     70          1           0        2.024682    1.201100    5.567419
     71          1           0        1.343680   -0.456049    5.696969
     72          1           0        2.475529    0.016422    4.351458
     73          1           0        4.665796   -5.591090    3.059116
     74          1           0        4.887972   -4.434224    4.419764
     75          1           0        6.345629   -5.040809    3.529341
     76          1           0        7.267382   -4.017762   -1.397445
     77          1           0        5.835794   -6.097588   -4.896641
     78          1           0        5.635885   -4.311538   -5.396434
     79          1           0        4.419281   -5.269202   -4.531283
     80         12           0       -4.986274    0.437046   -1.096475
     81          6           0       -7.192034   -1.670196    0.793831
     82          6           0       -7.285845    2.928062   -0.720385
     83          6           0       -3.284978    2.179237   -3.130625
     84          6           0       -3.450486   -2.461690   -2.273095
     85          7           0       -6.946519    0.499130   -0.073796
     86          6           0       -7.653951   -0.343932    0.663170
     87          6           0       -8.886429    0.290498    1.361798
     88          6           0       -9.116332    1.529039    0.365786
     89          6           0       -7.689660    1.692473   -0.154382
     90          6           0      -10.018460    1.195692   -0.810819
     91          6           0       -8.563318    0.776896    2.818174
     92          6           0       -9.788511    1.122604    3.667386
     93          1           0       -9.749807    0.828436    5.097220
     94          7           0       -4.985310    2.394713   -1.422201
     95          6           0       -5.996111    3.258548   -1.191228
     96          6           0       -5.502995    4.577752   -1.616341
     97          6           0       -4.178568    4.395135   -2.269992
     98          6           0       -4.106159    2.948618   -2.319294
     99          6           0       -6.234421    5.854434   -1.318824
    100          6           0       -3.153344    5.362375   -2.779471
    101          8           0       -2.182826    4.983704   -3.526159
    102          6           0       -3.371368    6.779819   -2.455753
    103          7           0       -3.712169   -0.065511   -2.660577
    104          6           0       -3.057706    0.884304   -3.351559
    105          6           0       -1.995303    0.279521   -4.238087
    106          6           0       -1.909214   -1.260631   -3.816070
    107          6           0       -3.049072   -1.301768   -2.774720
    108          6           0       -2.246921    0.381457   -5.742313
    109          6           0       -0.512157   -1.800526   -3.404441
    110          6           0       -0.072032   -1.158444   -2.108521
    111          7           0       -5.124020   -1.677363   -0.674122
    112          6           0       -4.407956   -2.720769   -1.300713
    113          6           0       -4.926410   -3.992586   -0.756538
    114          6           0       -5.931983   -3.598537    0.139036
    115          6           0       -6.046886   -2.182102    0.137066
    116          6           0       -4.499990   -5.295943   -1.138039
    117          6           0       -6.929640   -4.059254    1.077708
    118          8           0       -7.234300   -5.151398    1.555333
    119          6           0       -7.876128   -2.837614    1.449396
    120          6           0       -8.031607   -2.808860    2.945231
    121          8           0       -7.055450   -2.569591    3.677666
    122          8           0       -9.340700   -2.852267    3.253079
    123          6           0       -9.546527   -2.814918    4.725513
    124          1           0       -8.037065    3.706525   -0.856564
    125          1           0       -2.598879    2.737487   -3.771803
    126          1           0       -2.956998   -3.405039   -2.516469
    127          1           0       -9.769051   -0.337397    1.384238
    128          1           0       -9.429101    2.418264    0.906894
    129          1           0      -10.261619    0.144161   -0.846813
    130          1           0       -9.467739    1.487163   -1.695578
    131          1           0      -10.912240    1.825838   -0.790934
    132          1           0       -8.084836    1.763457    2.768296
    133          1           0       -7.957122    0.058010    3.334261
    134          1           0      -10.717782    0.746329    3.222627
    135          1           0       -9.913321    2.208158    3.670693
    136          1           0       -7.257322    5.660790   -0.973026
    137          1           0       -6.364525    6.378029   -2.272127
    138          1           0       -5.687284    6.502923   -0.631235
    139          1           0       -4.333695    7.096580   -2.850762
    140          1           0       -2.488898    7.303709   -2.828117
    141          1           0       -3.428135    6.885205   -1.366583
    142          1           0       -1.033727    0.746184   -4.062840
    143          1           0       -2.210723   -1.925918   -4.638457
    144          1           0       -1.430273    0.890840   -6.287913
    145          1           0       -3.186221    0.895527   -5.897202
    146          1           0       -2.417041   -0.567797   -6.247451
    147          1           0        0.234753   -1.529262   -4.154568
    148          1           0       -0.481216   -2.879400   -3.294636
    149          1           0        0.352552   -0.205139   -2.437179
    150          1           0        0.675630   -1.772953   -1.611115
    151          1           0       -0.933116   -0.932715   -1.468812
    152          1           0       -4.400406   -5.870179   -0.226538
    153          1           0       -3.563960   -5.261862   -1.691627
    154          1           0       -5.339539   -5.598792   -1.769466
    155          1           0       -8.828565   -2.994840    0.941750
    156          1           0      -10.144165   -3.693638    4.986976
    157          1           0       -9.987785   -1.823523    4.940427
    158          1           0       -8.676926   -2.955092    5.356858
 ---------------------------------------------------------------------

 SCF Done:  E(RCAM-B3LYP) =  -4069.81262175     A.U. after   19 cycles

 Excitation energies and oscillator strengths:

 Excited State   1:      Singlet-A      1.6552 eV  749.05 nm  f=0.0059  <S**2>=0.000
     309 -> 315       -0.11159
     310 -> 316        0.12668
     311 -> 313       -0.45231
     312 -> 314        0.51735
 This state for optimization and/or second-order correction.
 Total Energy, E(TD-HF/TD-DFT) =  -4069.75179324
 Copying the excited state density for this state as the 1-particle RhoCI density.

 Excited State   2:      Singlet-A      1.6960 eV  731.06 nm  f=0.7155  <S**2>=0.000
     309 -> 315        0.13542
     310 -> 316        0.11749
     311 -> 313        0.51550
     312 -> 314        0.45071

 Excited State   3:      Singlet-A      2.1831 eV  567.92 nm  f=0.0614  <S**2>=0.000
     309 -> 313        0.18832
     310 -> 314        0.61537
     312 -> 316       -0.25899

 Excited State   4:      Singlet-A      2.1945 eV  564.98 nm  f=0.1298  <S**2>=0.000
     309 -> 313        0.61242
     310 -> 314       -0.18607
     311 -> 315       -0.26739

 Excited State   5:      Singlet-A      2.5454 eV  487.09 nm  f=0.0000  <S**2>=0.000
     312 -> 313        0.70689

 The electronic state is 1-A.
 Alpha  occ. eigenvalues --  -46.87709 -46.87463 -19.26371 -19.26223 -19.19130
 Alpha  occ. eigenvalues --  -19.19024 -19.18711 -19.18603 -19.18123 -19.17882
 Alpha  occ. eigenvalues --  -14.42374 -14.42310 -14.41358 -14.41142 -14.39311
 Alpha  occ. eigenvalues --  -14.39164 -14.38505 -14.38400 -10.39170 -10.38951
 Alpha  occ. eigenvalues --  -10.35343 -10.35285 -10.34349 -10.34059 -10.31782
 Alpha  occ. eigenvalues --  -10.31648 -10.31340 -10.31116 -10.30862 -10.30845
 Alpha  occ. eigenvalues --  -10.30489 -10.30419 -10.30196 -10.30155 -10.30097
 Alpha  occ. eigenvalues --  -10.29910 -10.29831 -10.29668 -10.29541 -10.29249
 Alpha  occ. eigenvalues --  -10.29208 -10.29154 -10.28733 -10.28591 -10.28576
 Alpha  occ. eigenvalues --  -10.28545 -10.28290 -10.28231 -10.28077 -10.27990
 Alpha  occ. eigenvalues --  -10.27815 -10.27704 -10.27643 -10.27489 -10.27482
 Alpha  occ. eigenvalues --  -10.27370 -10.27348 -10.27340 -10.27335 -10.27328
 Alpha  occ. eigenvalues --  -10.27300 -10.27286 -10.27164 -10.27148 -10.27112
 Alpha  occ. eigenvalues --  -10.26891 -10.26746 -10.26564 -10.26352 -10.26281
 Alpha  occ. eigenvalues --  -10.26189 -10.26010 -10.25916 -10.25889 -10.25732
 Alpha  occ. eigenvalues --  -10.25685 -10.25581 -10.25553 -10.25334 -10.25217
 Alpha  occ. eigenvalues --  -10.24753 -10.24700 -10.24688 -10.24495 -10.24477
 Alpha  occ. eigenvalues --  -10.24084  -3.16452  -3.16213  -1.91333  -1.91095
 Alpha  occ. eigenvalues --   -1.90920  -1.90762  -1.90683  -1.90521  -1.16720
 Alpha  occ. eigenvalues --   -1.16514  -1.08592  -1.08491  -1.07112  -1.06861
 Alpha  occ. eigenvalues --   -1.06809  -1.06739  -1.04509  -1.04312  -1.03672
 Alpha  occ. eigenvalues --   -1.03466  -1.03145  -1.02829  -1.02325  -1.01911
 Alpha  occ. eigenvalues --   -0.91916  -0.91804  -0.89409  -0.89212  -0.89155
 Alpha  occ. eigenvalues --   -0.88986  -0.88177  -0.87921  -0.87780  -0.87601
 Alpha  occ. eigenvalues --   -0.87582  -0.87490  -0.87166  -0.86967  -0.84942
 Alpha  occ. eigenvalues --   -0.84836  -0.83826  -0.83556  -0.82852  -0.82762
 Alpha  occ. eigenvalues --   -0.82598  -0.82472  -0.81571  -0.81418  -0.80542
 Alpha  occ. eigenvalues --   -0.80266  -0.78697  -0.78455  -0.77138  -0.76949
 Alpha  occ. eigenvalues --   -0.76896  -0.76679  -0.75882  -0.75666  -0.74808
 Alpha  occ. eigenvalues --   -0.74565  -0.72686  -0.72486  -0.71603  -0.71395
 Alpha  occ. eigenvalues --   -0.69770  -0.69367  -0.68821  -0.68652  -0.67570
 Alpha  occ. eigenvalues --   -0.67420  -0.67183  -0.67058  -0.65250  -0.65104
 Alpha  occ. eigenvalues --   -0.64799  -0.64564  -0.64563  -0.64460  -0.64166
 Alpha  occ. eigenvalues --   -0.63902  -0.62294  -0.62092  -0.60338  -0.60158
 Alpha  occ. eigenvalues --   -0.59753  -0.59629  -0.58914  -0.58789  -0.58436
 Alpha  occ. eigenvalues --   -0.58223  -0.57575  -0.57386  -0.57226  -0.57014
 Alpha  occ. eigenvalues --   -0.56239  -0.56011  -0.55992  -0.55729  -0.55442
 Alpha  occ. eigenvalues --   -0.55303  -0.55273  -0.55003  -0.54482  -0.54221
 Alpha  occ. eigenvalues --   -0.53867  -0.53758  -0.53212  -0.53168  -0.53045
 Alpha  occ. eigenvalues --   -0.52961  -0.52888  -0.52721  -0.52669  -0.52542
 Alpha  occ. eigenvalues --   -0.52295  -0.51942  -0.51826  -0.51647  -0.51574
 Alpha  occ. eigenvalues --   -0.51514  -0.51131  -0.50973  -0.50448  -0.50328
 Alpha  occ. eigenvalues --   -0.49919  -0.49828  -0.49816  -0.49569  -0.49457
 Alpha  occ. eigenvalues --   -0.49337  -0.49156  -0.49052  -0.49043  -0.48925
 Alpha  occ. eigenvalues --   -0.48560  -0.48395  -0.48387  -0.48353  -0.48209
 Alpha  occ. eigenvalues --   -0.48143  -0.47623  -0.47408  -0.47216  -0.46945
 Alpha  occ. eigenvalues --   -0.46715  -0.46523  -0.46490  -0.46383  -0.46279
 Alpha  occ. eigenvalues --   -0.46092  -0.46051  -0.45873  -0.45784  -0.45629
 Alpha  occ. eigenvalues --   -0.45102  -0.44965  -0.44531  -0.44426  -0.44360
 Alpha  occ. eigenvalues --   -0.44269  -0.44067  -0.44021  -0.43969  -0.43953
 Alpha  occ. eigenvalues --   -0.43799  -0.43783  -0.43467  -0.43341  -0.43320
 Alpha  occ. eigenvalues --   -0.43202  -0.42957  -0.42767  -0.42733  -0.42705
 Alpha  occ. eigenvalues --   -0.42541  -0.42270  -0.41920  -0.41656  -0.41640
 Alpha  occ. eigenvalues --   -0.41488  -0.41475  -0.41234  -0.41074  -0.40809
 Alpha  occ. eigenvalues --   -0.40809  -0.40738  -0.40600  -0.40496  -0.40468
 Alpha  occ. eigenvalues --   -0.40228  -0.40163  -0.40096  -0.39295  -0.39010
 Alpha  occ. eigenvalues --   -0.38373  -0.38081  -0.37737  -0.37496  -0.37223
 Alpha  occ. eigenvalues --   -0.37219  -0.37040  -0.36988  -0.36748  -0.36603
 Alpha  occ. eigenvalues --   -0.36150  -0.35982  -0.34208  -0.34054  -0.33847
 Alpha  occ. eigenvalues --   -0.33714  -0.33112  -0.32976  -0.31244  -0.31161
 Alpha  occ. eigenvalues --   -0.30962  -0.30783  -0.29987  -0.29785  -0.29354
 Alpha  occ. eigenvalues --   -0.29237  -0.29154  -0.29020  -0.24002  -0.23838
 Alpha  occ. eigenvalues --   -0.21040  -0.20918
 Alpha virt. eigenvalues --   -0.08686  -0.08604  -0.01660  -0.01487   0.00029
 Alpha virt. eigenvalues --    0.00120   0.02270   0.02399   0.03108   0.03493
 Alpha virt. eigenvalues --    0.04768   0.04906   0.05022   0.05308   0.06157

 Mulliken charges:
               1
     1  Mg   0.838756
     2  C   -0.004166
     3  C   -0.093855
     4  C   -0.045631
     5  C   -0.063376
     6  N   -0.256814
     7  C   -0.052993
     8  C   -0.013877
     9  C   -0.087054
    10  C    0.046237
    11  C    0.104800
    12  C    0.053277
    13  C   -0.071498
    14  H    0.034250
    15  N   -0.433268
    16  C    0.168916
    17  C   -0.176414
    18  C   -0.003508
    19  C    0.148970
    20  C    0.109943
    21  C    0.012739
    22  O   -0.249874
    23  C    0.061932
    24  N   -0.341193
    25  C    0.041432
    26  C   -0.028161
    27  C   -0.024026
    28  C    0.074839
    29  C    0.076240
    30  C    0.034984
    31  C   -0.004746
    32  N   -0.310434
    33  C    0.080269
    34  C   -0.169397
    35  C    0.008107
    36  C    0.082462
    37  C    0.127317
    38  C    0.045361
    39  O   -0.188885
    40  C   -0.005165
    41  C    0.213654
    42  O   -0.260033
    43  O   -0.304122
    44  C    0.157932
    45  H   -0.017622
    46  H   -0.016794
    47  H   -0.040982
    48  H    0.000774
    49  H   -0.003894
    50  H    0.025383
    51  H    0.016679
    52  H    0.016648
    53  H    0.011668
    54  H    0.041948
    55  H    0.018367
    56  H    0.018731
    57  H    0.005783
    58  H    0.026471
    59  H    0.041448
    60  H    0.037095
    61  H    0.035063
    62  H    0.033354
    63  H    0.016760
    64  H    0.009332
    65  H    0.023099
    66  H    0.012295
    67  H    0.004745
    68  H    0.006252
    69  H    0.005236
    70  H    0.008395
    71  H    0.020281
    72  H    0.028769
    73  H    0.047687
    74  H    0.009831
    75  H    0.045781
    76  H    0.035299
    77  H    0.043459
    78  H    0.046534
    79  H    0.052072
    80  Mg   0.837808
    81  C   -0.017303
    82  C   -0.088183
    83  C   -0.045769
    84  C   -0.064182
    85  N   -0.254578
    86  C   -0.049825
    87  C   -0.015085
    88  C   -0.090436
    89  C    0.045581
    90  C    0.114527
    91  C    0.062590
    92  C   -0.077641
    93  H    0.034413
    94  N   -0.423293
    95  C    0.162679
    96  C   -0.175040
    97  C   -0.008330
    98  C    0.152060
    99  C    0.099468
   100  C    0.015139
   101  O   -0.254794
   102  C    0.061490
   103  N   -0.350365
   104  C    0.037754
   105  C   -0.019113
   106  C   -0.035941
   107  C    0.089625
   108  C    0.074325
   109  C    0.035846
   110  C   -0.012315
   111  N   -0.324290
   112  C    0.078971
   113  C   -0.162052
   114  C    0.001984
   115  C    0.096583
   116  C    0.131000
   117  C    0.042503
   118  O   -0.187941
   119  C    0.000888
   120  C    0.211235
   121  O   -0.251104
   122  O   -0.305667
   123  C    0.152157
   124  H   -0.020340
   125  H   -0.016634
   126  H   -0.037974
   127  H   -0.000925
   128  H   -0.004704
   129  H    0.022252
   130  H    0.014344
   131  H    0.015775
   132  H    0.013975
   133  H    0.037602
   134  H    0.020625
   135  H    0.019429
   136  H    0.008500
   137  H    0.025342
   138  H    0.039348
   139  H    0.038168
   140  H    0.034468
   141  H    0.034251
   142  H    0.013650
   143  H    0.011802
   144  H    0.023296
   145  H    0.010775
   146  H    0.005387
   147  H    0.006190
   148  H    0.009566
   149  H    0.006518
   150  H    0.032530
   151  H    0.026382
   152  H    0.046555
   153  H    0.011277
   154  H    0.046286
   155  H    0.034663
   156  H    0.043691
   157  H    0.049307
   158  H    0.053373
 Sum of Mulliken charges =  -0.00000

 Dipole moment (field-independent basis, Debye):
    X=              0.3268    Y=              6.8224    Z=             -2.7864  Tot=              7.3767
 Quadrupole moment (field-independent basis, Debye-Ang):
   XX=           -445.8896   YY=           -539.4752   ZZ=           -481.4221
   XY=            -21.7470   XZ=            -18.5961   YZ=              3.3391

 Normal termination of Gaussian 16 at Fri Sep 10 11:16:57 2021.
