 Gaussian 16, Revision A.03,
 Gaussian 16:  ES64L-G16RevA.03 25-Dec-2016

 -----------------------------------
 #p cam-b3lyp/Def2SVP td=(nstates=5)
 -----------------------------------

 --------------------------------
 TDDFT excited states in gaussian
 --------------------------------
 Symbolic Z-matrix:
 Charge =  0 Multiplicity = 1

                         Standard orientation:
 ---------------------------------------------------------------------
 Center     Atomic      Atomic             Coordinates (Angstroms)
 Number     Number       Type             X           Y           Z
 ---------------------------------------------------------------------
      1         12           0       -3.702077    0.660086    1.125428
      2          6           0       -4.755188   -1.907795   -1.134916
      3          6           0       -3.873514   -1.667436    3.614668
      4          6           0       -3.216847    3.005736    3.203672
      5          6           0       -4.700381    2.979135   -1.276875
      6          7           0       -4.255182   -1.483422    1.115685
      7          6           0       -4.581375   -2.363129    0.173940
      8          6           0       -4.647518   -3.829948    0.694942
      9          6           0       -4.917138   -3.536814    2.238760
     10          6           0       -4.279953   -2.162152    2.339875
     11          6           0       -6.397436   -3.418866    2.587053
     12          6           0       -3.298796   -4.597013    0.484486
     13          6           0       -3.376344   -6.116068    0.662841
     14          1           0       -2.553526   -6.963815   -0.186656
     15          7           0       -3.098341    0.601494    3.005566
     16          6           0       -3.235105   -0.434129    3.868158
     17          6           0       -2.627758    0.012184    5.140406
     18          6           0       -2.297212    1.457973    5.004287
     19          6           0       -2.889134    1.756474    3.725263
     20          6           0       -2.372749   -0.905101    6.296826
     21          6           0       -1.573326    2.420676    5.891601
     22          8           0       -1.598863    3.682889    5.689760
     23          6           0       -0.897652    1.847580    7.069764
     24          7           0       -4.125128    2.703850    1.084313
     25          6           0       -3.757295    3.505041    2.090184
     26          6           0       -3.907708    4.950746    1.719709
     27          6           0       -4.227793    4.975264    0.155517
     28          6           0       -4.289310    3.448549   -0.096731
     29          6           0       -4.996004    5.725580    2.475525
     30          6           0       -3.298704    5.833786   -0.738996
     31          6           0       -1.913540    5.227652   -0.770907
     32          7           0       -4.409054    0.585483   -0.925343
     33          6           0       -4.787946    1.672255   -1.726619
     34          6           0       -5.296838    1.117516   -2.994436
     35          6           0       -5.193402   -0.262980   -2.835137
     36          6           0       -4.678622   -0.552973   -1.539298
     37          6           0       -5.828576    1.869263   -4.079132
     38          6           0       -5.421086   -1.561173   -3.448906
     39          8           0       -5.755902   -1.943007   -4.571222
     40          6           0       -5.260947   -2.680537   -2.327653
     41          6           0       -4.380142   -3.763339   -2.888929
     42          8           0       -3.176737   -3.544800   -3.136766
     43          8           0       -5.023746   -4.938890   -2.822640
     44          6           0       -4.193548   -6.060750   -3.336796
     45          1           0       -4.117089   -2.246389    4.507655
     46          1           0       -2.961133    3.849696    3.847707
     47          1           0       -4.950295    3.644294   -2.105464
     48          1           0       -5.462999   -4.423070    0.280671
     49          1           0       -4.396719   -4.244110    2.884220
     50          1           0       -7.019240   -3.427556    1.691953
     51          1           0       -6.498237   -2.468398    3.111402
     52          1           0       -6.689556   -4.188141    3.302358
     53          1           0       -2.614248   -4.349657    1.295825
     54          1           0       -2.874576   -4.370113   -0.494227
     55          1           0       -4.409394   -6.464943    0.664660
     56          1           0       -3.005441   -6.362515    1.657775
     57          1           0       -2.871668   -1.864356    6.164713
     58          1           0       -2.858828   -0.463630    7.166619
     59          1           0       -1.308023   -1.029929    6.494586
     60          1           0       -1.631809    1.335092    7.691792
     61          1           0       -0.358869    2.670866    7.537485
     62          1           0       -0.192708    1.085383    6.736507
     63          1           0       -2.985208    5.499732    1.904187
     64          1           0       -5.226507    5.360415   -0.051613
     65          1           0       -4.623122    6.606583    2.998495
     66          1           0       -5.481692    5.037063    3.166425
     67          1           0       -5.837583    6.047022    1.862470
     68          1           0       -3.199879    6.838307   -0.328975
     69          1           0       -3.655503    5.927863   -1.764713
     70          1           0       -1.454176    5.622379    0.134636
     71          1           0       -1.373794    5.558777   -1.658737
     72          1           0       -1.951348    4.142737   -0.670824
     73          1           0       -5.408881    1.434570   -4.986252
     74          1           0       -5.574051    2.925261   -3.991453
     75          1           0       -6.894827    1.684560   -3.949318
     76          1           0       -6.263057   -3.043858   -2.102050
     77          1           0       -4.767634   -6.550648   -4.123345
     78          1           0       -3.909636   -6.658504   -2.470488
     79          1           0       -3.291859   -5.782092   -3.883281
     80         12           0        3.833617    0.411009   -1.379088
     81          6           0        4.393647   -2.022461    1.198446
     82          6           0        3.805389    2.782093    1.072804
     83          6           0        2.895094    2.514281   -3.561480
     84          6           0        2.781272   -2.204818   -3.427414
     85          7           0        4.079519    0.273872    0.814767
     86          6           0        4.348589   -0.695980    1.675776
     87          6           0        4.661913   -0.208890    3.115954
     88          6           0        3.891448    1.199239    3.066516
     89          6           0        3.955549    1.460273    1.563041
     90          6           0        2.430311    1.100348    3.472260
     91          6           0        6.199647   -0.014024    3.359741
     92          6           0        6.601254    0.160645    4.826015
     93          1           0        7.871532   -0.405093    5.271895
     94          7           0        3.889962    2.394692   -1.358699
     95          6           0        3.895849    3.197473   -0.273899
     96          6           0        3.921849    4.574002   -0.792205
     97          6           0        3.764434    4.521432   -2.271109
     98          6           0        3.483390    3.111896   -2.456343
     99          6           0        4.163485    5.768879    0.083769
    100          6           0        3.840025    5.568983   -3.340287
    101          8           0        3.435148    5.342131   -4.535039
    102          6           0        4.315015    6.896816   -2.924695
    103          7           0        2.766341    0.221037   -3.153110
    104          6           0        2.539747    1.286712   -3.941090
    105          6           0        1.998760    0.865143   -5.286454
    106          6           0        2.137375   -0.727617   -5.325331
    107          6           0        2.675516   -0.969705   -3.898026
    108          6           0        0.549296    1.256724   -5.573005
    109          6           0        2.917035   -1.337176   -6.522506
    110          6           0        4.377884   -0.958495   -6.433564
    111          7           0        3.788434   -1.745143   -1.248677
    112          6           0        3.282114   -2.647385   -2.209764
    113          6           0        3.364667   -4.000501   -1.622669
    114          6           0        3.896142   -3.787427   -0.341800
    115          6           0        4.109561   -2.397466   -0.137006
    116          6           0        2.932049   -5.205241   -2.245228
    117          6           0        4.315221   -4.421257    0.887555
    118          8           0        4.445920   -5.585238    1.264101
    119          6           0        4.537811   -3.294741    1.986564
    120          6           0        5.857438   -3.556449    2.659320
    121          8           0        6.921233   -3.463768    2.021864
    122          8           0        5.662705   -3.658589    3.986732
    123          6           0        6.944433   -3.907324    4.698875
    124          1           0        3.552511    3.572257    1.780326
    125          1           0        2.654570    3.186166   -4.388640
    126          1           0        2.564340   -3.083152   -4.039089
    127          1           0        4.252705   -0.829144    3.904380
    128          1           0        4.436014    1.966749    3.610332
    129          1           0        2.119920    0.075759    3.613737
    130          1           0        1.869911    1.557737    2.667402
    131          1           0        2.242470    1.714776    4.357427
    132          1           0        6.503898    0.963457    2.963883
    133          1           0        6.759347   -0.819369    2.925248
    134          1           0        5.792958   -0.122213    5.511290
    135          1           0        6.756071    1.224975    5.018990
    136          1           0        4.078822    5.511976    1.146883
    137          1           0        3.338481    6.467330   -0.093428
    138          1           0        5.106611    6.271742   -0.140510
    139          1           0        3.665872    7.284231   -2.143027
    140          1           0        4.384817    7.482870   -3.843136
    141          1           0        5.311379    6.789109   -2.481674
    142          1           0        2.588132    1.288904   -6.090301
    143          1           0        1.155706   -1.220859   -5.378922
    144          1           0        0.434231    1.862127   -6.491870
    145          1           0        0.164061    1.791150   -4.714797
    146          1           0       -0.146134    0.423398   -5.657474
    147          1           0        2.546563   -0.925728   -7.464638
    148          1           0        2.833420   -2.416878   -6.587623
    149          1           0        4.401469    0.040399   -6.879372
    150          1           0        4.990041   -1.657831   -6.999473
    151          1           0        4.696293   -0.860964   -5.389174
    152          1           0        3.698666   -5.945276   -2.057742
    153          1           0        2.766391   -5.064591   -3.311313
    154          1           0        1.998191   -5.379886   -1.704228
    155          1           0        3.703255   -3.350507    2.686551
    156          1           0        6.810815   -4.820003    5.287798
    157          1           0        7.162676   -2.976349    5.255111
    158          1           0        7.808780   -4.167293    4.099080
 ---------------------------------------------------------------------

 SCF Done:  E(RCAM-B3LYP) =  -4069.81277337     A.U. after   19 cycles

 Excitation energies and oscillator strengths:

 Excited State   1:      Singlet-A      1.6681 eV  743.28 nm  f=0.3345  <S**2>=0.000
     310 -> 316       -0.16715
     311 -> 313       -0.15725
     312 -> 314        0.66751
     310 <- 316       -0.10148
 This state for optimization and/or second-order correction.
 Total Energy, E(TD-HF/TD-DFT) =  -4069.75147309
 Copying the excited state density for this state as the 1-particle RhoCI density.

 Excited State   2:      Singlet-A      1.6713 eV  741.83 nm  f=0.3100  <S**2>=0.000
     309 -> 315       -0.16754
     311 -> 313        0.66715
     312 -> 314        0.15771
     309 <- 315       -0.10105

 Excited State   3:      Singlet-A      2.1827 eV  568.04 nm  f=0.1002  <S**2>=0.000
     309 -> 313        0.16145
     310 -> 314        0.62230
     312 -> 316        0.26218

 Excited State   4:      Singlet-A      2.1897 eV  566.21 nm  f=0.0979  <S**2>=0.000
     309 -> 313        0.62043
     310 -> 314       -0.16076
     311 -> 315        0.26657

 Excited State   5:      Singlet-A      2.2320 eV  555.49 nm  f=0.0000  <S**2>=0.000
     312 -> 313        0.70694

 The electronic state is 1-A.
 Alpha  occ. eigenvalues --  -46.87933 -46.87415 -19.26426 -19.26321 -19.19191
 Alpha  occ. eigenvalues --  -19.19095 -19.19079 -19.18533 -19.18335 -19.17914
 Alpha  occ. eigenvalues --  -14.42574 -14.42265 -14.41587 -14.41076 -14.39554
 Alpha  occ. eigenvalues --  -14.39116 -14.38727 -14.38359 -10.39243 -10.39020
 Alpha  occ. eigenvalues --  -10.35716 -10.35214 -10.34551 -10.34094 -10.31803
 Alpha  occ. eigenvalues --  -10.31763 -10.31515 -10.31085 -10.31039 -10.30826
 Alpha  occ. eigenvalues --  -10.30702 -10.30667 -10.30354 -10.30152 -10.30120
 Alpha  occ. eigenvalues --  -10.30065 -10.29817 -10.29793 -10.29595 -10.29411
 Alpha  occ. eigenvalues --  -10.29179 -10.29169 -10.28814 -10.28606 -10.28594
 Alpha  occ. eigenvalues --  -10.28516 -10.28491 -10.28194 -10.28182 -10.27978
 Alpha  occ. eigenvalues --  -10.27951 -10.27849 -10.27783 -10.27760 -10.27637
 Alpha  occ. eigenvalues --  -10.27626 -10.27602 -10.27542 -10.27418 -10.27304
 Alpha  occ. eigenvalues --  -10.27266 -10.27254 -10.27242 -10.27042 -10.26957
 Alpha  occ. eigenvalues --  -10.26938 -10.26729 -10.26720 -10.26592 -10.26297
 Alpha  occ. eigenvalues --  -10.26277 -10.26277 -10.26151 -10.25976 -10.25880
 Alpha  occ. eigenvalues --  -10.25733 -10.25614 -10.25598 -10.25584 -10.24990
 Alpha  occ. eigenvalues --  -10.24945 -10.24861 -10.24754 -10.24662 -10.24432
 Alpha  occ. eigenvalues --  -10.24402  -3.16675  -3.16166  -1.91557  -1.91143
 Alpha  occ. eigenvalues --   -1.91048  -1.90986  -1.90636  -1.90473  -1.16779
 Alpha  occ. eigenvalues --   -1.16605  -1.08792  -1.08535  -1.07488  -1.06882
 Alpha  occ. eigenvalues --   -1.06808  -1.06790  -1.04708  -1.04274  -1.03899
 Alpha  occ. eigenvalues --   -1.03416  -1.03382  -1.02768  -1.02555  -1.01856
 Alpha  occ. eigenvalues --   -0.92114  -0.91786  -0.89650  -0.89259  -0.89189
 Alpha  occ. eigenvalues --   -0.88981  -0.88421  -0.88013  -0.87872  -0.87789
 Alpha  occ. eigenvalues --   -0.87560  -0.87464  -0.87435  -0.86911  -0.85076
 Alpha  occ. eigenvalues --   -0.84819  -0.84066  -0.83545  -0.83186  -0.82769
 Alpha  occ. eigenvalues --   -0.82709  -0.82467  -0.81717  -0.81446  -0.80740
 Alpha  occ. eigenvalues --   -0.80259  -0.78961  -0.78412  -0.77336  -0.77028
 Alpha  occ. eigenvalues --   -0.76942  -0.76680  -0.76032  -0.75666  -0.75030
 Alpha  occ. eigenvalues --   -0.74469  -0.72910  -0.72451  -0.71801  -0.71325
 Alpha  occ. eigenvalues --   -0.70020  -0.69398  -0.68986  -0.68645  -0.67800
 Alpha  occ. eigenvalues --   -0.67382  -0.67315  -0.67047  -0.65380  -0.65107
 Alpha  occ. eigenvalues --   -0.64988  -0.64741  -0.64548  -0.64450  -0.64400
 Alpha  occ. eigenvalues --   -0.63883  -0.62436  -0.62117  -0.60618  -0.60096
 Alpha  occ. eigenvalues --   -0.59903  -0.59617  -0.59124  -0.58747  -0.58647
 Alpha  occ. eigenvalues --   -0.58201  -0.57733  -0.57464  -0.57418  -0.56977
 Alpha  occ. eigenvalues --   -0.56460  -0.56105  -0.56000  -0.55753  -0.55692
 Alpha  occ. eigenvalues --   -0.55475  -0.55291  -0.54985  -0.54658  -0.54225
 Alpha  occ. eigenvalues --   -0.53974  -0.53760  -0.53470  -0.53356  -0.53068
 Alpha  occ. eigenvalues --   -0.53008  -0.52956  -0.52910  -0.52727  -0.52553
 Alpha  occ. eigenvalues --   -0.52498  -0.52064  -0.52058  -0.51732  -0.51648
 Alpha  occ. eigenvalues --   -0.51505  -0.51323  -0.50993  -0.50782  -0.50271
 Alpha  occ. eigenvalues --   -0.50157  -0.50100  -0.49791  -0.49653  -0.49531
 Alpha  occ. eigenvalues --   -0.49368  -0.49307  -0.49193  -0.49034  -0.48930
 Alpha  occ. eigenvalues --   -0.48724  -0.48658  -0.48598  -0.48393  -0.48170
 Alpha  occ. eigenvalues --   -0.48040  -0.47830  -0.47447  -0.47378  -0.46916
 Alpha  occ. eigenvalues --   -0.46868  -0.46644  -0.46500  -0.46477  -0.46345
 Alpha  occ. eigenvalues --   -0.46301  -0.46024  -0.45948  -0.45808  -0.45638
 Alpha  occ. eigenvalues --   -0.45338  -0.44876  -0.44728  -0.44652  -0.44346
 Alpha  occ. eigenvalues --   -0.44285  -0.44269  -0.44179  -0.44172  -0.43952
 Alpha  occ. eigenvalues --   -0.43824  -0.43773  -0.43634  -0.43494  -0.43399
 Alpha  occ. eigenvalues --   -0.43170  -0.43160  -0.42844  -0.42815  -0.42780
 Alpha  occ. eigenvalues --   -0.42666  -0.42250  -0.42117  -0.41847  -0.41714
 Alpha  occ. eigenvalues --   -0.41617  -0.41462  -0.41266  -0.41251  -0.41053
 Alpha  occ. eigenvalues --   -0.40944  -0.40764  -0.40689  -0.40559  -0.40502
 Alpha  occ. eigenvalues --   -0.40278  -0.40160  -0.40107  -0.39550  -0.39060
 Alpha  occ. eigenvalues --   -0.38586  -0.38029  -0.37817  -0.37502  -0.37448
 Alpha  occ. eigenvalues --   -0.37354  -0.37022  -0.36946  -0.36858  -0.36655
 Alpha  occ. eigenvalues --   -0.36324  -0.35939  -0.34423  -0.34017  -0.33940
 Alpha  occ. eigenvalues --   -0.33760  -0.33332  -0.32922  -0.31604  -0.31179
 Alpha  occ. eigenvalues --   -0.31088  -0.30737  -0.30190  -0.29823  -0.29624
 Alpha  occ. eigenvalues --   -0.29477  -0.29111  -0.28994  -0.24218  -0.23784
 Alpha  occ. eigenvalues --   -0.21269  -0.20866
 Alpha virt. eigenvalues --   -0.08931  -0.08558  -0.01902  -0.01424  -0.00250
 Alpha virt. eigenvalues --    0.00161   0.02033   0.02334   0.02554   0.03590
 Alpha virt. eigenvalues --    0.04620   0.04939   0.04958   0.05250   0.06108

 Mulliken charges:
               1
     1  Mg   0.839023
     2  C   -0.002827
     3  C   -0.093256
     4  C   -0.046804
     5  C   -0.063595
     6  N   -0.256898
     7  C   -0.051733
     8  C   -0.014239
     9  C   -0.087202
    10  C    0.046527
    11  C    0.104716
    12  C    0.053129
    13  C   -0.072592
    14  H    0.037433
    15  N   -0.433115
    16  C    0.168171
    17  C   -0.177340
    18  C   -0.004823
    19  C    0.148496
    20  C    0.109928
    21  C    0.010555
    22  O   -0.251081
    23  C    0.062086
    24  N   -0.341285
    25  C    0.041775
    26  C   -0.027911
    27  C   -0.023996
    28  C    0.075255
    29  C    0.076216
    30  C    0.035059
    31  C   -0.004811
    32  N   -0.310584
    33  C    0.080767
    34  C   -0.169965
    35  C    0.007892
    36  C    0.083154
    37  C    0.127454
    38  C    0.045407
    39  O   -0.188552
    40  C   -0.005173
    41  C    0.213133
    42  O   -0.258628
    43  O   -0.304294
    44  C    0.157955
    45  H   -0.017075
    46  H   -0.017787
    47  H   -0.040912
    48  H    0.001057
    49  H   -0.002930
    50  H    0.025428
    51  H    0.016211
    52  H    0.017245
    53  H    0.012599
    54  H    0.043216
    55  H    0.017542
    56  H    0.019780
    57  H    0.007123
    58  H    0.026920
    59  H    0.038844
    60  H    0.038751
    61  H    0.034150
    62  H    0.030099
    63  H    0.015068
    64  H    0.009747
    65  H    0.022646
    66  H    0.012725
    67  H    0.005188
    68  H    0.005573
    69  H    0.005897
    70  H    0.005120
    71  H    0.022382
    72  H    0.029622
    73  H    0.047037
    74  H    0.009951
    75  H    0.046389
    76  H    0.035693
    77  H    0.043255
    78  H    0.047586
    79  H    0.052115
    80  Mg   0.837202
    81  C   -0.017507
    82  C   -0.088626
    83  C   -0.045802
    84  C   -0.058552
    85  N   -0.254740
    86  C   -0.050234
    87  C   -0.014853
    88  C   -0.090978
    89  C    0.044787
    90  C    0.112564
    91  C    0.062751
    92  C   -0.077343
    93  H    0.034241
    94  N   -0.423511
    95  C    0.162571
    96  C   -0.174542
    97  C   -0.008418
    98  C    0.152332
    99  C    0.099390
   100  C    0.014641
   101  O   -0.253619
   102  C    0.061425
   103  N   -0.350211
   104  C    0.038506
   105  C   -0.020784
   106  C   -0.036312
   107  C    0.088988
   108  C    0.071652
   109  C    0.034410
   110  C   -0.007439
   111  N   -0.324299
   112  C    0.077637
   113  C   -0.161951
   114  C    0.001073
   115  C    0.096666
   116  C    0.132298
   117  C    0.041601
   118  O   -0.189933
   119  C    0.001136
   120  C    0.211171
   121  O   -0.250776
   122  O   -0.306399
   123  C    0.152125
   124  H   -0.017867
   125  H   -0.015891
   126  H   -0.038040
   127  H   -0.003267
   128  H   -0.004215
   129  H    0.019646
   130  H    0.018273
   131  H    0.017432
   132  H    0.014363
   133  H    0.037512
   134  H    0.019101
   135  H    0.019973
   136  H    0.009616
   137  H    0.025480
   138  H    0.039059
   139  H    0.037534
   140  H    0.035702
   141  H    0.033948
   142  H    0.013161
   143  H    0.021433
   144  H    0.022875
   145  H    0.010758
   146  H    0.014542
   147  H    0.006588
   148  H    0.004091
   149  H    0.010283
   150  H    0.016881
   151  H    0.029162
   152  H    0.044285
   153  H    0.009528
   154  H    0.047562
   155  H    0.032548
   156  H    0.042893
   157  H    0.049300
   158  H    0.053734
 Sum of Mulliken charges =  -0.00000

 Dipole moment (field-independent basis, Debye):
    X=             -2.4322    Y=              2.0051    Z=              5.8002  Tot=              6.6013
 Quadrupole moment (field-independent basis, Debye-Ang):
   XX=           -520.8866   YY=           -499.6392   ZZ=           -499.4295
   XY=             26.1844   XZ=             -3.8379   YZ=             -4.2398

 Normal termination of Gaussian 16 at Fri Sep  3 15:34:54 2021.
