 Gaussian 16, Revision A.03,
 Gaussian 16:  ES64L-G16RevA.03 25-Dec-2016

 -----------------------------------
 #p cam-b3lyp/Def2SVP td=(nstates=5)
 -----------------------------------

 --------------------------------
 TDDFT excited states in gaussian
 --------------------------------
 Symbolic Z-matrix:
 Charge =  0 Multiplicity = 1

                         Standard orientation:
 ---------------------------------------------------------------------
 Center     Atomic      Atomic             Coordinates (Angstroms)
 Number     Number       Type             X           Y           Z
 ---------------------------------------------------------------------
      1         12           0        3.654123    1.092039    0.440612
      2          6           0        3.999974   -1.827703    2.482109
      3          6           0        5.023779   -0.711912   -2.111420
      4          6           0        3.779579    3.775702   -1.244271
      5          6           0        3.389313    2.938673    3.384331
      6          7           0        4.377805   -0.996760    0.322923
      7          6           0        4.399269   -2.029953    1.159118
      8          6           0        4.814873   -3.367880    0.477505
      9          6           0        5.634214   -2.777871   -0.756419
     10          6           0        4.948773   -1.428511   -0.880204
     11          6           0        7.112157   -2.552160   -0.454360
     12          6           0        3.578215   -4.200346   -0.001461
     13          6           0        3.875814   -5.654546   -0.378408
     14          1           0        2.878957   -6.672590   -0.083090
     15          7           0        3.842283    1.375386   -1.505450
     16          6           0        4.411345    0.527776   -2.395963
     17          6           0        4.306581    1.190488   -3.713734
     18          6           0        3.801623    2.573411   -3.488713
     19          6           0        3.812651    2.639767   -2.049667
     20          6           0        4.619806    0.503508   -5.007449
     21          6           0        3.386533    3.665957   -4.422617
     22          8           0        3.200601    4.866696   -4.024839
     23          6           0        3.287877    3.308467   -5.849330
     24          7           0        3.813818    3.101988    0.981202
     25          6           0        3.787426    4.069146    0.057679
     26          6           0        3.630893    5.421438    0.687554
     27          6           0        3.310192    5.156573    2.229225
     28          6           0        3.425728    3.612258    2.232365
     29          6           0        4.841538    6.357881    0.571698
     30          6           0        2.022193    5.801012    2.800345
     31          6           0        0.805304    5.159434    2.172128
     32          7           0        3.507520    0.648494    2.560240
     33          6           0        3.428816    1.573156    3.611658
     34          6           0        3.456455    0.802006    4.868094
     35          6           0        3.566737   -0.525199    4.457960
     36          6           0        3.631963   -0.577730    3.036243
     37          6           0        3.441490    1.348381    6.181747
     38          6           0        3.669448   -1.909353    4.890884
     39          8           0        3.576814   -2.488219    5.974317
     40          6           0        4.076605   -2.798529    3.634136
     41          6           0        3.163574   -3.993942    3.608210
     42          8           0        1.943378   -3.862187    3.382099
     43          8           0        3.899696   -5.115817    3.616271
     44          6           0        3.055400   -6.339078    3.561937
     45          1           0        5.655219   -1.102495   -2.911838
     46          1           0        3.709996    4.719111   -1.789777
     47          1           0        3.225533    3.440643    4.339661
     48          1           0        5.460319   -4.004875    1.082535
     49          1           0        5.483377   -3.364073   -1.662696
     50          1           0        7.332227   -2.713115    0.600905
     51          1           0        7.310937   -1.516584   -0.731058
     52          1           0        7.738271   -3.161948   -1.106216
     53          1           0        3.243367   -3.823033   -0.967677
     54          1           0        2.784433   -4.176863    0.745992
     55          1           0        4.857557   -5.966122   -0.020625
     56          1           0        3.950618   -5.717508   -1.464060
     57          1           0        5.123729   -0.448234   -4.843760
     58          1           0        5.358551    1.116876   -5.522952
     59          1           0        3.736000    0.387421   -5.634938
     60          1           0        4.255369    2.945852   -6.197209
     61          1           0        2.892628    4.189633   -6.353486
     62          1           0        2.591642    2.476296   -5.957491
     63          1           0        2.802358    5.968150    0.239154
     64          1           0        4.103048    5.524361    2.880980
     65          1           0        4.613661    7.311099    0.094044
     66          1           0        5.626839    5.828373    0.032983
     67          1           0        5.338690    6.581113    1.515321
     68          1           0        1.988124    6.861945    2.554977
     69          1           0        1.938211    5.708182    3.883203
     70          1           0        0.698006    5.705940    1.235832
     71          1           0       -0.069427    5.299118    2.808165
     72          1           0        0.991110    4.115115    1.920413
     73          1           0        2.748188    0.736497    6.758722
     74          1           0        3.133770    2.393763    6.172325
     75          1           0        4.486629    1.223280    6.464395
     76          1           0        5.118947   -3.082508    3.775560
     77          1           0        3.323954   -6.952894    4.421787
     78          1           0        3.195847   -6.768716    2.569923
     79          1           0        1.988333   -6.196417    3.736163
     80         12           0       -4.182247    0.136551   -0.367398
     81          6           0       -1.974196   -1.889878   -2.341515
     82          6           0       -6.229763   -2.581816   -0.137660
     83          6           0       -6.354466    2.011295    0.986940
     84          6           0       -2.573707    2.931555   -1.688861
     85          7           0       -4.014470   -1.914882   -1.177179
     86          6           0       -3.101509   -2.588184   -1.860926
     87          6           0       -3.374826   -4.112236   -1.971041
     88          6           0       -4.966321   -4.087130   -1.758001
     89          6           0       -5.083553   -2.800874   -0.942847
     90          6           0       -5.743810   -3.905680   -3.051025
     91          6           0       -2.656959   -4.931379   -0.841582
     92          6           0       -2.625419   -6.444804   -1.065854
     93          1           0       -1.448857   -7.189307   -0.625525
     94          7           0       -5.769595   -0.323018    0.731550
     95          6           0       -6.463887   -1.480142    0.714290
     96          6           0       -7.552099   -1.310965    1.689663
     97          6           0       -7.542030    0.099663    2.163718
     98          6           0       -6.546366    0.668442    1.277590
     99          6           0       -8.422338   -2.446986    2.143065
    100          6           0       -8.311571    0.820718    3.228651
    101          8           0       -8.313036    2.099919    3.309081
    102          6           0       -9.137780   -0.010034    4.116748
    103          7           0       -4.572985    2.173508   -0.510510
    104          6           0       -5.542534    2.744822    0.225355
    105          6           0       -5.457635    4.251302    0.164309
    106          6           0       -4.076236    4.574194   -0.573965
    107          6           0       -3.624311    3.135113   -0.905936
    108          6           0       -6.601593    4.952952   -0.567419
    109          6           0       -3.082393    5.508055    0.169557
    110          6           0       -2.552800    4.818328    1.406161
    111          7           0       -2.453598    0.491776   -1.613849
    112          6           0       -1.971456    1.738791   -2.068340
    113          6           0       -0.842471    1.462924   -2.980316
    114          6           0       -0.760158    0.062656   -3.011368
    115          6           0       -1.779597   -0.495261   -2.193470
    116          6           0       -0.084206    2.440110   -3.684773
    117          6           0       -0.049396   -1.070584   -3.558445
    118          8           0        0.961221   -1.212860   -4.245567
    119          6           0       -0.883546   -2.387675   -3.248879
    120          6           0        0.064440   -3.420478   -2.703744
    121          8           0        0.627009   -3.246455   -1.608377
    122          8           0       -0.016434   -4.533324   -3.455676
    123          6           0        0.897568   -5.590902   -2.947785
    124          1           0       -7.048153   -3.300127   -0.193702
    125          1           0       -7.009102    2.706735    1.517308
    126          1           0       -1.957933    3.751592   -2.064407
    127          1           0       -3.135359   -4.548305   -2.933468
    128          1           0       -5.300120   -4.940636   -1.173651
    129          1           0       -5.092035   -3.704498   -3.888206
    130          1           0       -6.408659   -3.069230   -2.879609
    131          1           0       -6.388243   -4.771528   -3.228074
    132          1           0       -3.263856   -4.889427    0.072009
    133          1           0       -1.659982   -4.568733   -0.682947
    134          1           0       -2.887352   -6.714356   -2.096223
    135          1           0       -3.412406   -6.901713   -0.460969
    136          1           0       -8.303096   -3.326942    1.498962
    137          1           0       -9.461056   -2.135683    1.988072
    138          1           0       -8.280294   -2.691362    3.197944
    139          1           0       -9.858790   -0.566828    3.522971
    140          1           0       -9.539895    0.674163    4.866454
    141          1           0       -8.492828   -0.749942    4.603771
    142          1           0       -5.432270    4.677846    1.159563
    143          1           0       -4.237474    5.082711   -1.535870
    144          1           0       -7.126065    5.700333    0.057418
    145          1           0       -7.293465    4.199975   -0.920808
    146          1           0       -6.319045    5.458042   -1.489511
    147          1           0       -3.594886    6.410129    0.512755
    148          1           0       -2.246813    5.826397   -0.444823
    149          1           0       -3.337029    5.002643    2.146505
    150          1           0       -1.606972    5.258789    1.715086
    151          1           0       -2.489745    3.734333    1.255681
    152          1           0        0.954379    2.149411   -3.599210
    153          1           0       -0.252752    3.438003   -3.285311
    154          1           0       -0.501195    2.324017   -4.688725
    155          1           0       -1.346541   -2.709251   -4.182585
    156          1           0        1.542397   -5.883613   -3.782178
    157          1           0        0.241761   -6.372256   -2.519824
    158          1           0        1.631517   -5.304105   -2.203794
 ---------------------------------------------------------------------

 SCF Done:  E(RCAM-B3LYP) =  -4069.81422710     A.U. after   19 cycles

 Excitation energies and oscillator strengths:

 Excited State   1:      Singlet-A      1.6243 eV  763.32 nm  f=0.1742  <S**2>=0.000
     309 -> 315       -0.11852
     310 -> 316        0.10683
     311 -> 313        0.49808
     312 -> 314        0.46468
 This state for optimization and/or second-order correction.
 Total Energy, E(TD-HF/TD-DFT) =  -4069.75453591
 Copying the excited state density for this state as the 1-particle RhoCI density.

 Excited State   2:      Singlet-A      1.7099 eV  725.11 nm  f=0.5621  <S**2>=0.000
     309 -> 315        0.12408
     310 -> 316        0.13149
     311 -> 313       -0.46738
     312 -> 314        0.49886

 Excited State   3:      Singlet-A      2.1278 eV  582.70 nm  f=0.0001  <S**2>=0.000
     312 -> 313        0.69581

 Excited State   4:      Singlet-A      2.1739 eV  570.33 nm  f=0.0048  <S**2>=0.000
     309 -> 313        0.50997
     310 -> 314        0.39094
     311 -> 315        0.20768
     312 -> 316       -0.15562

 Excited State   5:      Singlet-A      2.1960 eV  564.58 nm  f=0.1593  <S**2>=0.000
     309 -> 313       -0.38928
     310 -> 314        0.50257
     311 -> 315       -0.17074
     312 -> 316       -0.22112

 The electronic state is 1-A.
 Alpha  occ. eigenvalues --  -46.87587 -46.87052 -19.26732 -19.25780 -19.19634
 Alpha  occ. eigenvalues --  -19.18649 -19.18433 -19.18391 -19.18313 -19.17559
 Alpha  occ. eigenvalues --  -14.42421 -14.41684 -14.41294 -14.40783 -14.39287
 Alpha  occ. eigenvalues --  -14.38693 -14.38562 -14.37879 -10.39460 -10.38494
 Alpha  occ. eigenvalues --  -10.35323 -10.34937 -10.34493 -10.33779 -10.32139
 Alpha  occ. eigenvalues --  -10.31312 -10.31286 -10.30980 -10.30659 -10.30353
 Alpha  occ. eigenvalues --  -10.30338 -10.30118 -10.30022 -10.29909 -10.29838
 Alpha  occ. eigenvalues --  -10.29837 -10.29570 -10.29372 -10.29367 -10.29350
 Alpha  occ. eigenvalues --  -10.29016 -10.28682 -10.28622 -10.28533 -10.28395
 Alpha  occ. eigenvalues --  -10.28197 -10.28108 -10.27981 -10.27916 -10.27625
 Alpha  occ. eigenvalues --  -10.27606 -10.27462 -10.27427 -10.27389 -10.27363
 Alpha  occ. eigenvalues --  -10.27350 -10.27268 -10.27255 -10.27112 -10.27091
 Alpha  occ. eigenvalues --  -10.27089 -10.26966 -10.26928 -10.26704 -10.26579
 Alpha  occ. eigenvalues --  -10.26541 -10.26369 -10.26320 -10.26024 -10.25958
 Alpha  occ. eigenvalues --  -10.25892 -10.25828 -10.25792 -10.25615 -10.25593
 Alpha  occ. eigenvalues --  -10.25507 -10.25373 -10.25316 -10.25302 -10.25104
 Alpha  occ. eigenvalues --  -10.24882 -10.24643 -10.24623 -10.24218 -10.24173
 Alpha  occ. eigenvalues --  -10.24151  -3.16335  -3.15789  -1.91216  -1.90806
 Alpha  occ. eigenvalues --   -1.90669  -1.90644  -1.90258  -1.90101  -1.17031
 Alpha  occ. eigenvalues --   -1.16111  -1.08967  -1.08031  -1.07367  -1.06898
 Alpha  occ. eigenvalues --   -1.06725  -1.06064  -1.04442  -1.03826  -1.03604
 Alpha  occ. eigenvalues --   -1.03091  -1.02980  -1.02549  -1.02066  -1.01725
 Alpha  occ. eigenvalues --   -0.92030  -0.91295  -0.89404  -0.89102  -0.89053
 Alpha  occ. eigenvalues --   -0.88419  -0.88102  -0.87805  -0.87710  -0.87614
 Alpha  occ. eigenvalues --   -0.87225  -0.87057  -0.86928  -0.86526  -0.84955
 Alpha  occ. eigenvalues --   -0.84294  -0.83800  -0.83556  -0.82846  -0.82633
 Alpha  occ. eigenvalues --   -0.82357  -0.82010  -0.81705  -0.81021  -0.80461
 Alpha  occ. eigenvalues --   -0.79973  -0.78571  -0.78068  -0.77077  -0.76933
 Alpha  occ. eigenvalues --   -0.76677  -0.76351  -0.75865  -0.75309  -0.74756
 Alpha  occ. eigenvalues --   -0.74399  -0.72632  -0.72138  -0.71558  -0.71055
 Alpha  occ. eigenvalues --   -0.69811  -0.69407  -0.68794  -0.68221  -0.67590
 Alpha  occ. eigenvalues --   -0.67139  -0.67011  -0.66511  -0.65274  -0.64795
 Alpha  occ. eigenvalues --   -0.64655  -0.64582  -0.64260  -0.64135  -0.64015
 Alpha  occ. eigenvalues --   -0.63708  -0.62426  -0.61753  -0.60277  -0.59786
 Alpha  occ. eigenvalues --   -0.59751  -0.59077  -0.58970  -0.58462  -0.58357
 Alpha  occ. eigenvalues --   -0.57878  -0.57752  -0.57201  -0.56975  -0.56742
 Alpha  occ. eigenvalues --   -0.56227  -0.56001  -0.55654  -0.55515  -0.55403
 Alpha  occ. eigenvalues --   -0.55334  -0.55022  -0.54869  -0.54501  -0.54052
 Alpha  occ. eigenvalues --   -0.53874  -0.53233  -0.53187  -0.53142  -0.52947
 Alpha  occ. eigenvalues --   -0.52778  -0.52625  -0.52554  -0.52339  -0.52272
 Alpha  occ. eigenvalues --   -0.52182  -0.52079  -0.51660  -0.51535  -0.51334
 Alpha  occ. eigenvalues --   -0.51211  -0.50880  -0.50625  -0.50402  -0.50042
 Alpha  occ. eigenvalues --   -0.49918  -0.49745  -0.49499  -0.49347  -0.49277
 Alpha  occ. eigenvalues --   -0.49244  -0.49105  -0.48865  -0.48656  -0.48566
 Alpha  occ. eigenvalues --   -0.48432  -0.48391  -0.48262  -0.48058  -0.47924
 Alpha  occ. eigenvalues --   -0.47820  -0.47572  -0.47120  -0.47047  -0.46691
 Alpha  occ. eigenvalues --   -0.46613  -0.46538  -0.46327  -0.46156  -0.46056
 Alpha  occ. eigenvalues --   -0.45943  -0.45840  -0.45689  -0.45596  -0.45344
 Alpha  occ. eigenvalues --   -0.45167  -0.44759  -0.44542  -0.44393  -0.44203
 Alpha  occ. eigenvalues --   -0.44066  -0.43995  -0.43948  -0.43907  -0.43644
 Alpha  occ. eigenvalues --   -0.43547  -0.43471  -0.43347  -0.43337  -0.43081
 Alpha  occ. eigenvalues --   -0.42971  -0.42897  -0.42737  -0.42647  -0.42351
 Alpha  occ. eigenvalues --   -0.42232  -0.42166  -0.41823  -0.41691  -0.41499
 Alpha  occ. eigenvalues --   -0.41332  -0.41089  -0.40967  -0.40927  -0.40655
 Alpha  occ. eigenvalues --   -0.40625  -0.40539  -0.40391  -0.40333  -0.40230
 Alpha  occ. eigenvalues --   -0.40148  -0.40038  -0.39438  -0.39297  -0.38780
 Alpha  occ. eigenvalues --   -0.38194  -0.37991  -0.37604  -0.37228  -0.37150
 Alpha  occ. eigenvalues --   -0.37093  -0.36982  -0.36753  -0.36539  -0.36235
 Alpha  occ. eigenvalues --   -0.36075  -0.35580  -0.34273  -0.34116  -0.33597
 Alpha  occ. eigenvalues --   -0.33162  -0.33138  -0.32498  -0.31208  -0.30935
 Alpha  occ. eigenvalues --   -0.30828  -0.30363  -0.30242  -0.29425  -0.29327
 Alpha  occ. eigenvalues --   -0.29212  -0.28735  -0.28619  -0.23987  -0.23372
 Alpha  occ. eigenvalues --   -0.21064  -0.20421
 Alpha virt. eigenvalues --   -0.08763  -0.08065  -0.01615  -0.01117  -0.00003
 Alpha virt. eigenvalues --    0.00614   0.02136   0.02799   0.03022   0.04508
 Alpha virt. eigenvalues --    0.04668   0.04767   0.05258   0.05689   0.05912

 Mulliken charges:
               1
     1  Mg   0.841399
     2  C    0.000237
     3  C   -0.084241
     4  C   -0.051060
     5  C   -0.066201
     6  N   -0.257314
     7  C   -0.045875
     8  C   -0.014922
     9  C   -0.091426
    10  C    0.054758
    11  C    0.105812
    12  C    0.054040
    13  C   -0.074839
    14  H    0.028231
    15  N   -0.433348
    16  C    0.179478
    17  C   -0.165636
    18  C   -0.011021
    19  C    0.144651
    20  C    0.115238
    21  C    0.006060
    22  O   -0.254705
    23  C    0.066748
    24  N   -0.340934
    25  C    0.041742
    26  C   -0.027862
    27  C   -0.024394
    28  C    0.073349
    29  C    0.076883
    30  C    0.050237
    31  C   -0.039070
    32  N   -0.310104
    33  C    0.079436
    34  C   -0.171961
    35  C    0.007096
    36  C    0.082415
    37  C    0.127783
    38  C    0.045103
    39  O   -0.191672
    40  C   -0.006076
    41  C    0.212397
    42  O   -0.255043
    43  O   -0.305296
    44  C    0.159367
    45  H   -0.019239
    46  H   -0.021359
    47  H   -0.044389
    48  H   -0.003858
    49  H   -0.004280
    50  H    0.024217
    51  H    0.015593
    52  H    0.014339
    53  H    0.028212
    54  H    0.047935
    55  H    0.015382
    56  H    0.011977
    57  H    0.004639
    58  H    0.020363
    59  H    0.052086
    60  H    0.037292
    61  H    0.031465
    62  H    0.034253
    63  H    0.012838
    64  H    0.008108
    65  H    0.021239
    66  H    0.013143
    67  H    0.004098
    68  H    0.003754
    69  H    0.002803
    70  H    0.013301
    71  H    0.047321
    72  H    0.035968
    73  H    0.045707
    74  H    0.007400
    75  H    0.044446
    76  H    0.033585
    77  H    0.040894
    78  H    0.045330
    79  H    0.052073
    80  Mg   0.841410
    81  C   -0.016078
    82  C   -0.087683
    83  C   -0.045059
    84  C   -0.066366
    85  N   -0.255159
    86  C   -0.048491
    87  C   -0.016499
    88  C   -0.090787
    89  C    0.047361
    90  C    0.114483
    91  C    0.062065
    92  C   -0.077477
    93  H    0.033417
    94  N   -0.423471
    95  C    0.164564
    96  C   -0.174208
    97  C   -0.007047
    98  C    0.152739
    99  C    0.099390
   100  C    0.016217
   101  O   -0.252934
   102  C    0.060817
   103  N   -0.350155
   104  C    0.038040
   105  C   -0.020443
   106  C   -0.031470
   107  C    0.089073
   108  C    0.073808
   109  C    0.032234
   110  C   -0.000675
   111  N   -0.323190
   112  C    0.075238
   113  C   -0.161592
   114  C   -0.000020
   115  C    0.095832
   116  C    0.121798
   117  C    0.043131
   118  O   -0.196581
   119  C    0.002202
   120  C    0.211889
   121  O   -0.244772
   122  O   -0.304395
   123  C    0.160382
   124  H   -0.019823
   125  H   -0.015308
   126  H   -0.037871
   127  H   -0.002326
   128  H   -0.003910
   129  H    0.021637
   130  H    0.014505
   131  H    0.016121
   132  H    0.016832
   133  H    0.040995
   134  H    0.019276
   135  H    0.020204
   136  H    0.008857
   137  H    0.025996
   138  H    0.041020
   139  H    0.037983
   140  H    0.036540
   141  H    0.035040
   142  H    0.014966
   143  H    0.012270
   144  H    0.024883
   145  H    0.011108
   146  H    0.005803
   147  H    0.004122
   148  H    0.004041
   149  H    0.005522
   150  H    0.000889
   151  H    0.028986
   152  H    0.056471
   153  H    0.018407
   154  H    0.041567
   155  H    0.034465
   156  H    0.040640
   157  H    0.051375
   158  H    0.041077
 Sum of Mulliken charges =  -0.00000

 Dipole moment (field-independent basis, Debye):
    X=             -1.7955    Y=             -3.2846    Z=             -3.9597  Tot=              5.4490
 Quadrupole moment (field-independent basis, Debye-Ang):
   XX=           -483.0072   YY=           -467.1289   ZZ=           -532.3691
   XY=             18.3891   XZ=             -6.4676   YZ=             25.0563

 Normal termination of Gaussian 16 at Wed Sep  8 21:32:57 2021.
