 Gaussian 16, Revision A.03,
 Gaussian 16:  ES64L-G16RevA.03 25-Dec-2016

 -----------------------------------
 #p cam-b3lyp/Def2SVP td=(nstates=5)
 -----------------------------------

 --------------------------------
 TDDFT excited states in gaussian
 --------------------------------
 Symbolic Z-matrix:
 Charge =  0 Multiplicity = 1

                         Standard orientation:
 ---------------------------------------------------------------------
 Center     Atomic      Atomic             Coordinates (Angstroms)
 Number     Number       Type             X           Y           Z
 ---------------------------------------------------------------------
      1         12           0        4.969468   -1.043516    0.116402
      2          6           0        5.438191    1.964718   -1.765895
      3          6           0        5.926932    0.713266    2.880466
      4          6           0        5.002054   -3.783392    1.712847
      5          6           0        5.158020   -2.783627   -2.897254
      6          7           0        5.579065    1.066356    0.394754
      7          6           0        5.659163    2.131251   -0.396924
      8          6           0        5.926153    3.457240    0.376280
      9          6           0        6.609842    2.852960    1.683725
     10          6           0        5.974997    1.473537    1.674352
     11          6           0        8.122552    2.698295    1.564186
     12          6           0        4.603428    4.220482    0.722103
     13          6           0        4.786466    5.669676    1.182196
     14          1           0        3.790183    6.657822    0.797052
     15          7           0        4.924705   -1.394429    2.060034
     16          6           0        5.339423   -0.559981    3.043391
     17          6           0        5.099941   -1.276980    4.314313
     18          6           0        4.689177   -2.669177    3.980917
     19          6           0        4.883382   -2.679150    2.553485
     20          6           0        5.217714   -0.628766    5.659563
     21          6           0        4.209345   -3.812832    4.817546
     22          8           0        4.128319   -5.003694    4.359446
     23          6           0        3.916886   -3.515194    6.231379
     24          7           0        5.284890   -3.023000   -0.466511
     25          6           0        5.186028   -4.025547    0.413324
     26          6           0        5.169964   -5.357548   -0.276208
     27          6           0        5.033513   -5.046069   -1.836373
     28          6           0        5.079724   -3.499415   -1.773161
     29          6           0        6.396996   -6.248726   -0.039129
     30          6           0        3.857182   -5.718743   -2.587489
     31          6           0        2.543840   -5.151095   -2.097583
     32          7           0        5.070043   -0.524260   -1.988664
     33          6           0        5.164919   -1.409830   -3.071918
     34          6           0        5.315452   -0.590018   -4.288189
     35          6           0        5.314327    0.723615   -3.823204
     36          6           0        5.198484    0.723500   -2.403742
     37          6           0        5.489534   -1.085169   -5.610670
     38          6           0        5.408805    2.126522   -4.193048
     39          8           0        5.427008    2.742835   -5.259500
     40          6           0        5.615316    2.981800   -2.865766
     41          6           0        4.653970    4.137920   -2.915874
     42          8           0        3.422136    3.948904   -2.850895
     43          8           0        5.334663    5.287743   -2.792960
     44          6           0        4.436644    6.473308   -2.805256
     45          1           0        6.435092    1.097382    3.767127
     46          1           0        4.906697   -4.749282    2.213248
     47          1           0        5.137733   -3.254284   -3.881898
     48          1           0        6.613347    4.142480   -0.120341
     49          1           0        6.320706    3.397067    2.582652
     50          1           0        8.465741    2.908731    0.551339
     51          1           0        8.330957    1.661520    1.829057
     52          1           0        8.634300    3.306828    2.310228
     53          1           0        4.167263    3.792900    1.624873
     54          1           0        3.911401    4.194364   -0.120359
     55          1           0        5.790466    6.033828    0.962453
     56          1           0        4.721765    5.693398    2.270061
     57          1           0        5.695339    0.347961    5.593051
     58          1           0        5.912586   -1.231708    6.243792
     59          1           0        4.257963   -0.572476    6.173413
     60          1           0        4.816065   -3.128034    6.711100
     61          1           0        3.501167   -4.430330    6.651562
     62          1           0        3.176264   -2.716294    6.278138
     63          1           0        4.316917   -5.953874    0.044933
     64          1           0        5.917359   -5.356358   -2.394236
     65          1           0        6.153689   -7.228093    0.373601
     66          1           0        7.084265   -5.709605    0.612256
     67          1           0        7.017906   -6.415157   -0.919008
     68          1           0        3.839861   -6.788912   -2.384060
     69          1           0        3.905507   -5.587389   -3.668536
     70          1           0        2.344480   -5.737368   -1.201273
     71          1           0        1.762790   -5.300788   -2.843749
     72          1           0        2.650002   -4.110748   -1.789534
     73          1           0        4.847471   -0.479510   -6.250124
     74          1           0        5.229866   -2.141575   -5.675337
     75          1           0        6.555246   -0.907588   -5.754125
     76          1           0        6.653492    3.312420   -2.864256
     77          1           0        4.783256    7.130255   -3.603076
     78          1           0        4.432426    6.869391   -1.789626
     79          1           0        3.407230    6.295049   -3.118096
     80         12           0       -5.583382   -0.232637   -0.096059
     81          6           0       -3.007192    1.998700    1.027957
     82          6           0       -7.844719    2.132479    0.866832
     83          6           0       -7.882910   -2.345889   -0.656220
     84          6           0       -3.244275   -2.808756    0.098568
     85          7           0       -5.335387    1.767041    0.816090
     86          6           0       -4.306636    2.535416    1.141104
     87          6           0       -4.687972    3.986853    1.537906
     88          6           0       -6.204084    3.720594    1.995512
     89          6           0       -6.500675    2.483262    1.150693
     90          6           0       -6.332353    3.340180    3.461184
     91          6           0       -4.620325    4.976297    0.321995
     92          6           0       -4.678319    6.459147    0.695545
     93          1           0       -3.897845    7.407079   -0.094882
     94          7           0       -7.529313    0.032358   -0.381935
     95          6           0       -8.283982    1.060551    0.059151
     96          6           0       -9.654070    0.778378   -0.396259
     97          6           0       -9.676903   -0.581590   -1.000158
     98          6           0       -8.339294   -1.035988   -0.677044
     99          6           0      -10.763646    1.785834   -0.310892
    100          6           0      -10.732714   -1.351280   -1.734349
    101          8           0      -10.614832   -2.607150   -1.961800
    102          6           0      -11.950416   -0.611547   -2.096984
    103          7           0       -5.629440   -2.310724   -0.053754
    104          6           0       -6.743295   -2.984528   -0.390252
    105          6           0       -6.460687   -4.458995   -0.552895
    106          6           0       -4.868896   -4.600640   -0.491852
    107          6           0       -4.494920   -3.130326   -0.202524
    108          6           0       -7.093518   -5.376934    0.492710
    109          6           0       -4.179852   -5.317521   -1.685156
    110          6           0       -4.311142   -4.479257   -2.936346
    111          7           0       -3.460594   -0.381067    0.277808
    112          6           0       -2.685681   -1.559982    0.339220
    113          6           0       -1.318636   -1.162362    0.733573
    114          6           0       -1.399375    0.228666    0.897921
    115          6           0       -2.728117    0.664481    0.644895
    116          6           0       -0.222231   -2.046240    0.940346
    117          6           0       -0.665200    1.426100    1.238262
    118          8           0        0.516293    1.686633    1.461758
    119          6           0       -1.703117    2.609148    1.460819
    120          6           0       -1.206819    3.810893    0.704504
    121          8           0       -1.145140    3.794879   -0.537491
    122          8           0       -1.094104    4.849490    1.552423
    123          6           0       -0.615506    6.067996    0.846720
    124          1           0       -8.641789    2.706151    1.340619
    125          1           0       -8.612081   -3.103975   -0.951323
    126          1           0       -2.434014   -3.540864    0.085649
    127          1           0       -4.117348    4.397190    2.362398
    128          1           0       -6.853698    4.543236    1.708055
    129          1           0       -5.368277    3.195978    3.925850
    130          1           0       -6.901654    2.420046    3.477540
    131          1           0       -6.939629    4.079781    3.990848
    132          1           0       -5.547357    4.892681   -0.259688
    133          1           0       -3.749040    4.787747   -0.274613
    134          1           0       -4.509081    6.621221    1.767010
    135          1           0       -5.695982    6.819824    0.527369
    136          1           0      -10.489058    2.633380    0.329158
    137          1           0      -11.593198    1.303856    0.217702
    138          1           0      -11.112478    2.112461   -1.292878
    139          1           0      -12.412804   -0.213666   -1.196792
    140          1           0      -12.547175   -1.305086   -2.692592
    141          1           0      -11.666467    0.249706   -2.711981
    142          1           0       -6.808608   -4.815665   -1.514589
    143          1           0       -4.545050   -5.185043    0.381892
    144          1           0       -7.739641   -6.159752    0.052484
    145          1           0       -7.655119   -4.766698    1.187516
    146          1           0       -6.388519   -5.884665    1.148757
    147          1           0       -4.677320   -6.267694   -1.894542
    148          1           0       -3.131148   -5.534461   -1.511499
    149          1           0       -5.306887   -4.741859   -3.305957
    150          1           0       -3.540139   -4.743659   -3.657236
    151          1           0       -4.320652   -3.410095   -2.694559
    152          1           0        0.639106   -1.588736    0.472042
    153          1           0       -0.423269   -3.032514    0.527296
    154          1           0       -0.185009   -2.058569    2.032922
    155          1           0       -1.761600    2.796137    2.533756
    156          1           0        0.281957    6.409499    1.371716
    157          1           0       -1.479287    6.758736    0.824004
    158          1           0       -0.237524    5.947210   -0.161737
 ---------------------------------------------------------------------

 SCF Done:  E(RCAM-B3LYP) =  -4069.81135392     A.U. after   19 cycles

 Excitation energies and oscillator strengths:

 Excited State   1:      Singlet-A      1.6685 eV  743.11 nm  f=0.3713  <S**2>=0.000
     309 -> 315        0.14757
     311 -> 313        0.58960
     312 -> 314        0.35157
 This state for optimization and/or second-order correction.
 Total Energy, E(TD-HF/TD-DFT) =  -4069.75003915
 Copying the excited state density for this state as the 1-particle RhoCI density.

 Excited State   2:      Singlet-A      1.6824 eV  736.93 nm  f=0.4232  <S**2>=0.000
     310 -> 316        0.14991
     311 -> 313       -0.35106
     312 -> 314        0.58878

 Excited State   3:      Singlet-A      2.1780 eV  569.27 nm  f=0.0026  <S**2>=0.000
     309 -> 313        0.49218
     310 -> 314       -0.41767
     311 -> 315       -0.20444
     312 -> 316        0.17163

 Excited State   4:      Singlet-A      2.1916 eV  565.74 nm  f=0.1736  <S**2>=0.000
     309 -> 313        0.41397
     310 -> 314        0.48791
     311 -> 315       -0.17892
     312 -> 316       -0.21218

 Excited State   5:      Singlet-A      2.3544 eV  526.60 nm  f=0.0000  <S**2>=0.000
     312 -> 313        0.70540

 The electronic state is 1-A.
 Alpha  occ. eigenvalues --  -46.87568 -46.87187 -19.26180 -19.25703 -19.18890
 Alpha  occ. eigenvalues --  -19.18637 -19.18390 -19.18319 -19.18073 -19.17619
 Alpha  occ. eigenvalues --  -14.42412 -14.41818 -14.41269 -14.40903 -14.39264
 Alpha  occ. eigenvalues --  -14.38791 -14.38508 -14.37986 -10.38851 -10.38398
 Alpha  occ. eigenvalues --  -10.35315 -10.35029 -10.34193 -10.33831 -10.31636
 Alpha  occ. eigenvalues --  -10.31228 -10.31226 -10.30937 -10.30787 -10.30311
 Alpha  occ. eigenvalues --  -10.30286 -10.30276 -10.30051 -10.29972 -10.29959
 Alpha  occ. eigenvalues --  -10.29807 -10.29712 -10.29419 -10.29354 -10.29318
 Alpha  occ. eigenvalues --  -10.29097 -10.28701 -10.28643 -10.28575 -10.28318
 Alpha  occ. eigenvalues --  -10.28110 -10.28078 -10.28076 -10.27930 -10.27766
 Alpha  occ. eigenvalues --  -10.27589 -10.27518 -10.27425 -10.27395 -10.27393
 Alpha  occ. eigenvalues --  -10.27383 -10.27290 -10.27235 -10.27158 -10.27136
 Alpha  occ. eigenvalues --  -10.27103 -10.27045 -10.26983 -10.26965 -10.26814
 Alpha  occ. eigenvalues --  -10.26585 -10.26573 -10.26344 -10.26051 -10.26042
 Alpha  occ. eigenvalues --  -10.25994 -10.25972 -10.25886 -10.25850 -10.25836
 Alpha  occ. eigenvalues --  -10.25732 -10.25498 -10.25383 -10.25321 -10.25124
 Alpha  occ. eigenvalues --  -10.24799 -10.24628 -10.24604 -10.24579 -10.24270
 Alpha  occ. eigenvalues --  -10.24259  -3.16317  -3.15906  -1.91199  -1.90788
 Alpha  occ. eigenvalues --   -1.90787  -1.90625  -1.90375  -1.90219  -1.16456
 Alpha  occ. eigenvalues --   -1.16032  -1.08628  -1.08072  -1.06889  -1.06802
 Alpha  occ. eigenvalues --   -1.06698  -1.05962  -1.04410  -1.03960  -1.03577
 Alpha  occ. eigenvalues --   -1.03201  -1.02951  -1.02660  -1.02024  -1.01842
 Alpha  occ. eigenvalues --   -0.91898  -0.91390  -0.89403  -0.89101  -0.89078
 Alpha  occ. eigenvalues --   -0.88572  -0.88132  -0.87865  -0.87734  -0.87599
 Alpha  occ. eigenvalues --   -0.87337  -0.87089  -0.87042  -0.86767  -0.84919
 Alpha  occ. eigenvalues --   -0.84411  -0.83783  -0.83573  -0.82851  -0.82570
 Alpha  occ. eigenvalues --   -0.82546  -0.82123  -0.81495  -0.81056  -0.80350
 Alpha  occ. eigenvalues --   -0.80060  -0.78561  -0.78272  -0.77070  -0.76810
 Alpha  occ. eigenvalues --   -0.76754  -0.76418  -0.75759  -0.75392  -0.74717
 Alpha  occ. eigenvalues --   -0.74473  -0.72623  -0.72248  -0.71500  -0.71153
 Alpha  occ. eigenvalues --   -0.69666  -0.69585  -0.68748  -0.68333  -0.67518
 Alpha  occ. eigenvalues --   -0.67116  -0.67115  -0.66635  -0.65188  -0.64696
 Alpha  occ. eigenvalues --   -0.64678  -0.64556  -0.64321  -0.64113  -0.64111
 Alpha  occ. eigenvalues --   -0.63802  -0.62156  -0.61764  -0.60258  -0.59952
 Alpha  occ. eigenvalues --   -0.59722  -0.59203  -0.58905  -0.58455  -0.58333
 Alpha  occ. eigenvalues --   -0.57973  -0.57441  -0.57145  -0.57017  -0.56814
 Alpha  occ. eigenvalues --   -0.56121  -0.55789  -0.55771  -0.55433  -0.55364
 Alpha  occ. eigenvalues --   -0.55146  -0.55035  -0.54907  -0.54370  -0.54044
 Alpha  occ. eigenvalues --   -0.53832  -0.53285  -0.53147  -0.53051  -0.52818
 Alpha  occ. eigenvalues --   -0.52776  -0.52691  -0.52592  -0.52400  -0.52308
 Alpha  occ. eigenvalues --   -0.52276  -0.52078  -0.51833  -0.51578  -0.51409
 Alpha  occ. eigenvalues --   -0.51130  -0.51043  -0.50685  -0.50399  -0.50124
 Alpha  occ. eigenvalues --   -0.49904  -0.49792  -0.49663  -0.49416  -0.49404
 Alpha  occ. eigenvalues --   -0.49107  -0.49049  -0.48986  -0.48681  -0.48564
 Alpha  occ. eigenvalues --   -0.48466  -0.48297  -0.48265  -0.48103  -0.47998
 Alpha  occ. eigenvalues --   -0.47957  -0.47510  -0.47204  -0.47029  -0.46805
 Alpha  occ. eigenvalues --   -0.46622  -0.46472  -0.46312  -0.46181  -0.45982
 Alpha  occ. eigenvalues --   -0.45974  -0.45850  -0.45738  -0.45657  -0.45311
 Alpha  occ. eigenvalues --   -0.45122  -0.44791  -0.44440  -0.44409  -0.44084
 Alpha  occ. eigenvalues --   -0.44060  -0.44048  -0.43991  -0.43866  -0.43714
 Alpha  occ. eigenvalues --   -0.43561  -0.43497  -0.43450  -0.43299  -0.42981
 Alpha  occ. eigenvalues --   -0.42859  -0.42831  -0.42772  -0.42526  -0.42467
 Alpha  occ. eigenvalues --   -0.42310  -0.42124  -0.41876  -0.41596  -0.41563
 Alpha  occ. eigenvalues --   -0.41376  -0.41172  -0.40998  -0.40915  -0.40643
 Alpha  occ. eigenvalues --   -0.40631  -0.40618  -0.40409  -0.40405  -0.40366
 Alpha  occ. eigenvalues --   -0.40143  -0.40112  -0.39557  -0.39331  -0.39142
 Alpha  occ. eigenvalues --   -0.38264  -0.38043  -0.37566  -0.37186  -0.37173
 Alpha  occ. eigenvalues --   -0.37113  -0.36845  -0.36667  -0.36589  -0.36155
 Alpha  occ. eigenvalues --   -0.36086  -0.35636  -0.34164  -0.33710  -0.33618
 Alpha  occ. eigenvalues --   -0.33083  -0.33071  -0.32607  -0.31194  -0.30920
 Alpha  occ. eigenvalues --   -0.30881  -0.30468  -0.29937  -0.29474  -0.29247
 Alpha  occ. eigenvalues --   -0.29133  -0.28895  -0.28753  -0.23944  -0.23488
 Alpha  occ. eigenvalues --   -0.21033  -0.20564
 Alpha virt. eigenvalues --   -0.08710  -0.08213  -0.01596  -0.01197   0.00047
 Alpha virt. eigenvalues --    0.00479   0.02265   0.02735   0.03370   0.03710
 Alpha virt. eigenvalues --    0.04802   0.05116   0.05395   0.05741   0.06121

 Mulliken charges:
               1
     1  Mg   0.837750
     2  C    0.001784
     3  C   -0.091026
     4  C   -0.047381
     5  C   -0.065260
     6  N   -0.255944
     7  C   -0.047670
     8  C   -0.016772
     9  C   -0.088788
    10  C    0.051771
    11  C    0.105246
    12  C    0.054207
    13  C   -0.069509
    14  H    0.026702
    15  N   -0.431746
    16  C    0.173287
    17  C   -0.176669
    18  C   -0.004811
    19  C    0.148210
    20  C    0.110994
    21  C    0.010885
    22  O   -0.252008
    23  C    0.062674
    24  N   -0.339746
    25  C    0.040151
    26  C   -0.027643
    27  C   -0.023745
    28  C    0.073830
    29  C    0.076676
    30  C    0.035916
    31  C   -0.005323
    32  N   -0.310225
    33  C    0.080492
    34  C   -0.170370
    35  C    0.007701
    36  C    0.085200
    37  C    0.127354
    38  C    0.047387
    39  O   -0.189744
    40  C   -0.006718
    41  C    0.210861
    42  O   -0.249939
    43  O   -0.305958
    44  C    0.158369
    45  H   -0.019320
    46  H   -0.019397
    47  H   -0.043631
    48  H   -0.001207
    49  H   -0.004348
    50  H    0.024624
    51  H    0.015689
    52  H    0.014995
    53  H    0.021416
    54  H    0.049432
    55  H    0.016129
    56  H    0.017602
    57  H    0.005806
    58  H    0.024868
    59  H    0.039725
    60  H    0.037005
    61  H    0.033601
    62  H    0.031765
    63  H    0.014201
    64  H    0.008785
    65  H    0.021723
    66  H    0.012813
    67  H    0.003929
    68  H    0.004977
    69  H    0.004747
    70  H    0.006382
    71  H    0.015832
    72  H    0.030350
    73  H    0.047313
    74  H    0.007780
    75  H    0.044833
    76  H    0.033521
    77  H    0.041104
    78  H    0.044232
    79  H    0.054227
    80  Mg   0.838894
    81  C   -0.016066
    82  C   -0.087892
    83  C   -0.045548
    84  C   -0.065149
    85  N   -0.254512
    86  C   -0.049931
    87  C   -0.015110
    88  C   -0.090480
    89  C    0.045879
    90  C    0.114559
    91  C    0.062497
    92  C   -0.077663
    93  H    0.035121
    94  N   -0.423415
    95  C    0.163076
    96  C   -0.174737
    97  C   -0.007817
    98  C    0.152187
    99  C    0.099454
   100  C    0.015603
   101  O   -0.253274
   102  C    0.061177
   103  N   -0.350136
   104  C    0.037558
   105  C   -0.019856
   106  C   -0.034839
   107  C    0.088790
   108  C    0.073696
   109  C    0.034578
   110  C   -0.007547
   111  N   -0.324310
   112  C    0.079023
   113  C   -0.164218
   114  C    0.001462
   115  C    0.097652
   116  C    0.129364
   117  C    0.046604
   118  O   -0.188383
   119  C   -0.000180
   120  C    0.211461
   121  O   -0.244574
   122  O   -0.307758
   123  C    0.151023
   124  H   -0.020011
   125  H   -0.015690
   126  H   -0.039775
   127  H   -0.001448
   128  H   -0.004401
   129  H    0.021725
   130  H    0.014344
   131  H    0.015861
   132  H    0.014106
   133  H    0.039296
   134  H    0.019836
   135  H    0.019345
   136  H    0.008587
   137  H    0.025873
   138  H    0.039855
   139  H    0.038060
   140  H    0.036284
   141  H    0.034051
   142  H    0.014374
   143  H    0.012742
   144  H    0.024965
   145  H    0.011411
   146  H    0.005772
   147  H    0.005915
   148  H    0.003936
   149  H    0.010768
   150  H    0.017608
   151  H    0.030798
   152  H    0.047507
   153  H    0.011661
   154  H    0.048666
   155  H    0.032990
   156  H    0.039979
   157  H    0.048369
   158  H    0.058424
 Sum of Mulliken charges =  -0.00000

 Dipole moment (field-independent basis, Debye):
    X=             -2.0773    Y=              2.5768    Z=              5.6999  Tot=              6.5913
 Quadrupole moment (field-independent basis, Debye-Ang):
   XX=           -475.8102   YY=           -473.8809   ZZ=           -516.9416
   XY=            -28.4107   XZ=              7.7717   YZ=             38.0087

 Normal termination of Gaussian 16 at Fri Sep 10 18:00:33 2021.
