 Gaussian 16, Revision A.03,
 Gaussian 16:  ES64L-G16RevA.03 25-Dec-2016

 -----------------------------------
 #p cam-b3lyp/Def2SVP td=(nstates=5)
 -----------------------------------

 --------------------------------
 TDDFT excited states in gaussian
 --------------------------------
 Symbolic Z-matrix:
 Charge =  0 Multiplicity = 1

                         Standard orientation:
 ---------------------------------------------------------------------
 Center     Atomic      Atomic             Coordinates (Angstroms)
 Number     Number       Type             X           Y           Z
 ---------------------------------------------------------------------
      1         12           0        5.120069   -1.043948    0.295306
      2          6           0        5.747610    1.650920   -1.975397
      3          6           0        6.473428    0.904441    2.747910
      4          6           0        4.994587   -3.564205    2.216030
      5          6           0        4.884563   -3.134767   -2.482944
      6          7           0        5.966507    1.001376    0.266362
      7          6           0        6.093540    1.950387   -0.655815
      8          6           0        6.558246    3.318943   -0.074027
      9          6           0        7.277641    2.798320    1.250141
     10          6           0        6.503807    1.508029    1.455706
     11          6           0        8.751560    2.460563    1.050182
     12          6           0        5.354185    4.262138    0.261160
     13          6           0        5.723456    5.725124    0.523197
     14          1           0        4.807963    6.767768    0.084888
     15          7           0        5.194622   -1.157727    2.266181
     16          6           0        5.771368   -0.266287    3.107599
     17          6           0        5.560924   -0.797938    4.471322
     18          6           0        4.981976   -2.164097    4.342776
     19          6           0        5.059262   -2.362911    2.918039
     20          6           0        5.852846   -0.014311    5.714085
     21          6           0        4.454063   -3.140327    5.345978
     22          8           0        4.212998   -4.359736    5.046806
     23          6           0        4.308262   -2.648157    6.727844
     24          7           0        5.179854   -3.100925   -0.055278
     25          6           0        5.047768   -3.975983    0.947623
     26          6           0        4.837881   -5.369075    0.432666
     27          6           0        4.610253   -5.228837   -1.141587
     28          6           0        4.822288   -3.700640   -1.275477
     29          6           0        5.980381   -6.359476    0.696880
     30          6           0        3.313932   -5.847309   -1.722502
     31          6           0        2.110317   -5.081306   -1.220858
     32          7           0        5.105471   -0.789274   -1.860146
     33          6           0        5.020583   -1.800504   -2.828073
     34          6           0        5.157934   -1.150952   -4.144616
     35          6           0        5.330903    0.199692   -3.848494
     36          6           0        5.329613    0.378753   -2.435615
     37          6           0        5.173110   -1.813919   -5.403456
     38          6           0        5.541162    1.529932   -4.396318
     39          8           0        5.538111    2.011200   -5.530278
     40          6           0        5.941191    2.505720   -3.203154
     41          6           0        5.104640    3.749342   -3.333143
     42          8           0        3.868984    3.709836   -3.162969
     43          8           0        5.909082    4.821189   -3.400666
     44          6           0        5.141403    6.091121   -3.501133
     45          1           0        7.088145    1.329667    3.543678
     46          1           0        4.839440   -4.447882    2.838511
     47          1           0        4.736634   -3.712049   -3.397447
     48          1           0        7.271159    3.859186   -0.697177
     49          1           0        7.119624    3.473057    2.091262
     50          1           0        9.032673    2.510864   -0.001658
     51          1           0        8.871314    1.445018    1.428099
     52          1           0        9.381969    3.090357    1.678451
     53          1           0        4.949467    3.995229    1.237390
     54          1           0        4.598035    4.216112   -0.523343
     55          1           0        6.739120    5.945105    0.193132
     56          1           0        5.748818    5.883123    1.601434
     57          1           0        6.422788    0.887565    5.494244
     58          1           0        6.525606   -0.619490    6.321424
     59          1           0        4.948388    0.209946    6.279768
     60          1           0        5.278371   -2.311782    7.094301
     61          1           0        3.834402   -3.454892    7.285954
     62          1           0        3.661048   -1.770635    6.723676
     63          1           0        3.955780   -5.823352    0.882061
     64          1           0        5.409476   -5.700265   -1.714014
     65          1           0        5.670149   -7.249967    1.244134
     66          1           0        6.769984   -5.829105    1.228410
     67          1           0        6.508176   -6.696886   -0.194750
     68          1           0        3.201520   -6.877449   -1.386166
     69          1           0        3.289040   -5.849650   -2.812285
     70          1           0        1.923299   -5.532341   -0.246987
     71          1           0        1.260743   -5.227919   -1.888644
     72          1           0        2.348611   -4.030804   -1.053080
     73          1           0        4.548566   -1.218495   -6.069327
     74          1           0        4.800438   -2.834421   -5.318055
     75          1           0        6.236613   -1.776079   -5.638796
     76          1           0        7.004942    2.714634   -3.312289
     77          1           0        5.489639    6.606749   -4.396172
     78          1           0        5.259747    6.601221   -2.544996
     79          1           0        4.077307    5.995121   -3.719820
     80         12           0       -5.279288    0.921639    0.688028
     81          6           0       -5.677596   -1.841405   -1.567178
     82          6           0       -4.146129    2.734404   -1.969870
     83          6           0       -4.493949    3.226786    2.721993
     84          6           0       -5.341497   -1.382582    3.301916
     85          7           0       -4.994943    0.403069   -1.443280
     86          6           0       -5.238403   -0.658360   -2.197224
     87          6           0       -5.074504   -0.415762   -3.721638
     88          6           0       -4.063240    0.830180   -3.659482
     89          6           0       -4.443099    1.385113   -2.288190
     90          6           0       -2.601313    0.417284   -3.619401
     91          6           0       -6.427225   -0.023670   -4.413327
     92          6           0       -6.405759   -0.073934   -5.942630
     93          1           0       -7.614624   -0.500447   -6.642057
     94          7           0       -4.911979    2.845668    0.369049
     95          6           0       -4.479592    3.412481   -0.776835
     96          6           0       -4.344743    4.848890   -0.489251
     97          6           0       -4.574688    5.059558    0.965901
     98          6           0       -4.650245    3.686230    1.422363
     99          6           0       -4.105092    5.874001   -1.559363
    100          6           0       -4.692650    6.292820    1.809324
    101          8           0       -4.654432    6.239333    3.089369
    102          6           0       -4.760320    7.574028    1.091412
    103          7           0       -4.751011    0.908220    2.698766
    104          6           0       -4.509471    2.055092    3.357766
    105          6           0       -4.420787    1.820294    4.846863
    106          6           0       -4.895177    0.309814    5.072630
    107          6           0       -5.099805   -0.113728    3.601533
    108          6           0       -3.039324    2.018184    5.470403
    109          6           0       -6.057897    0.079910    6.076572
    110          6           0       -7.337914    0.667329    5.527148
    111          7           0       -5.655783   -1.196688    0.885467
    112          6           0       -5.604996   -1.965404    2.068927
    113          6           0       -5.820500   -3.374807    1.682189
    114          6           0       -5.959901   -3.330718    0.286801
    115          6           0       -5.819627   -1.991163   -0.166418
    116          6           0       -5.818572   -4.489844    2.566961
    117          6           0       -6.183235   -4.114174   -0.906948
    118          8           0       -6.457005   -5.291885   -1.134491
    119          6           0       -5.884428   -3.201610   -2.173564
    120          6           0       -7.019849   -3.370053   -3.145664
    121          8           0       -8.164953   -2.983006   -2.853214
    122          8           0       -6.526961   -3.758422   -4.335869
    123          6           0       -7.614025   -3.928146   -5.336527
    124          1           0       -3.565516    3.320056   -2.683163
    125          1           0       -4.331485    3.998071    3.478426
    126          1           0       -5.472464   -2.148802    4.069014
    127          1           0       -4.621384   -1.235623   -4.265958
    128          1           0       -4.282195    1.555850   -4.438477
    129          1           0       -2.487224   -0.651923   -3.519780
    130          1           0       -2.175718    0.924563   -2.763493
    131          1           0       -2.074829    0.809064   -4.494426
    132          1           0       -6.608634    1.048361   -4.263098
    133          1           0       -7.233271   -0.626957   -4.043232
    134          1           0       -5.530204   -0.612527   -6.325093
    135          1           0       -6.281220    0.943384   -6.321555
    136          1           0       -3.814447    5.405224   -2.507608
    137          1           0       -3.222685    6.449386   -1.259120
    138          1           0       -4.947407    6.557894   -1.683741
    139          1           0       -3.870904    7.691036    0.476828
    140          1           0       -4.931991    8.330666    1.859461
    141          1           0       -5.614928    7.546404    0.406202
    142          1           0       -5.089271    2.482485    5.383259
    143          1           0       -4.083498   -0.317094    5.470139
    144          1           0       -3.032220    2.763457    6.288078
    145          1           0       -2.349647    2.305597    4.687934
    146          1           0       -2.577257    1.115023    5.865375
    147          1           0       -5.855673    0.600404    7.015903
    148          1           0       -6.221176   -0.965480    6.316348
    149          1           0       -7.261846    1.723979    5.800633
    150          1           0       -8.204029    0.200668    5.992013
    151          1           0       -7.358848    0.610806    4.432599
    152          1           0       -6.651913   -5.116974    2.279313
    153          1           0       -5.897589   -4.173794    3.605054
    154          1           0       -4.837501   -4.916234    2.341232
    155          1           0       -4.932813   -3.527682   -2.595095
    156          1           0       -7.532393   -4.947156   -5.727219
    157          1           0       -7.487068   -3.100024   -6.058916
    158          1           0       -8.635042   -3.922084   -4.973271
 ---------------------------------------------------------------------

 SCF Done:  E(RCAM-B3LYP) =  -4069.81231629     A.U. after   19 cycles

 Excitation energies and oscillator strengths:

 Excited State   1:      Singlet-A      1.6709 eV  742.01 nm  f=0.2959  <S**2>=0.000
     310 -> 316        0.14408
     311 -> 313        0.37136
     312 -> 314        0.57689
 This state for optimization and/or second-order correction.
 Total Energy, E(TD-HF/TD-DFT) =  -4069.75091133
 Copying the excited state density for this state as the 1-particle RhoCI density.

 Excited State   2:      Singlet-A      1.6807 eV  737.69 nm  f=0.4050  <S**2>=0.000
     309 -> 315        0.14771
     311 -> 313        0.57638
     312 -> 314       -0.37123

 Excited State   3:      Singlet-A      2.1854 eV  567.32 nm  f=0.0993  <S**2>=0.000
     310 -> 314        0.64209
     312 -> 316       -0.27149

 Excited State   4:      Singlet-A      2.1926 eV  565.47 nm  f=0.0982  <S**2>=0.000
     309 -> 313        0.64031
     311 -> 315       -0.27768

 Excited State   5:      Singlet-A      2.4771 eV  500.53 nm  f=0.0000  <S**2>=0.000
     312 -> 313        0.70709

 The electronic state is 1-A.
 Alpha  occ. eigenvalues --  -46.87894 -46.87485 -19.26489 -19.26211 -19.19235
 Alpha  occ. eigenvalues --  -19.19018 -19.18902 -19.18588 -19.18315 -19.17900
 Alpha  occ. eigenvalues --  -14.42548 -14.42301 -14.41538 -14.41195 -14.39499
 Alpha  occ. eigenvalues --  -14.39177 -14.38694 -14.38429 -10.39284 -10.38946
 Alpha  occ. eigenvalues --  -10.35535 -10.35267 -10.34536 -10.34076 -10.31902
 Alpha  occ. eigenvalues --  -10.31628 -10.31512 -10.31094 -10.31009 -10.30823
 Alpha  occ. eigenvalues --  -10.30678 -10.30609 -10.30282 -10.30241 -10.30178
 Alpha  occ. eigenvalues --  -10.30012 -10.29982 -10.29753 -10.29736 -10.29347
 Alpha  occ. eigenvalues --  -10.29259 -10.29238 -10.28856 -10.28652 -10.28476
 Alpha  occ. eigenvalues --  -10.28472 -10.28442 -10.28226 -10.28214 -10.27902
 Alpha  occ. eigenvalues --  -10.27839 -10.27827 -10.27822 -10.27685 -10.27562
 Alpha  occ. eigenvalues --  -10.27546 -10.27512 -10.27498 -10.27446 -10.27417
 Alpha  occ. eigenvalues --  -10.27307 -10.27306 -10.27302 -10.27292 -10.27251
 Alpha  occ. eigenvalues --  -10.26894 -10.26820 -10.26494 -10.26479 -10.26324
 Alpha  occ. eigenvalues --  -10.26303 -10.26199 -10.26108 -10.26057 -10.25973
 Alpha  occ. eigenvalues --  -10.25771 -10.25702 -10.25591 -10.25474 -10.25369
 Alpha  occ. eigenvalues --  -10.24949 -10.24879 -10.24703 -10.24692 -10.24650
 Alpha  occ. eigenvalues --  -10.24536  -3.16637  -3.16235  -1.91518  -1.91117
 Alpha  occ. eigenvalues --   -1.91105  -1.90947  -1.90705  -1.90542  -1.16838
 Alpha  occ. eigenvalues --   -1.16504  -1.08780  -1.08510  -1.07302  -1.06853
 Alpha  occ. eigenvalues --   -1.06844  -1.06803  -1.04681  -1.04299  -1.03852
 Alpha  occ. eigenvalues --   -1.03488  -1.03333  -1.02875  -1.02509  -1.01942
 Alpha  occ. eigenvalues --   -0.92090  -0.91814  -0.89592  -0.89357  -0.89289
 Alpha  occ. eigenvalues --   -0.88892  -0.88352  -0.88101  -0.87985  -0.87769
 Alpha  occ. eigenvalues --   -0.87627  -0.87491  -0.87367  -0.86953  -0.85085
 Alpha  occ. eigenvalues --   -0.84782  -0.84002  -0.83770  -0.83048  -0.82796
 Alpha  occ. eigenvalues --   -0.82754  -0.82455  -0.81729  -0.81437  -0.80713
 Alpha  occ. eigenvalues --   -0.80277  -0.78896  -0.78461  -0.77309  -0.77044
 Alpha  occ. eigenvalues --   -0.76962  -0.76715  -0.76041  -0.75621  -0.74974
 Alpha  occ. eigenvalues --   -0.74680  -0.72873  -0.72525  -0.71768  -0.71399
 Alpha  occ. eigenvalues --   -0.69954  -0.69647  -0.68976  -0.68621  -0.67747
 Alpha  occ. eigenvalues --   -0.67440  -0.67323  -0.67011  -0.65395  -0.65066
 Alpha  occ. eigenvalues --   -0.64968  -0.64724  -0.64601  -0.64477  -0.64344
 Alpha  occ. eigenvalues --   -0.64069  -0.62447  -0.62129  -0.60530  -0.60187
 Alpha  occ. eigenvalues --   -0.59907  -0.59569  -0.59088  -0.58826  -0.58611
 Alpha  occ. eigenvalues --   -0.58264  -0.57734  -0.57405  -0.57398  -0.57096
 Alpha  occ. eigenvalues --   -0.56422  -0.56135  -0.56029  -0.55725  -0.55625
 Alpha  occ. eigenvalues --   -0.55438  -0.55289  -0.55123  -0.54639  -0.54363
 Alpha  occ. eigenvalues --   -0.54000  -0.53669  -0.53397  -0.53331  -0.53071
 Alpha  occ. eigenvalues --   -0.53042  -0.52966  -0.52851  -0.52724  -0.52485
 Alpha  occ. eigenvalues --   -0.52480  -0.52296  -0.52040  -0.51729  -0.51727
 Alpha  occ. eigenvalues --   -0.51456  -0.51305  -0.51039  -0.50654  -0.50314
 Alpha  occ. eigenvalues --   -0.50093  -0.50008  -0.49810  -0.49713  -0.49620
 Alpha  occ. eigenvalues --   -0.49332  -0.49300  -0.49205  -0.49015  -0.48880
 Alpha  occ. eigenvalues --   -0.48720  -0.48558  -0.48537  -0.48367  -0.48260
 Alpha  occ. eigenvalues --   -0.48184  -0.47792  -0.47414  -0.47393  -0.46954
 Alpha  occ. eigenvalues --   -0.46888  -0.46663  -0.46538  -0.46461  -0.46332
 Alpha  occ. eigenvalues --   -0.46268  -0.46110  -0.45957  -0.45947  -0.45659
 Alpha  occ. eigenvalues --   -0.45271  -0.45092  -0.44706  -0.44594  -0.44358
 Alpha  occ. eigenvalues --   -0.44270  -0.44241  -0.44182  -0.44132  -0.43941
 Alpha  occ. eigenvalues --   -0.43914  -0.43771  -0.43635  -0.43476  -0.43400
 Alpha  occ. eigenvalues --   -0.43201  -0.43131  -0.42871  -0.42783  -0.42740
 Alpha  occ. eigenvalues --   -0.42723  -0.42422  -0.42091  -0.41815  -0.41811
 Alpha  occ. eigenvalues --   -0.41632  -0.41503  -0.41264  -0.41237  -0.40958
 Alpha  occ. eigenvalues --   -0.40911  -0.40792  -0.40640  -0.40565  -0.40512
 Alpha  occ. eigenvalues --   -0.40338  -0.40335  -0.40022  -0.39480  -0.39319
 Alpha  occ. eigenvalues --   -0.38536  -0.38219  -0.37857  -0.37454  -0.37396
 Alpha  occ. eigenvalues --   -0.37374  -0.37115  -0.36995  -0.36878  -0.36634
 Alpha  occ. eigenvalues --   -0.36307  -0.36068  -0.34388  -0.34080  -0.33967
 Alpha  occ. eigenvalues --   -0.33714  -0.33293  -0.33002  -0.31432  -0.31147
 Alpha  occ. eigenvalues --   -0.31136  -0.30799  -0.30177  -0.29805  -0.29552
 Alpha  occ. eigenvalues --   -0.29435  -0.29161  -0.29045  -0.24181  -0.23859
 Alpha  occ. eigenvalues --   -0.21225  -0.20940
 Alpha virt. eigenvalues --   -0.08876  -0.08619  -0.01842  -0.01517  -0.00158
 Alpha virt. eigenvalues --    0.00143   0.02080   0.02360   0.03011   0.03387
 Alpha virt. eigenvalues --    0.04619   0.04906   0.04935   0.05313   0.06063

 Mulliken charges:
               1
     1  Mg   0.838715
     2  C   -0.003392
     3  C   -0.093967
     4  C   -0.045687
     5  C   -0.063882
     6  N   -0.256870
     7  C   -0.052464
     8  C   -0.014111
     9  C   -0.087071
    10  C    0.046460
    11  C    0.104743
    12  C    0.053413
    13  C   -0.071729
    14  H    0.035392
    15  N   -0.433194
    16  C    0.168643
    17  C   -0.176951
    18  C   -0.003827
    19  C    0.148868
    20  C    0.110097
    21  C    0.012320
    22  O   -0.249166
    23  C    0.062464
    24  N   -0.341180
    25  C    0.041453
    26  C   -0.028318
    27  C   -0.024024
    28  C    0.074848
    29  C    0.076059
    30  C    0.035007
    31  C   -0.004613
    32  N   -0.310229
    33  C    0.080042
    34  C   -0.170403
    35  C    0.007910
    36  C    0.082548
    37  C    0.127529
    38  C    0.045276
    39  O   -0.189382
    40  C   -0.005049
    41  C    0.212928
    42  O   -0.258708
    43  O   -0.304277
    44  C    0.158158
    45  H   -0.017324
    46  H   -0.016399
    47  H   -0.041386
    48  H    0.000827
    49  H   -0.003726
    50  H    0.025453
    51  H    0.016604
    52  H    0.016927
    53  H    0.011806
    54  H    0.043219
    55  H    0.017967
    56  H    0.018662
    57  H    0.006154
    58  H    0.027106
    59  H    0.039772
    60  H    0.037602
    61  H    0.035774
    62  H    0.031227
    63  H    0.017098
    64  H    0.009587
    65  H    0.023706
    66  H    0.012423
    67  H    0.004965
    68  H    0.007295
    69  H    0.004588
    70  H    0.009553
    71  H    0.018888
    72  H    0.027975
    73  H    0.046380
    74  H    0.009321
    75  H    0.046268
    76  H    0.035415
    77  H    0.042988
    78  H    0.046919
    79  H    0.051982
    80  Mg   0.837919
    81  C   -0.016834
    82  C   -0.086796
    83  C   -0.045904
    84  C   -0.065024
    85  N   -0.254714
    86  C   -0.049495
    87  C   -0.015218
    88  C   -0.090320
    89  C    0.045221
    90  C    0.113689
    91  C    0.062460
    92  C   -0.077717
    93  H    0.033896
    94  N   -0.423677
    95  C    0.162624
    96  C   -0.173346
    97  C   -0.008398
    98  C    0.152665
    99  C    0.099072
   100  C    0.015360
   101  O   -0.254132
   102  C    0.061283
   103  N   -0.350044
   104  C    0.037610
   105  C   -0.019685
   106  C   -0.034797
   107  C    0.088787
   108  C    0.074055
   109  C    0.034912
   110  C   -0.007565
   111  N   -0.324005
   112  C    0.078216
   113  C   -0.163374
   114  C    0.002070
   115  C    0.096108
   116  C    0.131567
   117  C    0.042034
   118  O   -0.188681
   119  C    0.001100
   120  C    0.211266
   121  O   -0.251168
   122  O   -0.305620
   123  C    0.152141
   124  H   -0.016305
   125  H   -0.016502
   126  H   -0.040880
   127  H   -0.000811
   128  H   -0.003927
   129  H    0.021032
   130  H    0.017010
   131  H    0.020410
   132  H    0.013761
   133  H    0.037056
   134  H    0.021211
   135  H    0.020037
   136  H    0.010413
   137  H    0.026804
   138  H    0.039118
   139  H    0.038394
   140  H    0.035560
   141  H    0.033953
   142  H    0.013976
   143  H    0.012093
   144  H    0.023999
   145  H    0.011563
   146  H    0.004641
   147  H    0.005431
   148  H    0.003604
   149  H    0.010594
   150  H    0.017633
   151  H    0.030543
   152  H    0.045513
   153  H    0.008206
   154  H    0.047021
   155  H    0.034748
   156  H    0.043397
   157  H    0.049829
   158  H    0.053340
 Sum of Mulliken charges =  -0.00000

 Dipole moment (field-independent basis, Debye):
    X=              5.0363    Y=              3.8221    Z=              1.6698  Tot=              6.5392
 Quadrupole moment (field-independent basis, Debye-Ang):
   XX=           -520.0284   YY=           -509.8687   ZZ=           -489.3475
   XY=            -10.7907   XZ=             32.6562   YZ=              6.1376

 Normal termination of Gaussian 16 at Sat Sep  4 01:06:03 2021.
