 Gaussian 16, Revision A.03,
 Gaussian 16:  ES64L-G16RevA.03 25-Dec-2016

 -----------------------------------
 #p cam-b3lyp/Def2SVP td=(nstates=5)
 -----------------------------------

 --------------------------------
 TDDFT excited states in gaussian
 --------------------------------
 Symbolic Z-matrix:
 Charge =  0 Multiplicity = 1

                         Standard orientation:
 ---------------------------------------------------------------------
 Center     Atomic      Atomic             Coordinates (Angstroms)
 Number     Number       Type             X           Y           Z
 ---------------------------------------------------------------------
      1         12           0        5.480595    0.393973    0.958381
      2          6           0        5.935788   -2.583650   -0.975211
      3          6           0        6.800494    2.124161   -1.669809
      4          6           0        5.511144    2.968773    2.809351
      5          6           0        5.276172   -1.644718    3.777531
      6          7           0        6.233951   -0.258880   -1.018204
      7          6           0        6.297647   -1.421358   -1.659887
      8          6           0        6.713746   -1.279973   -3.154626
      9          6           0        7.485340    0.112709   -3.070483
     10          6           0        6.774749    0.711922   -1.869679
     11          6           0        8.967995   -0.031051   -2.742506
     12          6           0        5.476612   -1.192665   -4.110455
     13          6           0        5.785971   -1.381169   -5.598446
     14          1           0        4.815169   -2.072277   -6.433468
     15          7           0        5.604555    2.308683    0.487882
     16          6           0        6.159720    2.833400   -0.630935
     17          6           0        6.004024    4.299284   -0.514219
     18          6           0        5.483934    4.594450    0.849774
     19          6           0        5.537895    3.287660    1.453733
     20          6           0        6.288582    5.248950   -1.637123
     21          6           0        5.022902    5.856190    1.508253
     22          8           0        4.829870    5.933791    2.769717
     23          6           0        4.886441    7.038898    0.638988
     24          7           0        5.624294    0.656035    3.024369
     25          6           0        5.554068    1.874314    3.571953
     26          6           0        5.395070    1.795149    5.061380
     27          6           0        5.125983    0.257195    5.396106
     28          6           0        5.266467   -0.323370    3.967303
     29          6           0        6.586338    2.296748    5.889203
     30          6           0        3.845822   -0.073110    6.203884
     31          6           0        2.620801    0.224938    5.368666
     32          7           0        5.406061   -1.740316    1.346070
     33          6           0        5.344638   -2.368094    2.598585
     34          6           0        5.423129   -3.820695    2.358047
     35          6           0        5.542219   -3.937091    0.974531
     36          6           0        5.564773   -2.638513    0.390171
     37          6           0        5.439531   -4.831510    3.359254
     38          6           0        5.680443   -4.855639   -0.143959
     39          8           0        5.630340   -6.079804   -0.272026
     40          6           0        6.063270   -4.013115   -1.439885
     41          6           0        5.169282   -4.470757   -2.560001
     42          8           0        3.940774   -4.253804   -2.527372
     43          8           0        5.923313   -4.875421   -3.593551
     44          6           0        5.097600   -5.314888   -4.749933
     45          1           0        7.413380    2.739751   -2.331142
     46          1           0        5.409697    3.826682    3.477287
     47          1           0        5.133606   -2.345670    4.602028
     48          1           0        7.387588   -2.057766   -3.514348
     49          1           0        7.316336    0.725701   -3.955581
     50          1           0        9.222803   -1.060984   -2.493043
     51          1           0        9.141483    0.621963   -1.886955
     52          1           0        9.583639    0.364268   -3.550888
     53          1           0        5.106327   -0.167630   -4.126348
     54          1           0        4.705785   -1.903069   -3.809660
     55          1           0        6.783097   -1.795945   -5.748809
     56          1           0        5.828544   -0.397293   -6.065752
     57          1           0        6.812567    4.756305   -2.455222
     58          1           0        7.001222    5.982596   -1.260804
     59          1           0        5.387988    5.755700   -1.984205
     60          1           0        5.848566    7.257657    0.175298
     61          1           0        4.461791    7.823881    1.263748
     62          1           0        4.200742    6.801649   -0.174941
     63          1           0        4.544496    2.387642    5.395896
     64          1           0        5.932364   -0.180350    5.985156
     65          1           0        6.328608    3.090092    6.591261
     66          1           0        7.363238    2.623044    5.198372
     67          1           0        7.108449    1.524394    6.453372
     68          1           0        3.787150    0.552439    7.093936
     69          1           0        3.796505   -1.113391    6.525808
     70          1           0        2.476115    1.293828    5.521542
     71          1           0        1.763791   -0.341348    5.734814
     72          1           0        2.815649    0.071030    4.307142
     73          1           0        4.774163   -5.619939    3.007637
     74          1           0        5.114839   -4.439655    4.322907
     75          1           0        6.494708   -5.104319    3.353503
     76          1           0        7.113897   -4.215123   -1.646038
     77          1           0        5.402194   -6.332813   -4.993419
     78          1           0        5.214557   -4.553538   -5.521343
     79          1           0        4.034197   -5.459160   -4.555770
     80         12           0       -4.981592    0.569784   -0.649299
     81          6           0       -7.609860   -1.624111    0.426827
     82          6           0       -7.386907    2.911610   -1.253391
     83          6           0       -2.751863    2.361746   -2.022124
     84          6           0       -2.976231   -2.252943   -1.044799
     85          7           0       -7.179488    0.530596   -0.404457
     86          6           0       -8.061107   -0.336010    0.071027
     87          6           0       -9.493953    0.234776    0.246292
     88          6           0       -9.411440    1.425695   -0.827856
     89          6           0       -7.903737    1.668817   -0.807903
     90          6           0       -9.807865    0.998765   -2.231386
     91          6           0       -9.745646    0.783828    1.694466
     92          6           0      -11.211279    1.071540    2.027433
     93          1           0      -11.677678    0.822339    3.388628
     94          7           0       -4.964063    2.512842   -1.052763
     95          6           0       -6.033155    3.313627   -1.245284
     96          6           0       -5.488560    4.649873   -1.531678
     97          6           0       -4.009785    4.537146   -1.655126
     98          6           0       -3.849688    3.097876   -1.600885
     99          6           0       -6.343080    5.882999   -1.582896
    100          6           0       -2.921178    5.555435   -1.810753
    101          8           0       -1.727973    5.220839   -2.138091
    102          6           0       -3.314636    6.963981   -1.660179
    103          7           0       -3.203486    0.108119   -1.622718
    104          6           0       -2.393348    1.078999   -2.079876
    105          6           0       -1.052301    0.520959   -2.492884
    106          6           0       -1.045266   -0.997081   -1.989781
    107          6           0       -2.481047   -1.083909   -1.427287
    108          6           0       -0.747198    0.562057   -3.990084
    109          6           0        0.133928   -1.430294   -1.076277
    110          6           0        0.041192   -0.722824    0.256497
    111          7           0       -5.153291   -1.535907   -0.196941
    112          6           0       -4.205991   -2.546970   -0.469802
    113          6           0       -4.819740   -3.834179   -0.084011
    114          6           0       -6.100261   -3.482266    0.368646
    115          6           0       -6.279778   -2.077315    0.252896
    116          6           0       -4.217307   -5.116716   -0.219340
    117          6           0       -7.344803   -3.981049    0.908109
    118          8           0       -7.744760   -5.076734    1.299561
    119          6           0       -8.423495   -2.815026    0.851495
    120          6           0       -9.111228   -2.753198    2.187807
    121          8           0       -8.480222   -2.428084    3.208953
    122          8           0      -10.438841   -2.874939    2.006166
    123          6           0      -11.165398   -2.808571    3.302131
    124          1           0       -8.077076    3.633890   -1.690267
    125          1           0       -1.910055    2.945661   -2.401434
    126          1           0       -2.380013   -3.167925   -1.045767
    127          1           0      -10.291072   -0.449727   -0.017977
    128          1           0       -9.944454    2.307429   -0.481727
    129          1           0       -9.966748   -0.067253   -2.298470
    130          1           0       -8.990072    1.300487   -2.872659
    131          1           0      -10.679539    1.568154   -2.566530
    132          1           0       -9.333291    1.798266    1.769470
    133          1           0       -9.331072    0.122342    2.430117
    134          1           0      -11.895710    0.621274    1.298216
    135          1           0      -11.384819    2.145971    1.930007
    136          1           0       -7.410294    5.631638   -1.618581
    137          1           0       -6.146147    6.368777   -2.544722
    138          1           0       -6.116326    6.586294   -0.778775
    139          1           0       -4.083686    7.204168   -2.390473
    140          1           0       -2.385586    7.534561   -1.716674
    141          1           0       -3.767232    7.096994   -0.671195
    142          1           0       -0.244922    1.055677   -2.007779
    143          1           0       -0.993744   -1.704651   -2.830325
    144          1           0        0.184044    1.108731   -4.230900
    145          1           0       -1.591958    1.007539   -4.498472
    146          1           0       -0.673550   -0.410744   -4.473249
    147          1           0        1.086626   -1.131710   -1.520524
    148          1           0        0.178798   -2.501046   -0.907549
    149          1           0        0.506016    0.246737    0.054083
    150          1           0        0.588788   -1.271311    1.020268
    151          1           0       -1.003522   -0.536571    0.531349
    152          1           0       -4.424894   -5.656262    0.695153
    153          1           0       -3.147467   -5.036350   -0.400327
    154          1           0       -4.754446   -5.493190   -1.093994
    155          1           0       -9.118047   -3.050200    0.044118
    156          1           0      -11.770830   -3.717258    3.375883
    157          1           0      -11.705197   -1.843028    3.292900
    158          1           0      -10.577344   -2.871962    4.210215
 ---------------------------------------------------------------------

 SCF Done:  E(RCAM-B3LYP) =  -4069.81286700     A.U. after   19 cycles

 Excitation energies and oscillator strengths:

 Excited State   1:      Singlet-A      1.6539 eV  749.67 nm  f=0.0056  <S**2>=0.000
     309 -> 315       -0.11124
     310 -> 316        0.12654
     311 -> 313       -0.45162
     312 -> 314        0.51805
 This state for optimization and/or second-order correction.
 Total Energy, E(TD-HF/TD-DFT) =  -4069.75208886
 Copying the excited state density for this state as the 1-particle RhoCI density.

 Excited State   2:      Singlet-A      1.6968 eV  730.69 nm  f=0.7108  <S**2>=0.000
     309 -> 315        0.13586
     310 -> 316        0.11733
     311 -> 313        0.51618
     312 -> 314        0.44994

 Excited State   3:      Singlet-A      2.1835 eV  567.82 nm  f=0.0963  <S**2>=0.000
     310 -> 314        0.63590
     312 -> 316       -0.26815

 Excited State   4:      Singlet-A      2.1961 eV  564.58 nm  f=0.1029  <S**2>=0.000
     309 -> 313        0.63312
     311 -> 315       -0.27682

 Excited State   5:      Singlet-A      2.4980 eV  496.33 nm  f=0.0000  <S**2>=0.000
     312 -> 313        0.70660

 The electronic state is 1-A.
 Alpha  occ. eigenvalues --  -46.87815 -46.87447 -19.26429 -19.26213 -19.19201
 Alpha  occ. eigenvalues --  -19.19014 -19.18723 -19.18590 -19.18203 -19.17871
 Alpha  occ. eigenvalues --  -14.42468 -14.42295 -14.41445 -14.41120 -14.39399
 Alpha  occ. eigenvalues --  -14.39149 -14.38610 -14.38386 -10.39241 -10.38941
 Alpha  occ. eigenvalues --  -10.35351 -10.35273 -10.34431 -10.34048 -10.31820
 Alpha  occ. eigenvalues --  -10.31637 -10.31439 -10.31101 -10.30924 -10.30849
 Alpha  occ. eigenvalues --  -10.30587 -10.30506 -10.30179 -10.30169 -10.30140
 Alpha  occ. eigenvalues --  -10.29921 -10.29876 -10.29642 -10.29619 -10.29231
 Alpha  occ. eigenvalues --  -10.29230 -10.29193 -10.28810 -10.28643 -10.28565
 Alpha  occ. eigenvalues --  -10.28538 -10.28376 -10.28218 -10.28156 -10.27980
 Alpha  occ. eigenvalues --  -10.27799 -10.27785 -10.27730 -10.27558 -10.27467
 Alpha  occ. eigenvalues --  -10.27445 -10.27426 -10.27404 -10.27383 -10.27322
 Alpha  occ. eigenvalues --  -10.27284 -10.27271 -10.27225 -10.27078 -10.27066
 Alpha  occ. eigenvalues --  -10.26879 -10.26829 -10.26555 -10.26337 -10.26259
 Alpha  occ. eigenvalues --  -10.26231 -10.26095 -10.26006 -10.25880 -10.25832
 Alpha  occ. eigenvalues --  -10.25652 -10.25550 -10.25449 -10.25390 -10.25162
 Alpha  occ. eigenvalues --  -10.24840 -10.24780 -10.24673 -10.24577 -10.24477
 Alpha  occ. eigenvalues --  -10.24303  -3.16556  -3.16198  -1.91438  -1.91080
 Alpha  occ. eigenvalues --   -1.91024  -1.90866  -1.90668  -1.90505  -1.16780
 Alpha  occ. eigenvalues --   -1.16504  -1.08673  -1.08480  -1.07120  -1.06848
 Alpha  occ. eigenvalues --   -1.06809  -1.06799  -1.04600  -1.04297  -1.03758
 Alpha  occ. eigenvalues --   -1.03448  -1.03234  -1.02809  -1.02414  -1.01892
 Alpha  occ. eigenvalues --   -0.92000  -0.91788  -0.89491  -0.89236  -0.89186
 Alpha  occ. eigenvalues --   -0.88973  -0.88255  -0.87890  -0.87871  -0.87685
 Alpha  occ. eigenvalues --   -0.87563  -0.87471  -0.87212  -0.86954  -0.85014
 Alpha  occ. eigenvalues --   -0.84822  -0.83903  -0.83551  -0.82883  -0.82753
 Alpha  occ. eigenvalues --   -0.82649  -0.82464  -0.81640  -0.81406  -0.80610
 Alpha  occ. eigenvalues --   -0.80253  -0.78761  -0.78441  -0.77213  -0.76968
 Alpha  occ. eigenvalues --   -0.76940  -0.76675  -0.75955  -0.75655  -0.74880
 Alpha  occ. eigenvalues --   -0.74552  -0.72770  -0.72469  -0.71680  -0.71373
 Alpha  occ. eigenvalues --   -0.69852  -0.69356  -0.68890  -0.68640  -0.67643
 Alpha  occ. eigenvalues --   -0.67401  -0.67240  -0.67047  -0.65330  -0.65091
 Alpha  occ. eigenvalues --   -0.64878  -0.64637  -0.64545  -0.64443  -0.64246
 Alpha  occ. eigenvalues --   -0.63872  -0.62364  -0.62072  -0.60396  -0.60139
 Alpha  occ. eigenvalues --   -0.59835  -0.59616  -0.58995  -0.58768  -0.58513
 Alpha  occ. eigenvalues --   -0.58203  -0.57652  -0.57372  -0.57295  -0.56989
 Alpha  occ. eigenvalues --   -0.56311  -0.56055  -0.55992  -0.55714  -0.55492
 Alpha  occ. eigenvalues --   -0.55347  -0.55289  -0.54988  -0.54553  -0.54217
 Alpha  occ. eigenvalues --   -0.53944  -0.53746  -0.53286  -0.53214  -0.53030
 Alpha  occ. eigenvalues --   -0.52959  -0.52947  -0.52708  -0.52699  -0.52529
 Alpha  occ. eigenvalues --   -0.52378  -0.51951  -0.51919  -0.51635  -0.51628
 Alpha  occ. eigenvalues --   -0.51502  -0.51211  -0.50964  -0.50466  -0.50320
 Alpha  occ. eigenvalues --   -0.49987  -0.49879  -0.49806  -0.49580  -0.49509
 Alpha  occ. eigenvalues --   -0.49327  -0.49219  -0.49122  -0.49030  -0.48913
 Alpha  occ. eigenvalues --   -0.48632  -0.48455  -0.48389  -0.48381  -0.48197
 Alpha  occ. eigenvalues --   -0.48124  -0.47684  -0.47392  -0.47277  -0.46924
 Alpha  occ. eigenvalues --   -0.46796  -0.46594  -0.46472  -0.46366  -0.46358
 Alpha  occ. eigenvalues --   -0.46171  -0.46035  -0.45863  -0.45848  -0.45612
 Alpha  occ. eigenvalues --   -0.45173  -0.44967  -0.44607  -0.44480  -0.44349
 Alpha  occ. eigenvalues --   -0.44255  -0.44135  -0.44093  -0.44001  -0.43956
 Alpha  occ. eigenvalues --   -0.43808  -0.43778  -0.43538  -0.43398  -0.43344
 Alpha  occ. eigenvalues --   -0.43186  -0.43032  -0.42797  -0.42758  -0.42685
 Alpha  occ. eigenvalues --   -0.42618  -0.42262  -0.42002  -0.41718  -0.41673
 Alpha  occ. eigenvalues --   -0.41559  -0.41459  -0.41234  -0.41149  -0.40884
 Alpha  occ. eigenvalues --   -0.40792  -0.40763  -0.40587  -0.40545  -0.40481
 Alpha  occ. eigenvalues --   -0.40291  -0.40131  -0.40085  -0.39378  -0.39035
 Alpha  occ. eigenvalues --   -0.38451  -0.38054  -0.37808  -0.37484  -0.37304
 Alpha  occ. eigenvalues --   -0.37300  -0.37026  -0.36958  -0.36817  -0.36587
 Alpha  occ. eigenvalues --   -0.36227  -0.35956  -0.34299  -0.34034  -0.33920
 Alpha  occ. eigenvalues --   -0.33703  -0.33198  -0.32959  -0.31263  -0.31149
 Alpha  occ. eigenvalues --   -0.31038  -0.30765  -0.30070  -0.29774  -0.29430
 Alpha  occ. eigenvalues --   -0.29323  -0.29141  -0.29007  -0.24093  -0.23821
 Alpha  occ. eigenvalues --   -0.21126  -0.20901
 Alpha virt. eigenvalues --   -0.08765  -0.08589  -0.01742  -0.01471  -0.00024
 Alpha virt. eigenvalues --    0.00133   0.02180   0.02368   0.02674   0.03478
 Alpha virt. eigenvalues --    0.04684   0.04924   0.04946   0.05320   0.06084

 Mulliken charges:
               1
     1  Mg   0.833895
     2  C   -0.004017
     3  C   -0.093749
     4  C   -0.045028
     5  C   -0.063451
     6  N   -0.256817
     7  C   -0.054238
     8  C   -0.013396
     9  C   -0.086993
    10  C    0.046005
    11  C    0.104726
    12  C    0.052863
    13  C   -0.071817
    14  H    0.035264
    15  N   -0.433626
    16  C    0.168726
    17  C   -0.175932
    18  C   -0.002757
    19  C    0.149200
    20  C    0.109765
    21  C    0.013960
    22  O   -0.249445
    23  C    0.061266
    24  N   -0.340836
    25  C    0.041433
    26  C   -0.028338
    27  C   -0.023904
    28  C    0.074583
    29  C    0.076127
    30  C    0.035012
    31  C   -0.004836
    32  N   -0.310452
    33  C    0.079319
    34  C   -0.170426
    35  C    0.007953
    36  C    0.081223
    37  C    0.127516
    38  C    0.044980
    39  O   -0.188850
    40  C   -0.005083
    41  C    0.213495
    42  O   -0.260288
    43  O   -0.304091
    44  C    0.157750
    45  H   -0.017314
    46  H   -0.016316
    47  H   -0.041298
    48  H    0.001005
    49  H   -0.003744
    50  H    0.025526
    51  H    0.016786
    52  H    0.016900
    53  H    0.010965
    54  H    0.041955
    55  H    0.018507
    56  H    0.018742
    57  H    0.005605
    58  H    0.026756
    59  H    0.042564
    60  H    0.036561
    61  H    0.035705
    62  H    0.035474
    63  H    0.017194
    64  H    0.009464
    65  H    0.023460
    66  H    0.012421
    67  H    0.004858
    68  H    0.006626
    69  H    0.004878
    70  H    0.009300
    71  H    0.019250
    72  H    0.028462
    73  H    0.047059
    74  H    0.009589
    75  H    0.046096
    76  H    0.035537
    77  H    0.043624
    78  H    0.046685
    79  H    0.052478
    80  Mg   0.837476
    81  C   -0.017337
    82  C   -0.088312
    83  C   -0.045600
    84  C   -0.065010
    85  N   -0.254634
    86  C   -0.049800
    87  C   -0.015141
    88  C   -0.090381
    89  C    0.045591
    90  C    0.114532
    91  C    0.062624
    92  C   -0.077632
    93  H    0.034434
    94  N   -0.423289
    95  C    0.162630
    96  C   -0.175187
    97  C   -0.008476
    98  C    0.152102
    99  C    0.099556
   100  C    0.015430
   101  O   -0.255094
   102  C    0.061530
   103  N   -0.350140
   104  C    0.037570
   105  C   -0.019709
   106  C   -0.037507
   107  C    0.088189
   108  C    0.074868
   109  C    0.035458
   110  C   -0.013234
   111  N   -0.324239
   112  C    0.078778
   113  C   -0.162387
   114  C    0.002005
   115  C    0.096479
   116  C    0.130811
   117  C    0.042453
   118  O   -0.188003
   119  C    0.000914
   120  C    0.211194
   121  O   -0.251152
   122  O   -0.305656
   123  C    0.152152
   124  H   -0.020449
   125  H   -0.016848
   126  H   -0.036293
   127  H   -0.000930
   128  H   -0.004766
   129  H    0.022268
   130  H    0.014324
   131  H    0.015704
   132  H    0.013900
   133  H    0.037612
   134  H    0.020616
   135  H    0.019371
   136  H    0.008434
   137  H    0.025206
   138  H    0.039235
   139  H    0.037918
   140  H    0.034603
   141  H    0.034354
   142  H    0.012971
   143  H    0.015731
   144  H    0.022374
   145  H    0.010068
   146  H    0.006819
   147  H    0.012559
   148  H    0.014330
   149  H    0.007356
   150  H    0.023331
   151  H    0.027529
   152  H    0.045915
   153  H    0.012115
   154  H    0.046680
   155  H    0.034669
   156  H    0.043679
   157  H    0.049295
   158  H    0.053414
 Sum of Mulliken charges =  -0.00000

 Dipole moment (field-independent basis, Debye):
    X=              0.7564    Y=              6.6779    Z=             -4.0233  Tot=              7.8329
 Quadrupole moment (field-independent basis, Debye-Ang):
   XX=           -444.0223   YY=           -541.7702   ZZ=           -483.0446
   XY=            -28.0076   XZ=             -5.5579   YZ=             -5.5065

 Normal termination of Gaussian 16 at Fri Sep 10 10:04:08 2021.
