 Gaussian 16, Revision A.03,
 Gaussian 16:  ES64L-G16RevA.03 25-Dec-2016

 -----------------------------------
 #p cam-b3lyp/Def2SVP td=(nstates=5)
 -----------------------------------

 --------------------------------
 TDDFT excited states in gaussian
 --------------------------------
 Symbolic Z-matrix:
 Charge =  0 Multiplicity = 1

                         Standard orientation:
 ---------------------------------------------------------------------
 Center     Atomic      Atomic             Coordinates (Angstroms)
 Number     Number       Type             X           Y           Z
 ---------------------------------------------------------------------
      1         12           0        6.767773    0.290494    0.023077
      2          6           0        6.729638   -3.261433   -0.418026
      3          6           0        7.580636    0.542682   -3.281272
      4          6           0        7.252165    3.389436    0.490566
      5          6           0        7.075874   -0.286106    3.446272
      6          7           0        7.084545   -1.237792   -1.546841
      7          6           0        6.980997   -2.562016   -1.600515
      8          6           0        7.089810   -3.132131   -3.046372
      9          6           0        7.905076   -1.942120   -3.725499
     10          6           0        7.471340   -0.802822   -2.820073
     11          6           0        9.418271   -2.103243   -3.621652
     12          6           0        5.687986   -3.322329   -3.717524
     13          6           0        5.683506   -4.171730   -4.991829
     14          1           0        4.542801   -5.036575   -5.252948
     15          7           0        6.852905    1.783069   -1.268366
     16          6           0        7.185826    1.701934   -2.579040
     17          6           0        7.102343    3.080739   -3.106873
     18          6           0        6.878737    3.996577   -1.953905
     19          6           0        7.013559    3.084075   -0.847316
     20          6           0        7.182695    3.409453   -4.566065
     21          6           0        6.599849    5.463597   -1.863315
     22          8           0        6.668872    6.102071   -0.757801
     23          6           0        6.326698    6.160029   -3.133516
     24          7           0        7.335064    1.402587    1.696118
     25          6           0        7.414880    2.736686    1.643253
     26          6           0        7.558557    3.329803    3.013475
     27          6           0        7.315506    2.132188    4.041287
     28          6           0        7.145619    0.977981    3.022850
     29          6           0        8.907739    3.996206    3.316174
     30          6           0        6.215964    2.337762    5.113279
     31          6           0        4.856937    2.386692    4.451651
     32          7           0        6.707463   -1.439986    1.331833
     33          6           0        6.881708   -1.451219    2.723303
     34          6           0        6.864950   -2.862688    3.149382
     35          6           0        6.697631   -3.579980    1.966445
     36          6           0        6.641417   -2.675344    0.867916
     37          6           0        7.052628   -3.334222    4.478618
     38          6           0        6.577964   -4.901533    1.372276
     39          8           0        6.465180   -6.045004    1.816400
     40          6           0        6.716139   -4.755082   -0.207371
     41          6           0        5.600069   -5.543839   -0.836306
     42          8           0        4.410943   -5.191069   -0.698834
     43          8           0        6.116214   -6.441965   -1.689246
     44          6           0        5.060183   -7.238236   -2.369618
     45          1           0        8.065542    0.734100   -4.240525
     46          1           0        7.314678    4.457318    0.710016
     47          1           0        7.081726   -0.538554    4.508199
     48          1           0        7.652458   -4.062375   -3.126972
     49          1           0        7.579274   -1.757806   -4.749024
     50          1           0        9.686409   -2.945560   -2.984059
     51          1           0        9.781567   -1.169591   -3.191766
     52          1           0        9.869284   -2.172675   -4.611876
     53          1           0        5.353990   -2.369614   -4.128426
     54          1           0        4.972522   -3.736022   -3.005980
     55          1           0        6.616201   -4.725001   -5.105322
     56          1           0        5.660883   -3.499968   -5.849981
     57          1           0        7.514608    2.553136   -5.151812
     58          1           0        7.979102    4.144052   -4.683575
     59          1           0        6.246545    3.818076   -4.946833
     60          1           0        7.181220    6.041293   -3.800033
     61          1           0        6.061870    7.182130   -2.865141
     62          1           0        5.483333    5.676289   -3.627155
     63          1           0        6.812099    4.104373    3.184549
     64          1           0        8.210598    1.901314    4.619372
     65          1           0        8.822205    5.039589    3.620707
     66          1           0        9.538270    3.897008    2.433064
     67          1           0        9.509217    3.488870    4.069999
     68          1           0        6.358168    3.289174    5.624688
     69          1           0        6.200791    1.553422    5.870136
     70          1           0        4.779297    3.425111    4.131510
     71          1           0        4.074808    2.140246    5.170504
     72          1           0        4.827843    1.766418    3.555604
     73          1           0        6.305803   -4.112646    4.634429
     74          1           0        6.942153   -2.528410    5.203921
     75          1           0        8.075822   -3.704836    4.418824
     76          1           0        7.696465   -5.148694   -0.474114
     77          1           0        5.277554   -8.289202   -2.178690
     78          1           0        5.041886   -6.905804   -3.407674
     79          1           0        4.054230   -7.157745   -1.956194
     80         12           0       -6.439789    1.149045    0.342801
     81          6           0       -8.014712   -2.073751    0.232047
     82          6           0       -7.196503    1.466902   -2.967933
     83          6           0       -4.672471    3.783734    0.293744
     84          6           0       -4.836846    0.111440    3.258214
     85          7           0       -7.474966   -0.197256   -1.074285
     86          6           0       -8.084669   -1.369957   -0.988287
     87          6           0       -8.878418   -1.776883   -2.258693
     88          6           0       -8.077857   -0.894430   -3.335376
     89          6           0       -7.576922    0.217582   -2.416053
     90          6           0       -6.871676   -1.608992   -3.921788
     91          6           0      -10.388197   -1.356838   -2.180274
     92          6           0      -11.288210   -1.991084   -3.243031
     93          1           0      -12.658647   -2.338458   -2.877363
     94          7           0       -6.406584    2.649195   -0.956050
     95          6           0       -6.770017    2.608987   -2.255118
     96          6           0       -6.540617    3.964293   -2.779204
     97          6           0       -5.857354    4.764697   -1.726958
     98          6           0       -5.594554    3.735075   -0.741608
     99          6           0       -7.028733    4.408818   -4.127374
    100          6           0       -5.488609    6.214111   -1.629854
    101          8           0       -4.687021    6.645991   -0.727764
    102          6           0       -6.019602    7.097334   -2.678402
    103          7           0       -4.809226    1.774282    1.470919
    104          6           0       -4.261147    2.987259    1.280527
    105          6           0       -3.287200    3.325059    2.384021
    106          6           0       -3.476626    2.184031    3.488438
    107          6           0       -4.508939    1.295695    2.760030
    108          6           0       -1.816410    3.397127    1.974186
    109          6           0       -3.793671    2.650956    4.935553
    110          6           0       -5.166859    3.281242    4.985321
    111          7           0       -6.546460   -0.568250    1.649535
    112          6           0       -5.767418   -0.813173    2.801581
    113          6           0       -6.121762   -2.162324    3.288028
    114          6           0       -7.073134   -2.621558    2.364718
    115          6           0       -7.281096   -1.636797    1.361484
    116          6           0       -5.548919   -2.817574    4.414363
    117          6           0       -7.940912   -3.719756    2.004684
    118          8           0       -8.254364   -4.787387    2.529697
    119          6           0       -8.495861   -3.465156    0.537165
    120          6           0       -9.980672   -3.705120    0.553939
    121          8           0      -10.733125   -2.965062    1.211775
    122          8           0      -10.288466   -4.627679   -0.375846
    123          6           0      -11.751770   -4.891668   -0.405081
    124          1           0       -7.182302    1.571984   -4.053126
    125          1           0       -4.115633    4.719127    0.385628
    126          1           0       -4.453236   -0.245267    4.216485
    127          1           0       -8.814504   -2.827034   -2.517298
    128          1           0       -8.746597   -0.491669   -4.091633
    129          1           0       -6.682680   -2.551139   -3.429073
    130          1           0       -6.035559   -0.935839   -3.784551
    131          1           0       -6.990992   -1.724884   -5.002840
    132          1           0      -10.480922   -0.300033   -2.461901
    133          1           0      -10.788006   -1.552844   -1.204383
    134          1           0      -10.799715   -2.833662   -3.747400
    135          1           0      -11.452635   -1.260952   -4.039195
    136          1           0       -7.349764    3.557212   -4.739830
    137          1           0       -6.164145    4.817141   -4.661818
    138          1           0       -7.800421    5.178906   -4.063068
    139          1           0       -5.682824    6.746353   -3.650945
    140          1           0       -5.722090    8.106917   -2.388394
    141          1           0       -7.112788    7.022755   -2.678145
    142          1           0       -3.522253    4.285174    2.826778
    143          1           0       -2.567323    1.576607    3.606855
    144          1           0       -1.345908    4.371246    2.206110
    145          1           0       -1.746079    3.183225    0.915954
    146          1           0       -1.177965    2.629404    2.407993
    147          1           0       -3.086261    3.423075    5.247902
    148          1           0       -3.742799    1.852268    5.668017
    149          1           0       -4.979356    4.307625    4.655966
    150          1           0       -5.562551    3.257956    5.998682
    151          1           0       -5.839263    2.817998    4.253927
    152          1           0       -6.364915   -3.279311    4.954221
    153          1           0       -4.999472   -2.120059    5.043141
    154          1           0       -4.885958   -3.526525    3.911228
    155          1           0       -7.977660   -4.152293   -0.132830
    156          1           0      -11.885100   -5.968392   -0.261625
    157          1           0      -12.113924   -4.461785   -1.357863
    158          1           0      -12.349034   -4.494516    0.407333
 ---------------------------------------------------------------------

 SCF Done:  E(RCAM-B3LYP) =  -4069.81168026     A.U. after   19 cycles

 Excitation energies and oscillator strengths:

 Excited State   1:      Singlet-A      1.6653 eV  744.51 nm  f=0.0082  <S**2>=0.000
     309 -> 315       -0.10874
     310 -> 316        0.13245
     311 -> 313       -0.43430
     312 -> 314        0.53183
 This state for optimization and/or second-order correction.
 Total Energy, E(TD-HF/TD-DFT) =  -4069.75048097
 Copying the excited state density for this state as the 1-particle RhoCI density.

 Excited State   2:      Singlet-A      1.6895 eV  733.85 nm  f=0.7349  <S**2>=0.000
     309 -> 315        0.13796
     310 -> 316        0.11205
     311 -> 313        0.53063
     312 -> 314        0.43339

 Excited State   3:      Singlet-A      2.1848 eV  567.49 nm  f=0.0609  <S**2>=0.000
     309 -> 313       -0.16958
     310 -> 314        0.62025
     312 -> 316       -0.26260

 Excited State   4:      Singlet-A      2.1936 eV  565.21 nm  f=0.1320  <S**2>=0.000
     309 -> 313        0.61790
     310 -> 314        0.16792
     311 -> 315       -0.26919

 Excited State   5:      Singlet-A      2.6552 eV  466.94 nm  f=0.0000  <S**2>=0.000
     312 -> 313        0.70701

 The electronic state is 1-A.
 Alpha  occ. eigenvalues --  -46.87827 -46.87549 -19.26299 -19.26260 -19.19068
 Alpha  occ. eigenvalues --  -19.19038 -19.18821 -19.18626 -19.18188 -19.17936
 Alpha  occ. eigenvalues --  -14.42479 -14.42389 -14.41481 -14.41245 -14.39430
 Alpha  occ. eigenvalues --  -14.39244 -14.38616 -14.38485 -10.39098 -10.38995
 Alpha  occ. eigenvalues --  -10.35454 -10.35306 -10.34408 -10.34113 -10.31690
 Alpha  occ. eigenvalues --  -10.31677 -10.31435 -10.31199 -10.30934 -10.30925
 Alpha  occ. eigenvalues --  -10.30599 -10.30535 -10.30283 -10.30247 -10.30238
 Alpha  occ. eigenvalues --  -10.30030 -10.29952 -10.29772 -10.29656 -10.29328
 Alpha  occ. eigenvalues --  -10.29291 -10.29280 -10.28778 -10.28630 -10.28589
 Alpha  occ. eigenvalues --  -10.28575 -10.28390 -10.28298 -10.28145 -10.28049
 Alpha  occ. eigenvalues --  -10.27889 -10.27817 -10.27756 -10.27607 -10.27564
 Alpha  occ. eigenvalues --  -10.27544 -10.27503 -10.27485 -10.27430 -10.27397
 Alpha  occ. eigenvalues --  -10.27392 -10.27375 -10.27362 -10.27248 -10.27178
 Alpha  occ. eigenvalues --  -10.26940 -10.26738 -10.26615 -10.26402 -10.26353
 Alpha  occ. eigenvalues --  -10.26260 -10.26249 -10.26052 -10.26031 -10.25933
 Alpha  occ. eigenvalues --  -10.25869 -10.25816 -10.25693 -10.25462 -10.25247
 Alpha  occ. eigenvalues --  -10.24857 -10.24815 -10.24781 -10.24757 -10.24634
 Alpha  occ. eigenvalues --  -10.24577  -3.16570  -3.16299  -1.91451  -1.91181
 Alpha  occ. eigenvalues --   -1.91038  -1.90880  -1.90770  -1.90607  -1.16648
 Alpha  occ. eigenvalues --   -1.16553  -1.08645  -1.08543  -1.07221  -1.06879
 Alpha  occ. eigenvalues --   -1.06852  -1.06660  -1.04609  -1.04388  -1.03790
 Alpha  occ. eigenvalues --   -1.03552  -1.03262  -1.02924  -1.02440  -1.01998
 Alpha  occ. eigenvalues --   -0.91998  -0.91877  -0.89560  -0.89381  -0.89217
 Alpha  occ. eigenvalues --   -0.89058  -0.88325  -0.88103  -0.87896  -0.87702
 Alpha  occ. eigenvalues --   -0.87667  -0.87577  -0.87292  -0.87029  -0.85010
 Alpha  occ. eigenvalues --   -0.84904  -0.83979  -0.83760  -0.82984  -0.82844
 Alpha  occ. eigenvalues --   -0.82673  -0.82560  -0.81609  -0.81494  -0.80620
 Alpha  occ. eigenvalues --   -0.80341  -0.78820  -0.78533  -0.77252  -0.77043
 Alpha  occ. eigenvalues --   -0.76965  -0.76797  -0.75949  -0.75740  -0.74931
 Alpha  occ. eigenvalues --   -0.74684  -0.72803  -0.72585  -0.71700  -0.71470
 Alpha  occ. eigenvalues --   -0.69960  -0.69646  -0.68900  -0.68731  -0.67665
 Alpha  occ. eigenvalues --   -0.67495  -0.67245  -0.67114  -0.65316  -0.65175
 Alpha  occ. eigenvalues --   -0.64882  -0.64662  -0.64651  -0.64552  -0.64307
 Alpha  occ. eigenvalues --   -0.64091  -0.62321  -0.62178  -0.60465  -0.60239
 Alpha  occ. eigenvalues --   -0.59832  -0.59697  -0.59016  -0.58882  -0.58531
 Alpha  occ. eigenvalues --   -0.58317  -0.57606  -0.57446  -0.57336  -0.57128
 Alpha  occ. eigenvalues --   -0.56334  -0.56097  -0.55999  -0.55793  -0.55540
 Alpha  occ. eigenvalues --   -0.55373  -0.55357  -0.55134  -0.54555  -0.54380
 Alpha  occ. eigenvalues --   -0.53924  -0.53820  -0.53324  -0.53243  -0.53123
 Alpha  occ. eigenvalues --   -0.53045  -0.52941  -0.52804  -0.52775  -0.52587
 Alpha  occ. eigenvalues --   -0.52493  -0.52295  -0.51941  -0.51745  -0.51640
 Alpha  occ. eigenvalues --   -0.51569  -0.51226  -0.51093  -0.50587  -0.50394
 Alpha  occ. eigenvalues --   -0.50072  -0.49938  -0.49885  -0.49755  -0.49536
 Alpha  occ. eigenvalues --   -0.49395  -0.49237  -0.49122  -0.49103  -0.49000
 Alpha  occ. eigenvalues --   -0.48617  -0.48489  -0.48460  -0.48455  -0.48255
 Alpha  occ. eigenvalues --   -0.48247  -0.47721  -0.47498  -0.47321  -0.47016
 Alpha  occ. eigenvalues --   -0.46831  -0.46601  -0.46582  -0.46461  -0.46389
 Alpha  occ. eigenvalues --   -0.46191  -0.46162  -0.45966  -0.45846  -0.45708
 Alpha  occ. eigenvalues --   -0.45236  -0.45090  -0.44602  -0.44534  -0.44413
 Alpha  occ. eigenvalues --   -0.44374  -0.44179  -0.44115  -0.44039  -0.44028
 Alpha  occ. eigenvalues --   -0.43975  -0.43844  -0.43519  -0.43452  -0.43416
 Alpha  occ. eigenvalues --   -0.43281  -0.43055  -0.42832  -0.42790  -0.42730
 Alpha  occ. eigenvalues --   -0.42690  -0.42445  -0.42051  -0.41861  -0.41730
 Alpha  occ. eigenvalues --   -0.41564  -0.41560  -0.41363  -0.41168  -0.40904
 Alpha  occ. eigenvalues --   -0.40882  -0.40837  -0.40636  -0.40609  -0.40606
 Alpha  occ. eigenvalues --   -0.40381  -0.40263  -0.40146  -0.39499  -0.39315
 Alpha  occ. eigenvalues --   -0.38507  -0.38236  -0.37779  -0.37565  -0.37356
 Alpha  occ. eigenvalues --   -0.37292  -0.37155  -0.37100  -0.36737  -0.36673
 Alpha  occ. eigenvalues --   -0.36221  -0.36108  -0.34315  -0.34142  -0.33790
 Alpha  occ. eigenvalues --   -0.33765  -0.33214  -0.33064  -0.31352  -0.31184
 Alpha  occ. eigenvalues --   -0.31062  -0.30864  -0.30047  -0.29840  -0.29471
 Alpha  occ. eigenvalues --   -0.29347  -0.29223  -0.29094  -0.24109  -0.23923
 Alpha  occ. eigenvalues --   -0.21156  -0.21006
 Alpha virt. eigenvalues --   -0.08800  -0.08682  -0.01777  -0.01573  -0.00076
 Alpha virt. eigenvalues --    0.00068   0.02177   0.02324   0.03076   0.03327
 Alpha virt. eigenvalues --    0.04687   0.04833   0.05080   0.05262   0.06145

 Mulliken charges:
               1
     1  Mg   0.838430
     2  C   -0.002932
     3  C   -0.094137
     4  C   -0.045833
     5  C   -0.064099
     6  N   -0.256751
     7  C   -0.052531
     8  C   -0.013984
     9  C   -0.086999
    10  C    0.046318
    11  C    0.104793
    12  C    0.053506
    13  C   -0.071740
    14  H    0.035992
    15  N   -0.433183
    16  C    0.168465
    17  C   -0.177094
    18  C   -0.003847
    19  C    0.148703
    20  C    0.110191
    21  C    0.012566
    22  O   -0.249371
    23  C    0.062372
    24  N   -0.341074
    25  C    0.041159
    26  C   -0.028267
    27  C   -0.023932
    28  C    0.074615
    29  C    0.076116
    30  C    0.035232
    31  C   -0.004544
    32  N   -0.310435
    33  C    0.080192
    34  C   -0.169895
    35  C    0.008439
    36  C    0.082823
    37  C    0.127339
    38  C    0.046100
    39  O   -0.188222
    40  C   -0.005349
    41  C    0.212963
    42  O   -0.257170
    43  O   -0.304797
    44  C    0.157615
    45  H   -0.017574
    46  H   -0.016680
    47  H   -0.041607
    48  H    0.001020
    49  H   -0.004112
    50  H    0.025552
    51  H    0.016495
    52  H    0.016673
    53  H    0.011065
    54  H    0.044126
    55  H    0.017983
    56  H    0.017800
    57  H    0.005764
    58  H    0.026923
    59  H    0.039608
    60  H    0.037178
    61  H    0.036128
    62  H    0.031676
    63  H    0.016568
    64  H    0.009602
    65  H    0.023369
    66  H    0.012663
    67  H    0.004806
    68  H    0.006512
    69  H    0.004696
    70  H    0.008992
    71  H    0.017005
    72  H    0.028898
    73  H    0.047589
    74  H    0.008923
    75  H    0.046146
    76  H    0.035230
    77  H    0.043146
    78  H    0.046261
    79  H    0.053832
    80  Mg   0.838042
    81  C   -0.016853
    82  C   -0.088016
    83  C   -0.045596
    84  C   -0.064080
    85  N   -0.254561
    86  C   -0.049647
    87  C   -0.015118
    88  C   -0.090535
    89  C    0.045824
    90  C    0.114436
    91  C    0.062585
    92  C   -0.077729
    93  H    0.034658
    94  N   -0.423409
    95  C    0.162852
    96  C   -0.175025
    97  C   -0.008023
    98  C    0.152027
    99  C    0.099568
   100  C    0.015296
   101  O   -0.253185
   102  C    0.061290
   103  N   -0.349971
   104  C    0.037588
   105  C   -0.019919
   106  C   -0.034911
   107  C    0.089013
   108  C    0.073454
   109  C    0.034690
   110  C   -0.007608
   111  N   -0.324260
   112  C    0.078567
   113  C   -0.162576
   114  C    0.002432
   115  C    0.096315
   116  C    0.131450
   117  C    0.042688
   118  O   -0.187654
   119  C    0.000797
   120  C    0.211203
   121  O   -0.251174
   122  O   -0.305562
   123  C    0.152087
   124  H   -0.020191
   125  H   -0.015583
   126  H   -0.040025
   127  H   -0.000648
   128  H   -0.004696
   129  H    0.022826
   130  H    0.014538
   131  H    0.015710
   132  H    0.013816
   133  H    0.037670
   134  H    0.020722
   135  H    0.019370
   136  H    0.008460
   137  H    0.025502
   138  H    0.039474
   139  H    0.037826
   140  H    0.036172
   141  H    0.033793
   142  H    0.014152
   143  H    0.013263
   144  H    0.025309
   145  H    0.011650
   146  H    0.006390
   147  H    0.006013
   148  H    0.003686
   149  H    0.010821
   150  H    0.017667
   151  H    0.030082
   152  H    0.045768
   153  H    0.008518
   154  H    0.048490
   155  H    0.035347
   156  H    0.043873
   157  H    0.049308
   158  H    0.053478
 Sum of Mulliken charges =  -0.00000

 Dipole moment (field-independent basis, Debye):
    X=              2.7580    Y=              3.0365    Z=             -7.8347  Tot=              8.8436
 Quadrupole moment (field-independent basis, Debye-Ang):
   XX=           -490.7641   YY=           -561.3245   ZZ=           -446.6454
   XY=             -8.1571   XZ=             27.7681   YZ=             22.3997

 Normal termination of Gaussian 16 at Sat Sep 11 15:30:37 2021.
