 Gaussian 16, Revision A.03,
 Gaussian 16:  ES64L-G16RevA.03 25-Dec-2016

 -----------------------------------
 #p cam-b3lyp/Def2SVP td=(nstates=5)
 -----------------------------------

 --------------------------------
 TDDFT excited states in gaussian
 --------------------------------
 Symbolic Z-matrix:
 Charge =  0 Multiplicity = 1

                         Standard orientation:
 ---------------------------------------------------------------------
 Center     Atomic      Atomic             Coordinates (Angstroms)
 Number     Number       Type             X           Y           Z
 ---------------------------------------------------------------------
      1         12           0        5.244789    0.758035    1.014929
      2          6           0        5.968243   -2.445341   -0.408873
      3          6           0        6.665998    2.146324   -1.759217
      4          6           0        5.029363    3.578216    2.449082
      5          6           0        4.935737   -0.844672    4.094130
      6          7           0        6.163405   -0.140214   -0.787830
      7          6           0        6.324302   -1.380210   -1.239153
      8          6           0        6.837231   -1.440994   -2.709045
      9          6           0        7.537364   -0.010907   -2.790682
     10          6           0        6.718107    0.720832   -1.742207
     11          6           0        8.998391   -0.021934   -2.352753
     12          6           0        5.667383   -1.565952   -3.742279
     13          6           0        6.088367   -1.957299   -5.161776
     14          1           0        5.210616   -2.817971   -5.940329
     15          7           0        5.314804    2.584838    0.266105
     16          6           0        5.922684    2.966343   -0.882905
     17          6           0        5.693166    4.422348   -1.001442
     18          6           0        5.066050    4.888828    0.266318
     19          6           0        5.136541    3.691950    1.065000
     20          6           0        6.012478    5.207817   -2.236281
     21          6           0        4.503540    6.207381    0.694257
     22          8           0        4.219348    6.461820    1.914531
     23          6           0        4.375014    7.237563   -0.352285
     24          7           0        5.231495    1.333389    3.021525
     25          6           0        5.068160    2.614052    3.371107
     26          6           0        4.809001    2.749669    4.842291
     27          6           0        4.586858    1.266507    5.390595
     28          6           0        4.853113    0.487622    4.078834
     29          6           0        5.915513    3.434353    5.656447
     30          6           0        3.269503    0.990413    6.157905
     31          6           0        2.093764    1.092194    5.212189
     32          7           0        5.239741   -1.295186    1.718707
     33          6           0        5.119179   -1.731188    3.046126
     34          6           0        5.279831   -3.196845    3.035693
     35          6           0        5.500636   -3.511904    1.696355
     36          6           0        5.505392   -2.315979    0.923029
     37          6           0        5.271715   -4.044245    4.178620
     38          6           0        5.758173   -4.578213    0.742145
     39          8           0        5.772488   -5.808649    0.799723
     40          6           0        6.192366   -3.918942   -0.640847
     41          6           0        5.400581   -4.587486   -1.731459
     42          8           0        4.164263   -4.436282   -1.809054
     43          8           0        6.242631   -5.099769   -2.641986
     44          6           0        5.520602   -5.752019   -3.766886
     45          1           0        7.295262    2.689086   -2.467296
     46          1           0        4.842761    4.519369    2.970472
     47          1           0        4.767588   -1.421350    5.005515
     48          1           0        7.569039   -2.225386   -2.902979
     49          1           0        7.403243    0.452670   -3.767836
     50          1           0        9.281352   -0.987365   -1.933474
     51          1           0        9.081884    0.760161   -1.597869
     52          1           0        9.650646    0.281552   -3.172043
     53          1           0        5.253213   -0.576833   -3.937645
     54          1           0        4.910253   -2.264914   -3.385163
     55          1           0        7.111284   -2.334172   -5.184514
     56          1           0        6.119086   -1.053461   -5.770327
     57          1           0        6.614169    4.628164   -2.935219
     58          1           0        6.663163    6.027686   -1.932746
     59          1           0        5.116435    5.606493   -2.712199
     60          1           0        5.356384    7.437384   -0.783022
     61          1           0        3.872650    8.082419    0.117501
     62          1           0        3.759404    6.843852   -1.161584
     63          1           0        3.911207    3.337600    5.028650
     64          1           0        5.368947    0.967105    6.088713
     65          1           0        5.573698    4.308233    6.211605
     66          1           0        6.723350    3.696167    4.973700
     67          1           0        6.431182    2.784999    6.363442
     68          1           0        3.120467    1.737725    6.936531
     69          1           0        3.244790    0.008795    6.631262
     70          1           0        1.890611    2.162286    5.190651
     71          1           0        1.239666    0.540516    5.606370
     72          1           0        2.369212    0.792400    4.200884
     73          1           0        4.668882   -4.911894    3.910766
     74          1           0        4.862983   -3.531338    5.048946
     75          1           0        6.335945   -4.256149    4.280444
     76          1           0        7.262895   -4.091145   -0.747776
     77          1           0        5.887150   -6.776503   -3.832526
     78          1           0        5.656788   -5.109196   -4.636735
     79          1           0        4.453816   -5.924171   -3.619677
     80         12           0       -5.068441    0.113703   -1.249318
     81          6           0       -6.549864   -1.443638    1.624551
     82          6           0       -6.945672    2.871080   -0.536955
     83          6           0       -4.127542    1.346968   -4.017208
     84          6           0       -4.212233   -3.075556   -2.363429
     85          7           0       -6.522007    0.537930    0.362955
     86          6           0       -6.958640   -0.107196    1.434175
     87          6           0       -7.821726    0.753066    2.395733
     88          6           0       -8.331001    1.853212    1.342549
     89          6           0       -7.181489    1.781859    0.339458
     90          6           0       -9.612648    1.455635    0.629343
     91          6           0       -6.970520    1.405230    3.541215
     92          6           0       -7.787437    2.002412    4.689166
     93          1           0       -7.250987    1.914470    6.044511
     94          7           0       -5.083844    1.992010   -1.889840
     95          6           0       -5.897272    2.986204   -1.476071
     96          6           0       -5.523175    4.168063   -2.268160
     97          6           0       -4.534897    3.748461   -3.298676
     98          6           0       -4.559977    2.310817   -3.118021
     99          6           0       -6.031099    5.547040   -1.961763
    100          6           0       -3.713858    4.513395   -4.292146
    101          8           0       -3.098846    3.926625   -5.251456
    102          6           0       -3.726927    5.977962   -4.164294
    103          7           0       -4.471857   -0.745928   -3.045835
    104          6           0       -4.062457    0.016638   -4.074810
    105          6           0       -3.423983   -0.822736   -5.155641
    106          6           0       -3.271203   -2.286197   -4.529112
    107          6           0       -3.959366   -2.051234   -3.166536
    108          6           0       -4.195468   -0.911072   -6.472225
    109          6           0       -1.849617   -2.911977   -4.541056
    110          6           0       -0.939241   -2.142684   -3.611116
    111          7           0       -5.153665   -1.889783   -0.445038
    112          6           0       -4.766656   -3.084969   -1.089878
    113          6           0       -5.118972   -4.200307   -0.187486
    114          6           0       -5.712147   -3.573137    0.918535
    115          6           0       -5.746681   -2.167770    0.710606
    116          6           0       -4.926766   -5.583971   -0.460755
    117          6           0       -6.326575   -3.781251    2.209988
    118          8           0       -6.494491   -4.753048    2.945627
    119          6           0       -7.010875   -2.422041    2.668975
    120          6           0       -6.614793   -2.161506    4.096478
    121          8           0       -5.429222   -1.928486    4.390985
    122          8           0       -7.725164   -2.015610    4.842239
    123          6           0       -7.383955   -1.744438    6.264163
    124          1           0       -7.654158    3.699886   -0.536830
    125          1           0       -3.690951    1.728129   -4.943258
    126          1           0       -3.889167   -4.092699   -2.595210
    127          1           0       -8.668053    0.236098    2.831912
    128          1           0       -8.381215    2.840017    1.795375
    129          1           0       -9.906410    0.443146    0.863231
    130          1           0       -9.403756    1.554338   -0.427851
    131          1           0      -10.405282    2.176755    0.848547
    132          1           0       -6.491925    2.315541    3.157777
    133          1           0       -6.257007    0.705631    3.931213
    134          1           0       -8.832673    1.670852    4.667300
    135          1           0       -7.846392    3.084229    4.547018
    136          1           0       -6.869027    5.519095   -1.254299
    137          1           0       -6.468967    5.939213   -2.886068
    138          1           0       -5.240113    6.223357   -1.630702
    139          1           0       -4.749216    6.338771   -4.249219
    140          1           0       -3.012301    6.342341   -4.904841
    141          1           0       -3.381605    6.244495   -3.159146
    142          1           0       -2.441178   -0.444606   -5.409044
    143          1           0       -3.882920   -3.025492   -5.066768
    144          1           0       -3.605360   -0.578608   -7.347047
    145          1           0       -5.099515   -0.324233   -6.378124
    146          1           0       -4.585102   -1.898501   -6.713815
    147          1           0       -1.410506   -2.835421   -5.538796
    148          1           0       -1.836943   -3.960617   -4.263230
    149          1           0       -0.613095   -1.299224   -4.226972
    150          1           0       -0.095332   -2.757910   -3.305573
    151          1           0       -1.498812   -1.733771   -2.761803
    152          1           0       -4.535010   -6.028600    0.444411
    153          1           0       -4.252917   -5.733258   -1.301837
    154          1           0       -5.951972   -5.880055   -0.698567
    155          1           0       -8.089059   -2.544673    2.559147
    156          1           0       -7.891646   -2.505132    6.865224
    157          1           0       -7.666176   -0.689906    6.443232
    158          1           0       -6.353685   -1.887379    6.568411
 ---------------------------------------------------------------------

 SCF Done:  E(RCAM-B3LYP) =  -4069.81201633     A.U. after   19 cycles

 Excitation energies and oscillator strengths:

 Excited State   1:      Singlet-A      1.6563 eV  748.57 nm  f=0.0053  <S**2>=0.000
     309 -> 315       -0.11281
     310 -> 316        0.12579
     311 -> 314       -0.45713
     312 -> 313        0.51302
 This state for optimization and/or second-order correction.
 Total Energy, E(TD-HF/TD-DFT) =  -4069.75114923
 Copying the excited state density for this state as the 1-particle RhoCI density.

 Excited State   2:      Singlet-A      1.6955 eV  731.25 nm  f=0.7183  <S**2>=0.000
     309 -> 315        0.13409
     310 -> 316        0.11872
     311 -> 314        0.51117
     312 -> 313        0.45558

 Excited State   3:      Singlet-A      2.1830 eV  567.94 nm  f=0.0349  <S**2>=0.000
     309 -> 314        0.24313
     310 -> 313        0.59594
     311 -> 315       -0.10158
     312 -> 316       -0.25078

 Excited State   4:      Singlet-A      2.1935 eV  565.23 nm  f=0.1509  <S**2>=0.000
     309 -> 314        0.59286
     310 -> 313       -0.24066
     311 -> 315       -0.25888
     312 -> 316        0.10611

 Excited State   5:      Singlet-A      2.5840 eV  479.81 nm  f=0.0000  <S**2>=0.000
     312 -> 314        0.70705

 The electronic state is 1-A.
 Alpha  occ. eigenvalues --  -46.87642 -46.87497 -19.26242 -19.26241 -19.19042
 Alpha  occ. eigenvalues --  -19.18971 -19.18695 -19.18622 -19.18038 -19.17902
 Alpha  occ. eigenvalues --  -14.42342 -14.42304 -14.41294 -14.41188 -14.39252
 Alpha  occ. eigenvalues --  -14.39196 -14.38431 -14.38431 -10.39024 -10.38970
 Alpha  occ. eigenvalues --  -10.35331 -10.35304 -10.34261 -10.34079 -10.31669
 Alpha  occ. eigenvalues --  -10.31668 -10.31259 -10.31147 -10.30888 -10.30778
 Alpha  occ. eigenvalues --  -10.30415 -10.30354 -10.30232 -10.30189 -10.30047
 Alpha  occ. eigenvalues --  -10.29969 -10.29762 -10.29716 -10.29479 -10.29281
 Alpha  occ. eigenvalues --  -10.29241 -10.29101 -10.28643 -10.28597 -10.28562
 Alpha  occ. eigenvalues --  -10.28482 -10.28256 -10.28223 -10.28013 -10.27998
 Alpha  occ. eigenvalues --  -10.27843 -10.27641 -10.27578 -10.27514 -10.27437
 Alpha  occ. eigenvalues --  -10.27348 -10.27333 -10.27331 -10.27316 -10.27316
 Alpha  occ. eigenvalues --  -10.27292 -10.27285 -10.27265 -10.27193 -10.27051
 Alpha  occ. eigenvalues --  -10.26914 -10.26621 -10.26581 -10.26370 -10.26311
 Alpha  occ. eigenvalues --  -10.26122 -10.25947 -10.25910 -10.25852 -10.25805
 Alpha  occ. eigenvalues --  -10.25743 -10.25650 -10.25622 -10.25296 -10.25264
 Alpha  occ. eigenvalues --  -10.24713 -10.24683 -10.24639 -10.24533 -10.24394
 Alpha  occ. eigenvalues --  -10.24262  -3.16385  -3.16246  -1.91266  -1.91128
 Alpha  occ. eigenvalues --   -1.90853  -1.90717  -1.90695  -1.90554  -1.16587
 Alpha  occ. eigenvalues --   -1.16534  -1.08509  -1.08501  -1.07099  -1.06880
 Alpha  occ. eigenvalues --   -1.06827  -1.06590  -1.04438  -1.04343  -1.03608
 Alpha  occ. eigenvalues --   -1.03503  -1.03080  -1.02870  -1.02258  -1.01947
 Alpha  occ. eigenvalues --   -0.91837  -0.91834  -0.89344  -0.89289  -0.89071
 Alpha  occ. eigenvalues --   -0.89017  -0.88117  -0.88013  -0.87707  -0.87614
 Alpha  occ. eigenvalues --   -0.87530  -0.87526  -0.87133  -0.86994  -0.84865
 Alpha  occ. eigenvalues --   -0.84863  -0.83761  -0.83651  -0.82830  -0.82805
 Alpha  occ. eigenvalues --   -0.82530  -0.82514  -0.81482  -0.81453  -0.80472
 Alpha  occ. eigenvalues --   -0.80300  -0.78649  -0.78486  -0.77069  -0.76985
 Alpha  occ. eigenvalues --   -0.76814  -0.76733  -0.75805  -0.75697  -0.74747
 Alpha  occ. eigenvalues --   -0.74625  -0.72618  -0.72526  -0.71535  -0.71431
 Alpha  occ. eigenvalues --   -0.69706  -0.69490  -0.68749  -0.68687  -0.67505
 Alpha  occ. eigenvalues --   -0.67454  -0.67110  -0.67082  -0.65165  -0.65133
 Alpha  occ. eigenvalues --   -0.64720  -0.64605  -0.64503  -0.64488  -0.64101
 Alpha  occ. eigenvalues --   -0.63996  -0.62199  -0.62134  -0.60296  -0.60196
 Alpha  occ. eigenvalues --   -0.59676  -0.59656  -0.58843  -0.58831  -0.58364
 Alpha  occ. eigenvalues --   -0.58266  -0.57475  -0.57412  -0.57164  -0.57071
 Alpha  occ. eigenvalues --   -0.56170  -0.56047  -0.55897  -0.55759  -0.55391
 Alpha  occ. eigenvalues --   -0.55329  -0.55194  -0.55063  -0.54394  -0.54296
 Alpha  occ. eigenvalues --   -0.53784  -0.53781  -0.53158  -0.53101  -0.53078
 Alpha  occ. eigenvalues --   -0.52999  -0.52798  -0.52757  -0.52634  -0.52564
 Alpha  occ. eigenvalues --   -0.52228  -0.52102  -0.51746  -0.51686  -0.51537
 Alpha  occ. eigenvalues --   -0.51503  -0.51053  -0.51026  -0.50437  -0.50359
 Alpha  occ. eigenvalues --   -0.49862  -0.49845  -0.49783  -0.49658  -0.49396
 Alpha  occ. eigenvalues --   -0.49367  -0.49086  -0.49069  -0.48975  -0.48958
 Alpha  occ. eigenvalues --   -0.48475  -0.48420  -0.48327  -0.48312  -0.48230
 Alpha  occ. eigenvalues --   -0.48201  -0.47562  -0.47448  -0.47162  -0.46978
 Alpha  occ. eigenvalues --   -0.46643  -0.46535  -0.46443  -0.46419  -0.46210
 Alpha  occ. eigenvalues --   -0.46098  -0.46019  -0.45918  -0.45695  -0.45662
 Alpha  occ. eigenvalues --   -0.45043  -0.45023  -0.44452  -0.44383  -0.44369
 Alpha  occ. eigenvalues --   -0.44309  -0.43999  -0.43994  -0.43956  -0.43892
 Alpha  occ. eigenvalues --   -0.43864  -0.43817  -0.43390  -0.43381  -0.43248
 Alpha  occ. eigenvalues --   -0.43240  -0.42887  -0.42795  -0.42743  -0.42621
 Alpha  occ. eigenvalues --   -0.42476  -0.42342  -0.41842  -0.41737  -0.41566
 Alpha  occ. eigenvalues --   -0.41513  -0.41411  -0.41293  -0.41007  -0.40843
 Alpha  occ. eigenvalues --   -0.40738  -0.40701  -0.40621  -0.40542  -0.40404
 Alpha  occ. eigenvalues --   -0.40276  -0.40137  -0.40117  -0.39228  -0.39138
 Alpha  occ. eigenvalues --   -0.38308  -0.38161  -0.37645  -0.37525  -0.37158
 Alpha  occ. eigenvalues --   -0.37141  -0.37082  -0.37052  -0.36637  -0.36627
 Alpha  occ. eigenvalues --   -0.36066  -0.36045  -0.34137  -0.34091  -0.33736
 Alpha  occ. eigenvalues --   -0.33704  -0.33041  -0.33013  -0.31225  -0.31180
 Alpha  occ. eigenvalues --   -0.30894  -0.30819  -0.29900  -0.29805  -0.29302
 Alpha  occ. eigenvalues --   -0.29182  -0.29168  -0.29047  -0.23931  -0.23873
 Alpha  occ. eigenvalues --   -0.20974  -0.20954
 Alpha virt. eigenvalues --   -0.08636  -0.08625  -0.01600  -0.01525   0.00075
 Alpha virt. eigenvalues --    0.00096   0.02345   0.02368   0.03253   0.03478
 Alpha virt. eigenvalues --    0.04846   0.04874   0.05163   0.05288   0.06255

 Mulliken charges:
               1
     1  Mg   0.839346
     2  C   -0.003357
     3  C   -0.093959
     4  C   -0.045880
     5  C   -0.063332
     6  N   -0.256769
     7  C   -0.052503
     8  C   -0.014093
     9  C   -0.087027
    10  C    0.046281
    11  C    0.104854
    12  C    0.053444
    13  C   -0.071334
    14  H    0.034462
    15  N   -0.433058
    16  C    0.168533
    17  C   -0.177026
    18  C   -0.004140
    19  C    0.148725
    20  C    0.110151
    21  C    0.012081
    22  O   -0.250178
    23  C    0.062431
    24  N   -0.341231
    25  C    0.041332
    26  C   -0.027995
    27  C   -0.024103
    28  C    0.075106
    29  C    0.076338
    30  C    0.034983
    31  C   -0.004777
    32  N   -0.310580
    33  C    0.080797
    34  C   -0.168748
    35  C    0.008258
    36  C    0.083315
    37  C    0.127152
    38  C    0.046205
    39  O   -0.188594
    40  C   -0.005481
    41  C    0.213147
    42  O   -0.258066
    43  O   -0.304518
    44  C    0.158074
    45  H   -0.017878
    46  H   -0.017187
    47  H   -0.040833
    48  H    0.000654
    49  H   -0.004041
    50  H    0.025310
    51  H    0.016487
    52  H    0.016423
    53  H    0.011948
    54  H    0.043269
    55  H    0.017912
    56  H    0.018403
    57  H    0.005856
    58  H    0.026311
    59  H    0.040097
    60  H    0.037322
    61  H    0.034676
    62  H    0.031896
    63  H    0.016434
    64  H    0.009189
    65  H    0.022754
    66  H    0.012229
    67  H    0.004622
    68  H    0.005748
    69  H    0.005445
    70  H    0.007649
    71  H    0.021469
    72  H    0.029051
    73  H    0.048348
    74  H    0.009969
    75  H    0.045557
    76  H    0.035004
    77  H    0.043020
    78  H    0.046296
    79  H    0.052357
    80  Mg   0.838332
    81  C   -0.017083
    82  C   -0.087976
    83  C   -0.045698
    84  C   -0.063855
    85  N   -0.254545
    86  C   -0.049795
    87  C   -0.015132
    88  C   -0.090463
    89  C    0.045609
    90  C    0.114495
    91  C    0.062556
    92  C   -0.077627
    93  H    0.034312
    94  N   -0.423322
    95  C    0.162744
    96  C   -0.174894
    97  C   -0.008266
    98  C    0.152000
    99  C    0.099425
   100  C    0.015017
   101  O   -0.254278
   102  C    0.061388
   103  N   -0.350298
   104  C    0.037699
   105  C   -0.019378
   106  C   -0.035060
   107  C    0.089575
   108  C    0.074011
   109  C    0.034632
   110  C   -0.009787
   111  N   -0.324365
   112  C    0.079174
   113  C   -0.161699
   114  C    0.002110
   115  C    0.096736
   116  C    0.131247
   117  C    0.042708
   118  O   -0.187795
   119  C    0.000759
   120  C    0.211249
   121  O   -0.250979
   122  O   -0.305653
   123  C    0.152206
   124  H   -0.020187
   125  H   -0.016355
   126  H   -0.039116
   127  H   -0.000882
   128  H   -0.004577
   129  H    0.022281
   130  H    0.014349
   131  H    0.015879
   132  H    0.014131
   133  H    0.037602
   134  H    0.020634
   135  H    0.019549
   136  H    0.008615
   137  H    0.025480
   138  H    0.039498
   139  H    0.038299
   140  H    0.034843
   141  H    0.033901
   142  H    0.013904
   143  H    0.011805
   144  H    0.024058
   145  H    0.011157
   146  H    0.005421
   147  H    0.004462
   148  H    0.005259
   149  H    0.007737
   150  H    0.028496
   151  H    0.029186
   152  H    0.047113
   153  H    0.010132
   154  H    0.046268
   155  H    0.034713
   156  H    0.043729
   157  H    0.049298
   158  H    0.053250
 Sum of Mulliken charges =  -0.00000

 Dipole moment (field-independent basis, Debye):
    X=              0.0430    Y=              6.4246    Z=             -3.0243  Tot=              7.1010
 Quadrupole moment (field-independent basis, Debye-Ang):
   XX=           -456.0506   YY=           -532.7085   ZZ=           -480.3385
   XY=            -17.0839   XZ=            -22.6690   YZ=             20.8526

 Normal termination of Gaussian 16 at Fri Sep 10 12:34:19 2021.
