 Gaussian 16, Revision A.03,
 Gaussian 16:  ES64L-G16RevA.03 25-Dec-2016

 -----------------------------------
 #p cam-b3lyp/Def2SVP td=(nstates=5)
 -----------------------------------

 --------------------------------
 TDDFT excited states in gaussian
 --------------------------------
 Symbolic Z-matrix:
 Charge =  0 Multiplicity = 1

                         Standard orientation:
 ---------------------------------------------------------------------
 Center     Atomic      Atomic             Coordinates (Angstroms)
 Number     Number       Type             X           Y           Z
 ---------------------------------------------------------------------
      1         12           0      -15.942308   -0.628680    0.090752
      2          6           0      -16.115065    2.945405   -0.000251
      3          6           0      -16.808405   -0.606062   -3.209616
      4          6           0      -16.240151   -3.781380    0.259260
      5          6           0      -16.211052   -0.406122    3.558302
      6          7           0      -16.378045    1.023610   -1.316628
      7          6           0      -16.350970    2.350569   -1.241687
      8          6           0      -16.522151    3.050992   -2.622802
      9          6           0      -17.282569    1.886859   -3.402902
     10          6           0      -16.766044    0.692398   -2.620348
     11          6           0      -18.799969    1.948296   -3.260685
     12          6           0      -15.147712    3.387162   -3.293351
     13          6           0      -15.218075    4.355049   -4.478087
     14          1           0      -14.134002    5.306432   -4.670454
     15          7           0      -15.969547   -1.991256   -1.339456
     16          6           0      -16.333848   -1.802901   -2.630616
     17          6           0      -16.183284   -3.116696   -3.292397
     18          6           0      -15.884016   -4.125464   -2.238395
     19          6           0      -16.047265   -3.334152   -1.045687
     20          6           0      -16.275317   -3.306349   -4.775405
     21          6           0      -15.520479   -5.575499   -2.296443
     22          8           0      -15.530038   -6.321212   -1.257985
     23          6           0      -15.234836   -6.128156   -3.632864
     24          7           0      -16.410484   -1.929213    1.655060
     25          6           0      -16.415535   -3.254253    1.472777
     26          6           0      -16.496656   -3.984966    2.780224
     27          6           0      -16.300553   -2.880615    3.916757
     28          6           0      -16.217768   -1.625043    3.014008
     29          6           0      -17.799219   -4.755424    3.036615
     30          6           0      -15.168958   -3.124568    4.946514
     31          6           0      -13.823466   -3.029416    4.262633
     32          7           0      -15.952986    0.967135    1.561910
     33          6           0      -16.098478    0.833025    2.950261
     34          6           0      -16.152964    2.195018    3.512468
     35          6           0      -16.051379    3.032309    2.403203
     36          6           0      -15.966872    2.243429    1.220486
     37          6           0      -16.339292    2.523497    4.884261
     38          6           0      -16.019356    4.410025    1.939812
     39          8           0      -15.962403    5.509616    2.492214
     40          6           0      -16.181968    4.409769    0.355708
     41          6           0      -15.125851    5.319817   -0.209747
     42          8           0      -13.916007    5.025575   -0.125698
     43          8           0      -15.709849    6.264741   -0.962480
     44          6           0      -14.715163    7.183732   -1.577465
     45          1           0      -17.301599   -0.731511   -4.175516
     46          1           0      -16.237351   -4.867341    0.373803
     47          1           0      -16.209036   -0.258726    4.639839
     48          1           0      -17.138254    3.950134   -2.603152
     49          1           0      -16.968286    1.822155   -4.444420
     50          1           0      -19.102105    2.707599   -2.539509
     51          1           0      -19.100624    0.957668   -2.918991
     52          1           0      -19.274786    2.087005   -4.232326
     53          1           0      -14.768835    2.500022   -3.800792
     54          1           0      -14.442172    3.770994   -2.555643
     55          1           0      -16.182837    4.861181   -4.522512
     56          1           0      -15.175293    3.772243   -5.398254
     57          1           0      -16.667465   -2.418118   -5.269177
     58          1           0      -17.031026   -4.071420   -4.952267
     59          1           0      -15.325644   -3.620584   -5.208658
     60          1           0      -16.108458   -5.995500   -4.271407
     61          1           0      -14.906871   -7.154221   -3.470138
     62          1           0      -14.430785   -5.550254   -4.089460
     63          1           0      -15.704026   -4.727461    2.863073
     64          1           0      -17.195033   -2.759733    4.528285
     65          1           0      -17.648257   -5.816637    3.235966
     66          1           0      -18.452676   -4.608045    2.177217
     67          1           0      -18.412642   -4.359737    3.845664
     68          1           0      -15.246216   -4.127814    5.364216
     69          1           0      -15.182520   -2.417865    5.776356
     70          1           0      -13.693716   -4.025521    3.841004
     71          1           0      -13.041738   -2.808560    4.990187
     72          1           0      -13.848352   -2.324456    3.431430
     73          1           0      -15.634762    3.325491    5.104291
     74          1           0      -16.168128    1.658939    5.525233
     75          1           0      -17.382897    2.837641    4.876728
     76          1           0      -17.188414    4.769359    0.143852
     77          1           0      -14.987800    8.196669   -1.281049
     78          1           0      -14.699718    6.955280   -2.643287
     79          1           0      -13.697845    7.122506   -1.189321
     80         12           0       15.816557   -0.891328    0.172160
     81          6           0       16.765122    2.569689    0.197520
     82          6           0       16.050362   -0.776191   -3.228818
     83          6           0       14.552102   -3.800136    0.085982
     84          6           0       14.569975   -0.429803    3.393765
     85          7           0       16.348756    0.743052   -1.219904
     86          6           0       16.750655    1.998634   -1.092105
     87          6           0       17.236749    2.655844   -2.411707
     88          6           0       16.432816    1.732242   -3.450698
     89          6           0       16.294657    0.471029   -2.600444
     90          6           0       15.039611    2.251648   -3.764596
     91          6           0       18.787995    2.525504   -2.608315
     92          6           0       19.372474    3.407563   -3.713804
     93          1           0       20.703153    3.976812   -3.519538
     94          7           0       15.827434   -2.254185   -1.270440
     95          6           0       15.955010   -2.035039   -2.595946
     96          6           0       15.880369   -3.359574   -3.231729
     97          6           0       15.533360   -4.362010   -2.187980
     98          6           0       15.264534   -3.488942   -1.062994
     99          6           0       16.205058   -3.586622   -4.679636
    100          6           0       15.444167   -5.858003   -2.203648
    101          8           0       14.892995   -6.509732   -1.247464
    102          6           0       15.937139   -6.531500   -3.413968
    103          7           0       14.532603   -1.909105    1.451978
    104          6           0       14.179990   -3.183461    1.207841
    105          6           0       13.479001   -3.793119    2.398350
    106          6           0       13.649583   -2.735219    3.585499
    107          6           0       14.374335   -1.607977    2.817739
    108          6           0       11.995608   -4.108432    2.207243
    109          6           0       14.281415   -3.254885    4.905873
    110          6           0       15.731925   -3.614393    4.677420
    111          7           0       15.840475    0.697202    1.636416
    112          6           0       15.235323    0.690405    2.912271
    113          6           0       15.425956    2.035890    3.491725
    114          6           0       16.114136    2.744664    2.495469
    115          6           0       16.318944    1.906559    1.366252
    116          6           0       14.945127    2.471810    4.758573
    117          6           0       16.704553    4.014475    2.138124
    118          8           0       16.910985    5.073542    2.729295
    119          6           0       17.041003    3.996059    0.584792
    120          6           0       18.442780    4.511737    0.407003
    121          8           0       19.412152    3.875004    0.855873
    122          8           0       18.424745    5.551807   -0.446404
    123          6           0       19.793764    6.090815   -0.663404
    124          1           0       15.872699   -0.789199   -4.304528
    125          1           0       14.190042   -4.828728    0.152189
    126          1           0       14.296536   -0.235546    4.433073
    127          1           0       16.948501    3.692811   -2.535782
    128          1           0       17.024868    1.529959   -4.339477
    129          1           0       14.774925    3.095183   -3.144485
    130          1           0       14.368528    1.422561   -3.582081
    131          1           0       14.953725    2.479800   -4.830848
    132          1           0       19.014661    1.533540   -3.019872
    133          1           0       19.305639    2.710106   -1.687126
    134          1           0       18.667138    4.181694   -4.039628
    135          1           0       19.525470    2.792572   -4.603964
    136          1           0       16.265495   -2.640469   -5.231490
    137          1           0       15.347497   -4.104882   -5.122189
    138          1           0       17.098693   -4.198499   -4.819988
    139          1           0       15.385997   -6.169409   -4.278607
    140          1           0       15.872882   -7.600209   -3.200423
    141          1           0       16.984933   -6.250645   -3.568450
    142          1           0       13.948536   -4.725164    2.688052
    143          1           0       12.681400   -2.324179    3.907216
    144          1           0       11.747584   -5.170412    2.393657
    145          1           0       11.712489   -3.822437    1.202962
    146          1           0       11.315308   -3.515964    2.816636
    147          1           0       13.781857   -4.171222    5.229797
    148          1           0       14.215989   -2.545825    5.724369
    149          1           0       15.673372   -4.625834    4.264336
    150          1           0       16.281930   -3.602691    5.616245
    151          1           0       16.180945   -2.971108    3.911769
    152          1           0       15.747150    3.032616    5.219829
    153          1           0       14.638964    1.631535    5.378228
    154          1           0       14.093978    3.081971    4.444705
    155          1           0       16.306090    4.626623    0.082921
    156          1           0       19.759787    7.157031   -0.419027
    157          1           0       20.060059    5.820438   -1.702501
    158          1           0       20.578812    5.746767   -0.000239
 ---------------------------------------------------------------------

 SCF Done:  E(RCAM-B3LYP) =  -4069.81176529     A.U. after   19 cycles

 Excitation energies and oscillator strengths:

 Excited State   1:      Singlet-A      1.6753 eV  740.07 nm  f=0.2124  <S**2>=0.000
     310 -> 316        0.16862
     311 -> 314       -0.16218
     312 -> 313        0.66661
     310 <- 316        0.10166
 This state for optimization and/or second-order correction.
 Total Energy, E(TD-HF/TD-DFT) =  -4069.75019919
 Copying the excited state density for this state as the 1-particle RhoCI density.

 Excited State   2:      Singlet-A      1.6801 eV  737.95 nm  f=0.5650  <S**2>=0.000
     309 -> 315        0.17064
     311 -> 314        0.66624
     312 -> 313        0.16213
     309 <- 315        0.10216

 Excited State   3:      Singlet-A      2.1861 eV  567.15 nm  f=0.0963  <S**2>=0.000
     310 -> 313        0.64215
     312 -> 316       -0.27298

 Excited State   4:      Singlet-A      2.1925 eV  565.48 nm  f=0.1040  <S**2>=0.000
     309 -> 314        0.64037
     311 -> 315       -0.27816

 Excited State   5:      Singlet-A      3.0645 eV  404.58 nm  f=0.0000  <S**2>=0.000
     311 -> 313        0.70711

 The electronic state is 1-A.
 Alpha  occ. eigenvalues --  -46.87789 -46.87660 -19.26349 -19.26276 -19.19161
 Alpha  occ. eigenvalues --  -19.19011 -19.18807 -19.18715 -19.18161 -19.18051
 Alpha  occ. eigenvalues --  -14.42497 -14.42442 -14.41441 -14.41359 -14.39395
 Alpha  occ. eigenvalues --  -14.39352 -14.38599 -14.38579 -10.39091 -10.39071
 Alpha  occ. eigenvalues --  -10.35441 -10.35392 -10.34381 -10.34228 -10.31756
 Alpha  occ. eigenvalues --  -10.31671 -10.31397 -10.31309 -10.31024 -10.30901
 Alpha  occ. eigenvalues --  -10.30562 -10.30499 -10.30397 -10.30360 -10.30199
 Alpha  occ. eigenvalues --  -10.30140 -10.29913 -10.29893 -10.29623 -10.29437
 Alpha  occ. eigenvalues --  -10.29401 -10.29247 -10.28741 -10.28720 -10.28656
 Alpha  occ. eigenvalues --  -10.28532 -10.28405 -10.28357 -10.28141 -10.28109
 Alpha  occ. eigenvalues --  -10.28001 -10.27785 -10.27719 -10.27669 -10.27577
 Alpha  occ. eigenvalues --  -10.27515 -10.27493 -10.27484 -10.27474 -10.27469
 Alpha  occ. eigenvalues --  -10.27466 -10.27441 -10.27396 -10.27373 -10.27150
 Alpha  occ. eigenvalues --  -10.27050 -10.26697 -10.26694 -10.26417 -10.26403
 Alpha  occ. eigenvalues --  -10.26227 -10.26175 -10.26135 -10.26026 -10.26011
 Alpha  occ. eigenvalues --  -10.25933 -10.25848 -10.25835 -10.25427 -10.25394
 Alpha  occ. eigenvalues --  -10.24872 -10.24825 -10.24780 -10.24729 -10.24689
 Alpha  occ. eigenvalues --  -10.24678  -3.16531  -3.16410  -1.91413  -1.91293
 Alpha  occ. eigenvalues --   -1.91000  -1.90881  -1.90842  -1.90718  -1.16643
 Alpha  occ. eigenvalues --   -1.16624  -1.08658  -1.08619  -1.07209  -1.06967
 Alpha  occ. eigenvalues --   -1.06946  -1.06634  -1.04573  -1.04495  -1.03753
 Alpha  occ. eigenvalues --   -1.03663  -1.03226  -1.03038  -1.02403  -1.02111
 Alpha  occ. eigenvalues --   -0.91987  -0.91964  -0.89511  -0.89493  -0.89180
 Alpha  occ. eigenvalues --   -0.89152  -0.88279  -0.88219  -0.87862  -0.87793
 Alpha  occ. eigenvalues --   -0.87684  -0.87665  -0.87266  -0.87121  -0.85000
 Alpha  occ. eigenvalues --   -0.84974  -0.83928  -0.83875  -0.82960  -0.82932
 Alpha  occ. eigenvalues --   -0.82653  -0.82641  -0.81596  -0.81578  -0.80588
 Alpha  occ. eigenvalues --   -0.80443  -0.78789  -0.78636  -0.77211  -0.77144
 Alpha  occ. eigenvalues --   -0.76926  -0.76898  -0.75915  -0.75839  -0.74890
 Alpha  occ. eigenvalues --   -0.74801  -0.72766  -0.72699  -0.71664  -0.71580
 Alpha  occ. eigenvalues --   -0.69899  -0.69756  -0.68865  -0.68828  -0.67633
 Alpha  occ. eigenvalues --   -0.67602  -0.67212  -0.67201  -0.65279  -0.65272
 Alpha  occ. eigenvalues --   -0.64846  -0.64770  -0.64654  -0.64613  -0.64261
 Alpha  occ. eigenvalues --   -0.64203  -0.62289  -0.62278  -0.60434  -0.60340
 Alpha  occ. eigenvalues --   -0.59797  -0.59797  -0.58992  -0.58979  -0.58496
 Alpha  occ. eigenvalues --   -0.58425  -0.57576  -0.57554  -0.57301  -0.57236
 Alpha  occ. eigenvalues --   -0.56302  -0.56204  -0.55970  -0.55887  -0.55512
 Alpha  occ. eigenvalues --   -0.55452  -0.55331  -0.55247  -0.54515  -0.54487
 Alpha  occ. eigenvalues --   -0.53913  -0.53887  -0.53291  -0.53227  -0.53214
 Alpha  occ. eigenvalues --   -0.53142  -0.52907  -0.52902  -0.52749  -0.52669
 Alpha  occ. eigenvalues --   -0.52430  -0.52399  -0.51906  -0.51883  -0.51659
 Alpha  occ. eigenvalues --   -0.51609  -0.51201  -0.51188  -0.50565  -0.50476
 Alpha  occ. eigenvalues --   -0.50023  -0.49980  -0.49911  -0.49866  -0.49507
 Alpha  occ. eigenvalues --   -0.49488  -0.49207  -0.49203  -0.49104  -0.49088
 Alpha  occ. eigenvalues --   -0.48585  -0.48558  -0.48453  -0.48437  -0.48375
 Alpha  occ. eigenvalues --   -0.48339  -0.47687  -0.47595  -0.47289  -0.47118
 Alpha  occ. eigenvalues --   -0.46789  -0.46709  -0.46554  -0.46548  -0.46351
 Alpha  occ. eigenvalues --   -0.46270  -0.46154  -0.46085  -0.45821  -0.45814
 Alpha  occ. eigenvalues --   -0.45207  -0.45193  -0.44570  -0.44514  -0.44499
 Alpha  occ. eigenvalues --   -0.44476  -0.44137  -0.44127  -0.44081  -0.44078
 Alpha  occ. eigenvalues --   -0.44011  -0.43940  -0.43553  -0.43487  -0.43386
 Alpha  occ. eigenvalues --   -0.43378  -0.43019  -0.42930  -0.42901  -0.42691
 Alpha  occ. eigenvalues --   -0.42646  -0.42553  -0.42001  -0.41964  -0.41696
 Alpha  occ. eigenvalues --   -0.41669  -0.41526  -0.41459  -0.41133  -0.40989
 Alpha  occ. eigenvalues --   -0.40861  -0.40816  -0.40723  -0.40699  -0.40563
 Alpha  occ. eigenvalues --   -0.40492  -0.40228  -0.40227  -0.39433  -0.39424
 Alpha  occ. eigenvalues --   -0.38461  -0.38349  -0.37741  -0.37655  -0.37312
 Alpha  occ. eigenvalues --   -0.37265  -0.37256  -0.37200  -0.36771  -0.36705
 Alpha  occ. eigenvalues --   -0.36217  -0.36184  -0.34278  -0.34253  -0.33862
 Alpha  occ. eigenvalues --   -0.33762  -0.33178  -0.33175  -0.31337  -0.31274
 Alpha  occ. eigenvalues --   -0.31028  -0.30973  -0.30020  -0.29955  -0.29441
 Alpha  occ. eigenvalues --   -0.29327  -0.29314  -0.29211  -0.24072  -0.24036
 Alpha  occ. eigenvalues --   -0.21120  -0.21117
 Alpha virt. eigenvalues --   -0.08792  -0.08766  -0.01742  -0.01684  -0.00050
 Alpha virt. eigenvalues --   -0.00029   0.02208   0.02208   0.03130   0.03226
 Alpha virt. eigenvalues --    0.04725   0.04730   0.05106   0.05165   0.06182

 Mulliken charges:
               1
     1  Mg   0.838741
     2  C   -0.002974
     3  C   -0.094120
     4  C   -0.045883
     5  C   -0.063970
     6  N   -0.256775
     7  C   -0.052459
     8  C   -0.014020
     9  C   -0.086994
    10  C    0.046314
    11  C    0.104812
    12  C    0.053476
    13  C   -0.071816
    14  H    0.036133
    15  N   -0.433143
    16  C    0.168432
    17  C   -0.177165
    18  C   -0.004000
    19  C    0.148718
    20  C    0.110185
    21  C    0.012282
    22  O   -0.249619
    23  C    0.062469
    24  N   -0.341166
    25  C    0.041256
    26  C   -0.028169
    27  C   -0.024002
    28  C    0.074872
    29  C    0.076178
    30  C    0.035136
    31  C   -0.004508
    32  N   -0.310472
    33  C    0.080418
    34  C   -0.169710
    35  C    0.008368
    36  C    0.083003
    37  C    0.127309
    38  C    0.046112
    39  O   -0.188427
    40  C   -0.005324
    41  C    0.212867
    42  O   -0.257092
    43  O   -0.304795
    44  C    0.157680
    45  H   -0.017614
    46  H   -0.016837
    47  H   -0.041485
    48  H    0.000936
    49  H   -0.004040
    50  H    0.025475
    51  H    0.016448
    52  H    0.016649
    53  H    0.011202
    54  H    0.044132
    55  H    0.017871
    56  H    0.017942
    57  H    0.005866
    58  H    0.026815
    59  H    0.039544
    60  H    0.037339
    61  H    0.035651
    62  H    0.031503
    63  H    0.016558
    64  H    0.009462
    65  H    0.023210
    66  H    0.012539
    67  H    0.004751
    68  H    0.006367
    69  H    0.004735
    70  H    0.008780
    71  H    0.018154
    72  H    0.028983
    73  H    0.047584
    74  H    0.009117
    75  H    0.046008
    76  H    0.035147
    77  H    0.042954
    78  H    0.046394
    79  H    0.053701
    80  Mg   0.837866
    81  C   -0.016841
    82  C   -0.087802
    83  C   -0.045508
    84  C   -0.064855
    85  N   -0.254577
    86  C   -0.049851
    87  C   -0.015077
    88  C   -0.090510
    89  C    0.045762
    90  C    0.114378
    91  C    0.062527
    92  C   -0.077894
    93  H    0.034899
    94  N   -0.423503
    95  C    0.162928
    96  C   -0.174634
    97  C   -0.007809
    98  C    0.152119
    99  C    0.099370
   100  C    0.015566
   101  O   -0.253170
   102  C    0.061203
   103  N   -0.350078
   104  C    0.037538
   105  C   -0.019840
   106  C   -0.034840
   107  C    0.088939
   108  C    0.073642
   109  C    0.034726
   110  C   -0.007680
   111  N   -0.324103
   112  C    0.078436
   113  C   -0.163112
   114  C    0.002253
   115  C    0.096227
   116  C    0.131487
   117  C    0.042402
   118  O   -0.187829
   119  C    0.000912
   120  C    0.211245
   121  O   -0.251010
   122  O   -0.305628
   123  C    0.152025
   124  H   -0.019676
   125  H   -0.015556
   126  H   -0.040407
   127  H   -0.000638
   128  H   -0.004339
   129  H    0.022483
   130  H    0.014438
   131  H    0.016266
   132  H    0.013913
   133  H    0.037680
   134  H    0.020791
   135  H    0.019581
   136  H    0.008749
   137  H    0.026132
   138  H    0.039786
   139  H    0.038240
   140  H    0.036395
   141  H    0.033890
   142  H    0.014398
   143  H    0.012489
   144  H    0.025158
   145  H    0.011642
   146  H    0.005746
   147  H    0.006297
   148  H    0.003684
   149  H    0.010928
   150  H    0.017943
   151  H    0.030078
   152  H    0.046018
   153  H    0.008543
   154  H    0.047008
   155  H    0.035053
   156  H    0.043928
   157  H    0.049482
   158  H    0.053581
 Sum of Mulliken charges =  -0.00000

 Dipole moment (field-independent basis, Debye):
    X=             -3.1111    Y=             -2.5994    Z=             -8.0255  Tot=              8.9914
 Quadrupole moment (field-independent basis, Debye-Ang):
   XX=           -483.7751   YY=           -557.4849   ZZ=           -445.4269
   XY=              3.2898   XZ=            -24.0176   YZ=            -36.9761

 Normal termination of Gaussian 16 at Sun Sep 12 15:57:06 2021.
