 Gaussian 16, Revision A.03,
 Gaussian 16:  ES64L-G16RevA.03 25-Dec-2016

 -----------------------------------
 #p cam-b3lyp/Def2SVP td=(nstates=5)
 -----------------------------------

 --------------------------------
 TDDFT excited states in gaussian
 --------------------------------
 Symbolic Z-matrix:
 Charge =  0 Multiplicity = 1

                         Standard orientation:
 ---------------------------------------------------------------------
 Center     Atomic      Atomic             Coordinates (Angstroms)
 Number     Number       Type             X           Y           Z
 ---------------------------------------------------------------------
      1         12           0       -4.518592   -0.252925    0.071610
      2          6           0       -4.301584    3.314908    0.260537
      3          6           0       -5.345659    0.120335   -3.217722
      4          6           0       -5.158406   -3.357920   -0.007528
      5          6           0       -4.794597   -0.272583    3.545671
      6          7           0       -4.759025    1.541350   -1.202523
      7          6           0       -4.588820    2.847601   -1.023895
      8          6           0       -4.669822    3.667710   -2.346103
      9          6           0       -5.544622    2.657509   -3.215712
     10          6           0       -5.168247    1.356706   -2.528560
     11          6           0       -7.047677    2.872640   -3.070640
     12          6           0       -3.260696    3.903245   -2.986899
     13          6           0       -3.214324    4.962166   -4.092290
     14          1           0       -2.031625    5.801850   -4.208496
     15          7           0       -4.679923   -1.489126   -1.460913
     16          6           0       -5.009322   -1.162434   -2.733727
     17          6           0       -4.995931   -2.429382   -3.496185
     18          6           0       -4.817953   -3.543593   -2.524099
     19          6           0       -4.905710   -2.834309   -1.273262
     20          6           0       -5.093879   -2.492048   -4.989581
     21          6           0       -4.613388   -5.015677   -2.695131
     22          8           0       -4.713704   -5.834348   -1.718254
     23          6           0       -4.376698   -5.490616   -4.070432
     24          7           0       -5.140011   -1.612334    1.528826
     25          6           0       -5.287094   -2.910740    1.243358
     26          6           0       -5.459479   -3.727656    2.489500
     27          6           0       -5.155515   -2.742929    3.709202
     28          6           0       -4.928370   -1.437508    2.907609
     29          6           0       -6.840342   -4.369216    2.683479
     30          6           0       -4.066934   -3.187988    4.717831
     31          6           0       -2.712613   -3.187112    4.044845
     32          7           0       -4.370030    1.215366    1.663181
     33          6           0       -4.542428    0.990413    3.036625
     34          6           0       -4.454135    2.302398    3.703684
     35          6           0       -4.251729    3.207302    2.663480
     36          6           0       -4.242076    2.508229    1.422716
     37          6           0       -4.616766    2.541608    5.096797
     38          6           0       -4.065971    4.605152    2.309408
     39          8           0       -3.895286    5.645718    2.946261
     40          6           0       -4.212562    4.745725    0.729985
     41          6           0       -3.058587    5.576486    0.238572
     42          8           0       -1.888675    5.146564    0.300537
     43          8           0       -3.529397    6.635030   -0.438454
     44          6           0       -2.435044    7.485195   -0.978607
     45          1           0       -5.840336    0.124808   -4.190971
     46          1           0       -5.274565   -4.443320    0.021643
     47          1           0       -4.786893   -0.210786    4.635430
     48          1           0       -5.184868    4.624352   -2.256735
     49          1           0       -5.229315    2.640096   -4.258784
     50          1           0       -7.272480    3.601978   -2.292533
     51          1           0       -7.457302    1.897117   -2.807854
     52          1           0       -7.495365    3.137338   -4.028913
     53          1           0       -2.975519    3.022248   -3.561860
     54          1           0       -2.524725    4.149434   -2.220699
     55          1           0       -4.117994    5.572296   -4.097918
     56          1           0       -3.226284    4.451455   -5.055218
     57          1           0       -5.382599   -1.530713   -5.412688
     58          1           0       -5.926434   -3.154170   -5.226555
     59          1           0       -4.179835   -2.873239   -5.445156
     60          1           0       -5.224645   -5.214360   -4.697503
     61          1           0       -4.163586   -6.555826   -3.988210
     62          1           0       -3.510370   -4.970015   -4.479577
     63          1           0       -4.752932   -4.556257    2.514756
     64          1           0       -6.037375   -2.573220    4.327422
     65          1           0       -6.807343   -5.452823    2.799284
     66          1           0       -7.465735   -4.085188    1.837605
     67          1           0       -7.414876   -3.973142    3.520410
     68          1           0       -4.256583   -4.206258    5.055626
     69          1           0       -4.011622   -2.550657    5.600441
     70          1           0       -2.687721   -4.155625    3.546653
     71          1           0       -1.918496   -3.109945    4.788239
     72          1           0       -2.652933   -2.421183    3.271361
     73          1           0       -3.831489    3.242540    5.379646
     74          1           0       -4.546547    1.616365    5.668284
     75          1           0       -5.619997    2.967197    5.112838
     76          1           0       -5.171977    5.228183    0.545925
     77          1           0       -2.598953    8.495684   -0.604068
     78          1           0       -2.434336    7.339948   -2.059027
     79          1           0       -1.434121    7.283533   -0.595430
     80         12           0        4.423496   -1.307264    0.092571
     81          6           0        4.963659    2.235754    0.277867
     82          6           0        3.906704   -0.902687   -3.254645
     83          6           0        3.502230   -4.340977   -0.031054
     84          6           0        3.854835   -1.260209    3.530608
     85          7           0        4.458627    0.484275   -1.204130
     86          6           0        4.736137    1.768064   -1.033219
     87          6           0        4.850978    2.582118   -2.349908
     88          6           0        3.950607    1.643762   -3.292078
     89          6           0        4.139794    0.313965   -2.565073
     90          6           0        2.473504    1.999444   -3.260518
     91          6           0        6.328378    2.670708   -2.870951
     92          6           0        6.559649    3.703471   -3.976240
     93          1           0        7.829066    4.424904   -4.000179
     94          7           0        4.275915   -2.542623   -1.453607
     95          6           0        4.090452   -2.207925   -2.747773
     96          6           0        4.028989   -3.478299   -3.487046
     97          6           0        4.028275   -4.594352   -2.502596
     98          6           0        3.911911   -3.852488   -1.263160
     99          6           0        4.058196   -3.549577   -4.986215
    100          6           0        4.105060   -6.083572   -2.652689
    101          8           0        3.848359   -6.872885   -1.676000
    102          6           0        4.398328   -6.592386   -4.000496
    103          7           0        3.566146   -2.578776    1.496330
    104          6           0        3.313550   -3.865787    1.200174
    105          6           0        2.957155   -4.650995    2.439857
    106          6           0        3.259880   -3.673854    3.669138
    107          6           0        3.672508   -2.406279    2.889154
    108          6           0        1.511935   -5.141587    2.523982
    109          6           0        4.214563   -4.206156    4.772732
    110          6           0        5.612894   -4.354797    4.217790
    111          7           0        4.584356    0.154070    1.675828
    112          6           0        4.272114   -0.029239    3.040746
    113          6           0        4.431668    1.281291    3.703672
    114          6           0        4.806339    2.147937    2.665860
    115          6           0        4.855784    1.432611    1.438927
    116          6           0        4.188794    1.552527    5.079736
    117          6           0        5.160922    3.507506    2.327432
    118          8           0        5.370243    4.536090    2.969255
    119          6           0        5.155626    3.652071    0.744567
    120          6           0        6.420063    4.358307    0.338421
    121          8           0        7.528009    3.821014    0.512694
    122          8           0        6.103294    5.449361   -0.382433
    123          6           0        7.324912    6.177377   -0.817699
    124          1           0        3.504624   -0.856408   -4.267102
    125          1           0        3.279782   -5.410039    0.002011
    126          1           0        3.791198   -1.183397    4.618141
    127          1           0        4.429109    3.579041   -2.305887
    128          1           0        4.356605    1.589058   -4.298827
    129          1           0        2.255960    2.751297   -2.516509
    130          1           0        1.953984    1.078379   -3.030788
    131          1           0        2.135632    2.295371   -4.257816
    132          1           0        6.570386    1.751217   -3.419335
    133          1           0        7.008010    2.850228   -2.060703
    134          1           0        5.719008    4.401601   -4.070486
    135          1           0        6.585332    3.183635   -4.937035
    136          1           0        3.892818   -2.564189   -5.439065
    137          1           0        3.188774   -4.139891   -5.295260
    138          1           0        4.963264   -4.027086   -5.367649
    139          1           0        3.637436   -6.240202   -4.692937
    140          1           0        4.500948   -7.673530   -3.888790
    141          1           0        5.350476   -6.166245   -4.335808
    142          1           0        3.578827   -5.533228    2.530864
    143          1           0        2.343825   -3.418476    4.221812
    144          1           0        1.429671   -6.237974    2.647431
    145          1           0        0.989559   -4.818969    1.633148
    146          1           0        0.916795   -4.691318    3.316617
    147          1           0        3.901561   -5.201910    5.096242
    148          1           0        4.247953   -3.576418    5.655523
    149          1           0        5.580015   -5.330633    3.724080
    150          1           0        6.346985   -4.343318    5.020918
    151          1           0        5.812369   -3.601748    3.446576
    152          1           0        5.003598    2.176223    5.422674
    153          1           0        4.118519    0.634560    5.659532
    154          1           0        3.227520    2.068641    5.010082
    155          1           0        4.264468    4.217911    0.470262
    156          1           0        7.225653    7.208198   -0.463793
    157          1           0        7.390125    6.024368   -1.911358
    158          1           0        8.267449    5.888956   -0.367272
 ---------------------------------------------------------------------

 SCF Done:  E(RCAM-B3LYP) =  -4069.81131328     A.U. after   19 cycles

 Excitation energies and oscillator strengths:

 Excited State   1:      Singlet-A      1.6477 eV  752.48 nm  f=0.0014  <S**2>=0.000
     309 -> 315        0.11368
     310 -> 316       -0.12199
     311 -> 313        0.46679
     312 -> 314        0.50501
 This state for optimization and/or second-order correction.
 Total Energy, E(TD-HF/TD-DFT) =  -4069.75076205
 Copying the excited state density for this state as the 1-particle RhoCI density.

 Excited State   2:      Singlet-A      1.7045 eV  727.38 nm  f=0.6975  <S**2>=0.000
     309 -> 315        0.13392
     310 -> 316        0.12272
     311 -> 313        0.50234
     312 -> 314       -0.46436

 Excited State   3:      Singlet-A      2.1804 eV  568.64 nm  f=0.0145  <S**2>=0.000
     309 -> 313       -0.31644
     310 -> 314        0.56225
     311 -> 315        0.13063
     312 -> 316        0.23381

 Excited State   4:      Singlet-A      2.1964 eV  564.49 nm  f=0.1594  <S**2>=0.000
     309 -> 313        0.55727
     310 -> 314        0.31171
     311 -> 315       -0.24593
     312 -> 316        0.13908

 Excited State   5:      Singlet-A      2.3553 eV  526.40 nm  f=0.0000  <S**2>=0.000
     312 -> 313        0.70709

 The electronic state is 1-A.
 Alpha  occ. eigenvalues --  -46.87880 -46.87435 -19.26346 -19.26118 -19.19084
 Alpha  occ. eigenvalues --  -19.18926 -19.18863 -19.18530 -19.18215 -19.17763
 Alpha  occ. eigenvalues --  -14.42542 -14.42274 -14.41537 -14.41137 -14.39484
 Alpha  occ. eigenvalues --  -14.39132 -14.38665 -14.38360 -10.39145 -10.38847
 Alpha  occ. eigenvalues --  -10.35497 -10.35213 -10.34438 -10.33935 -10.31737
 Alpha  occ. eigenvalues --  -10.31564 -10.31499 -10.31071 -10.31005 -10.30808
 Alpha  occ. eigenvalues --  -10.30655 -10.30581 -10.30298 -10.30161 -10.30122
 Alpha  occ. eigenvalues --  -10.30000 -10.29949 -10.29707 -10.29658 -10.29335
 Alpha  occ. eigenvalues --  -10.29229 -10.29174 -10.28878 -10.28744 -10.28524
 Alpha  occ. eigenvalues --  -10.28502 -10.28443 -10.28236 -10.28169 -10.27924
 Alpha  occ. eigenvalues --  -10.27865 -10.27821 -10.27765 -10.27661 -10.27608
 Alpha  occ. eigenvalues --  -10.27596 -10.27537 -10.27487 -10.27460 -10.27353
 Alpha  occ. eigenvalues --  -10.27345 -10.27250 -10.27247 -10.27223 -10.27178
 Alpha  occ. eigenvalues --  -10.26888 -10.26741 -10.26522 -10.26465 -10.26336
 Alpha  occ. eigenvalues --  -10.26334 -10.26292 -10.26110 -10.25998 -10.25895
 Alpha  occ. eigenvalues --  -10.25765 -10.25722 -10.25565 -10.25505 -10.25181
 Alpha  occ. eigenvalues --  -10.24901 -10.24892 -10.24866 -10.24622 -10.24592
 Alpha  occ. eigenvalues --  -10.24460  -3.16623  -3.16185  -1.91505  -1.91092
 Alpha  occ. eigenvalues --   -1.91067  -1.90933  -1.90656  -1.90492  -1.16695
 Alpha  occ. eigenvalues --   -1.16411  -1.08671  -1.08362  -1.07260  -1.06784
 Alpha  occ. eigenvalues --   -1.06709  -1.06705  -1.04672  -1.04268  -1.03847
 Alpha  occ. eigenvalues --   -1.03439  -1.03314  -1.02814  -1.02493  -1.01881
 Alpha  occ. eigenvalues --   -0.92050  -0.91735  -0.89622  -0.89311  -0.89291
 Alpha  occ. eigenvalues --   -0.88937  -0.88385  -0.88021  -0.87940  -0.87774
 Alpha  occ. eigenvalues --   -0.87542  -0.87471  -0.87354  -0.86940  -0.85099
 Alpha  occ. eigenvalues --   -0.84794  -0.84043  -0.83679  -0.83047  -0.82767
 Alpha  occ. eigenvalues --   -0.82749  -0.82451  -0.81664  -0.81371  -0.80679
 Alpha  occ. eigenvalues --   -0.80225  -0.78879  -0.78432  -0.77325  -0.77043
 Alpha  occ. eigenvalues --   -0.76942  -0.76690  -0.76016  -0.75615  -0.74989
 Alpha  occ. eigenvalues --   -0.74591  -0.72859  -0.72472  -0.71759  -0.71354
 Alpha  occ. eigenvalues --   -0.70032  -0.69580  -0.68980  -0.68622  -0.67722
 Alpha  occ. eigenvalues --   -0.67383  -0.67342  -0.67018  -0.65398  -0.65055
 Alpha  occ. eigenvalues --   -0.64940  -0.64717  -0.64552  -0.64440  -0.64368
 Alpha  occ. eigenvalues --   -0.64002  -0.62372  -0.62056  -0.60524  -0.60145
 Alpha  occ. eigenvalues --   -0.59910  -0.59576  -0.59073  -0.58769  -0.58586
 Alpha  occ. eigenvalues --   -0.58199  -0.57653  -0.57391  -0.57289  -0.57020
 Alpha  occ. eigenvalues --   -0.56390  -0.56060  -0.55988  -0.55674  -0.55598
 Alpha  occ. eigenvalues --   -0.55430  -0.55249  -0.55036  -0.54612  -0.54281
 Alpha  occ. eigenvalues --   -0.54016  -0.53705  -0.53382  -0.53317  -0.53024
 Alpha  occ. eigenvalues --   -0.53004  -0.52935  -0.52850  -0.52694  -0.52567
 Alpha  occ. eigenvalues --   -0.52499  -0.52231  -0.51977  -0.51726  -0.51612
 Alpha  occ. eigenvalues --   -0.51463  -0.51283  -0.50974  -0.50661  -0.50324
 Alpha  occ. eigenvalues --   -0.50144  -0.50006  -0.49783  -0.49674  -0.49607
 Alpha  occ. eigenvalues --   -0.49294  -0.49290  -0.49196  -0.48979  -0.48868
 Alpha  occ. eigenvalues --   -0.48673  -0.48541  -0.48509  -0.48332  -0.48170
 Alpha  occ. eigenvalues --   -0.48135  -0.47791  -0.47399  -0.47381  -0.46929
 Alpha  occ. eigenvalues --   -0.46896  -0.46671  -0.46504  -0.46446  -0.46356
 Alpha  occ. eigenvalues --   -0.46241  -0.46065  -0.45896  -0.45854  -0.45581
 Alpha  occ. eigenvalues --   -0.45294  -0.44994  -0.44651  -0.44613  -0.44297
 Alpha  occ. eigenvalues --   -0.44266  -0.44246  -0.44193  -0.44093  -0.43909
 Alpha  occ. eigenvalues --   -0.43885  -0.43726  -0.43572  -0.43488  -0.43336
 Alpha  occ. eigenvalues --   -0.43168  -0.43112  -0.42794  -0.42743  -0.42710
 Alpha  occ. eigenvalues --   -0.42664  -0.42364  -0.42124  -0.41786  -0.41771
 Alpha  occ. eigenvalues --   -0.41653  -0.41424  -0.41261  -0.41231  -0.40992
 Alpha  occ. eigenvalues --   -0.40902  -0.40766  -0.40674  -0.40544  -0.40509
 Alpha  occ. eigenvalues --   -0.40382  -0.40291  -0.40049  -0.39578  -0.39254
 Alpha  occ. eigenvalues --   -0.38576  -0.38153  -0.37890  -0.37470  -0.37420
 Alpha  occ. eigenvalues --   -0.37373  -0.37062  -0.36987  -0.36789  -0.36550
 Alpha  occ. eigenvalues --   -0.36281  -0.36006  -0.34370  -0.34025  -0.33837
 Alpha  occ. eigenvalues --   -0.33626  -0.33268  -0.32950  -0.31394  -0.31118
 Alpha  occ. eigenvalues --   -0.31087  -0.30745  -0.30075  -0.29664  -0.29522
 Alpha  occ. eigenvalues --   -0.29391  -0.29114  -0.28955  -0.24165  -0.23803
 Alpha  occ. eigenvalues --   -0.21213  -0.20893
 Alpha virt. eigenvalues --   -0.08853  -0.08564  -0.01833  -0.01467  -0.00129
 Alpha virt. eigenvalues --    0.00180   0.02136   0.02459   0.02874   0.03500
 Alpha virt. eigenvalues --    0.04603   0.04951   0.05032   0.05410   0.06017

 Mulliken charges:
               1
     1  Mg   0.838859
     2  C   -0.003084
     3  C   -0.094961
     4  C   -0.045429
     5  C   -0.064012
     6  N   -0.256657
     7  C   -0.052808
     8  C   -0.013819
     9  C   -0.086891
    10  C    0.046071
    11  C    0.104799
    12  C    0.053802
    13  C   -0.071314
    14  H    0.034696
    15  N   -0.433182
    16  C    0.168349
    17  C   -0.177613
    18  C   -0.003708
    19  C    0.148907
    20  C    0.110337
    21  C    0.013120
    22  O   -0.248731
    23  C    0.062446
    24  N   -0.340965
    25  C    0.041012
    26  C   -0.028468
    27  C   -0.024106
    28  C    0.074592
    29  C    0.076055
    30  C    0.035881
    31  C   -0.007968
    32  N   -0.310586
    33  C    0.080530
    34  C   -0.169575
    35  C    0.008773
    36  C    0.083163
    37  C    0.127200
    38  C    0.046577
    39  O   -0.187300
    40  C   -0.005594
    41  C    0.213321
    42  O   -0.257281
    43  O   -0.304823
    44  C    0.157290
    45  H   -0.017790
    46  H   -0.016417
    47  H   -0.041519
    48  H    0.001297
    49  H   -0.004736
    50  H    0.025745
    51  H    0.016695
    52  H    0.016607
    53  H    0.009911
    54  H    0.043671
    55  H    0.018764
    56  H    0.017202
    57  H    0.005397
    58  H    0.027123
    59  H    0.038388
    60  H    0.036990
    61  H    0.036602
    62  H    0.030698
    63  H    0.016866
    64  H    0.009828
    65  H    0.023551
    66  H    0.012719
    67  H    0.004849
    68  H    0.006513
    69  H    0.004587
    70  H    0.010652
    71  H    0.016928
    72  H    0.030262
    73  H    0.048281
    74  H    0.008838
    75  H    0.046261
    76  H    0.035290
    77  H    0.043807
    78  H    0.045498
    79  H    0.054333
    80  Mg   0.837887
    81  C   -0.015762
    82  C   -0.088208
    83  C   -0.045498
    84  C   -0.064764
    85  N   -0.254512
    86  C   -0.048368
    87  C   -0.015117
    88  C   -0.090888
    89  C    0.046068
    90  C    0.113724
    91  C    0.062633
    92  C   -0.077292
    93  H    0.034220
    94  N   -0.423351
    95  C    0.162737
    96  C   -0.175831
    97  C   -0.008087
    98  C    0.151658
    99  C    0.100007
   100  C    0.015178
   101  O   -0.253162
   102  C    0.061489
   103  N   -0.349963
   104  C    0.037268
   105  C   -0.020208
   106  C   -0.034605
   107  C    0.089278
   108  C    0.073209
   109  C    0.034755
   110  C   -0.007469
   111  N   -0.324622
   112  C    0.079354
   113  C   -0.161997
   114  C    0.004071
   115  C    0.096249
   116  C    0.130721
   117  C    0.044444
   118  O   -0.186780
   119  C   -0.000083
   120  C    0.210775
   121  O   -0.251770
   122  O   -0.305046
   123  C    0.152279
   124  H   -0.021453
   125  H   -0.015590
   126  H   -0.040884
   127  H    0.000243
   128  H   -0.005782
   129  H    0.028144
   130  H    0.013843
   131  H    0.013139
   132  H    0.013479
   133  H    0.037661
   134  H    0.020449
   135  H    0.018808
   136  H    0.007691
   137  H    0.024107
   138  H    0.039158
   139  H    0.037172
   140  H    0.036009
   141  H    0.033555
   142  H    0.013940
   143  H    0.011531
   144  H    0.024751
   145  H    0.013198
   146  H    0.005345
   147  H    0.005612
   148  H    0.003226
   149  H    0.010813
   150  H    0.017511
   151  H    0.030406
   152  H    0.045633
   153  H    0.007308
   154  H    0.050419
   155  H    0.039684
   156  H    0.043741
   157  H    0.048756
   158  H    0.053163
 Sum of Mulliken charges =  -0.00000

 Dipole moment (field-independent basis, Debye):
    X=             -4.1353    Y=             -1.5176    Z=             -7.5117  Tot=              8.7080
 Quadrupole moment (field-independent basis, Debye-Ang):
   XX=           -517.3175   YY=           -550.3962   ZZ=           -448.3517
   XY=             -6.8680   XZ=            -10.9243   YZ=            -46.2753

 Normal termination of Gaussian 16 at Fri Sep 10 07:28:30 2021.
