 Gaussian 16, Revision A.03,
 Gaussian 16:  ES64L-G16RevA.03 25-Dec-2016

 -----------------------------------
 #p cam-b3lyp/Def2SVP td=(nstates=5)
 -----------------------------------

 --------------------------------
 TDDFT excited states in gaussian
 --------------------------------
 Symbolic Z-matrix:
 Charge =  0 Multiplicity = 1

                         Standard orientation:
 ---------------------------------------------------------------------
 Center     Atomic      Atomic             Coordinates (Angstroms)
 Number     Number       Type             X           Y           Z
 ---------------------------------------------------------------------
      1         12           0        7.828855    0.627641    0.537940
      2          6           0        8.284241   -2.209117   -1.596925
      3          6           0        8.549256    2.587270   -2.160938
      4          6           0        7.879351    3.120048    2.498036
      5          6           0        8.265539   -1.524416    3.244158
      6          7           0        8.334236    0.134268   -1.560112
      7          6           0        8.417216   -0.989798   -2.264925
      8          6           0        8.583775   -0.748685   -3.795120
      9          6           0        9.213412    0.715457   -3.752181
     10          6           0        8.637146    1.188983   -2.429452
     11          6           0       10.735593    0.721468   -3.655059
     12          6           0        7.212886   -0.760812   -4.551589
     13          6           0        7.309112   -0.859251   -6.076845
     14          1           0        6.297677   -1.620216   -6.794675
     15          7           0        7.684090    2.560626    0.156544
     16          6           0        8.005716    3.183685   -1.002611
     17          6           0        7.721316    4.618648   -0.786554
     18          6           0        7.388158    4.804763    0.653050
     19          6           0        7.666335    3.490049    1.172204
     20          6           0        7.733063    5.634616   -1.887199
     21          6           0        6.907045    5.983666    1.438448
     22          8           0        6.901890    5.992974    2.716909
     23          6           0        6.519908    7.176008    0.662891
     24          7           0        8.258718    0.826893    2.570955
     25          6           0        8.149282    2.009175    3.186762
     26          6           0        8.228321    1.857987    4.677009
     27          6           0        8.171367    0.288549    4.965757
     28          6           0        8.150508   -0.219894    3.503116
     29          6           0        9.474667    2.454901    5.345087
     30          6           0        7.069798   -0.208562    5.935213
     31          6           0        5.707778   -0.014503    5.307247
     32          7           0        8.031914   -1.515031    0.818597
     33          6           0        8.226543   -2.191821    2.031342
     34          6           0        8.414802   -3.617375    1.705116
     35          6           0        8.332592   -3.668720    0.314990
     36          6           0        8.133458   -2.354582   -0.196555
     37          6           0        8.686560   -4.656893    2.637845
     38          6           0        8.391255   -4.524676   -0.858788
     39          8           0        8.447020   -5.741442   -1.042809
     40          6           0        8.484103   -3.598049   -2.150518
     41          6           0        7.480919   -4.108168   -3.148871
     42          8           0        6.256154   -4.027257   -2.923546
     43          8           0        8.105615   -4.389920   -4.302523
     44          6           0        7.162163   -4.873224   -5.345820
     45          1           0        8.988189    3.289890   -2.871997
     46          1           0        7.794257    3.936482    3.218197
     47          1           0        8.322532   -2.266820    4.042307
     48          1           0        9.270435   -1.434819   -4.291247
     49          1           0        8.849837    1.338900   -4.568793
     50          1           0       11.128944   -0.283252   -3.501000
     51          1           0       10.970249    1.357252   -2.801122
     52          1           0       11.177211    1.211031   -4.523436
     53          1           0        6.742158    0.217834   -4.458167
     54          1           0        6.573321   -1.561389   -4.178280
     55          1           0        8.308582   -1.157432   -6.394737
     56          1           0        7.179542    0.140093   -6.492445
     57          1           0        8.173446    5.232488   -2.798737
     58          1           0        8.416390    6.426831   -1.581963
     59          1           0        6.743219    6.053110   -2.069968
     60          1           0        7.372695    7.515005    0.074347
     61          1           0        6.117926    7.886505    1.384317
     62          1           0        5.745778    6.896079   -0.052169
     63          1           0        7.382935    2.341789    5.164536
     64          1           0        9.098477   -0.080407    5.405089
     65          1           0        9.247717    3.188961    6.118621
     66          1           0       10.099766    2.889042    4.565303
     67          1           0       10.152601    1.723403    5.784101
     68          1           0        7.084291    0.373448    6.856082
     69          1           0        7.176293   -1.259274    6.205238
     70          1           0        5.480113    1.025942    5.536324
     71          1           0        4.978799   -0.683696    5.765485
     72          1           0        5.752994   -0.106837    4.221929
     73          1           0        8.059047   -5.499312    2.347110
     74          1           0        8.474556   -4.338651    3.658325
     75          1           0        9.750719   -4.813109    2.461721
     76          1           0        9.506003   -3.676988   -2.520128
     77          1           0        7.528010   -5.842313   -5.685315
     78          1           0        7.081951   -4.075572   -6.084550
     79          1           0        6.161108   -5.139220   -5.004535
     80         12           0       -7.995792   -0.725866    0.480227
     81          6           0       -7.997308    1.812587   -2.056566
     82          6           0       -7.336410    1.742872    2.739677
     83          6           0       -7.542135   -2.982469    2.664105
     84          6           0       -7.516552   -3.065983   -2.057471
     85          7           0       -7.725080    1.457204    0.249655
     86          6           0       -7.809145    2.318186   -0.753339
     87          6           0       -7.764848    3.809814   -0.325984
     88          6           0       -6.992819    3.636755    1.071480
     89          6           0       -7.400313    2.201894    1.399781
     90          6           0       -5.480210    3.683961    0.933261
     91          6           0       -9.197617    4.415256   -0.119544
     92          6           0       -9.240728    5.940563   -0.004132
     93          1           0      -10.385048    6.649364   -0.570334
     94          7           0       -7.996850   -0.614239    2.461667
     95          6           0       -7.729070    0.472573    3.215594
     96          6           0       -7.841606    0.029816    4.613972
     97          6           0       -8.035780   -1.445610    4.624663
     98          6           0       -7.840710   -1.747340    3.220748
     99          6           0       -7.842108    0.984666    5.772280
    100          6           0       -8.333476   -2.424796    5.719558
    101          8           0       -8.224983   -3.689236    5.539936
    102          6           0       -8.665182   -1.857046    7.034512
    103          7           0       -7.378043   -2.706937    0.353373
    104          6           0       -7.315808   -3.483229    1.449463
    105          6           0       -7.115060   -4.933604    1.080017
    106          6           0       -7.298165   -5.001943   -0.507241
    107          6           0       -7.493369   -3.498951   -0.804408
    108          6           0       -5.763610   -5.536606    1.462574
    109          6           0       -8.350991   -6.005856   -1.051652
    110          6           0       -9.740723   -5.561577   -0.655865
    111          7           0       -7.974564   -0.695254   -1.680027
    112          6           0       -7.729480   -1.783313   -2.546139
    113          6           0       -7.705791   -1.247334   -3.922581
    114          6           0       -7.917533    0.129903   -3.758681
    115          6           0       -8.042774    0.433992   -2.376167
    116          6           0       -7.460624   -2.001272   -5.104776
    117          6           0       -8.052960    1.397178   -4.440122
    118          8           0       -8.120643    1.747458   -5.617607
    119          6           0       -7.984480    2.561482   -3.360264
    120          6           0       -9.116204    3.514277   -3.632100
    121          8           0      -10.296971    3.148500   -3.495654
    122          8           0       -8.619005    4.753769   -3.795806
    123          6           0       -9.704363    5.736432   -4.056984
    124          1           0       -6.905668    2.402009    3.493920
    125          1           0       -7.485236   -3.815692    3.368360
    126          1           0       -7.470434   -3.745793   -2.910932
    127          1           0       -7.198024    4.454951   -0.986505
    128          1           0       -7.375985    4.323173    1.822062
    129          1           0       -5.170704    3.707909   -0.101043
    130          1           0       -5.112479    2.788823    1.417578
    131          1           0       -5.075451    4.523938    1.505046
    132          1           0       -9.561815    4.140923    0.878875
    133          1           0       -9.863118    4.092709   -0.896538
    134          1           0       -8.301804    6.405204   -0.328907
    135          1           0       -9.319811    6.206505    1.052772
    136          1           0       -7.517518    1.987187    5.467316
    137          1           0       -7.064456    0.646608    6.465703
    138          1           0       -8.798835    1.008134    6.298403
    139          1           0       -7.841878   -1.234872    7.377329
    140          1           0       -8.933385   -2.709485    7.661640
    141          1           0       -9.532648   -1.197161    6.921927
    142          1           0       -7.865441   -5.559213    1.547588
    143          1           0       -6.368730   -5.303954   -1.011997
    144          1           0       -5.851736   -6.432090    2.106337
    145          1           0       -5.175280   -4.772310    1.952736
    146          1           0       -5.127999   -5.814910    0.623680
    147          1           0       -8.201107   -6.991561   -0.604355
    148          1           0       -8.311578   -6.131512   -2.128518
    149          1           0       -9.843273   -5.949448    0.362040
    150          1           0      -10.485319   -5.995241   -1.320363
    151          1           0       -9.803533   -4.468605   -0.600028
    152          1           0       -8.180143   -1.668563   -5.841049
    153          1           0       -7.545473   -3.070034   -4.919484
    154          1           0       -6.430737   -1.701949   -5.316920
    155          1           0       -7.010998    3.043247   -3.459240
    156          1           0       -9.459266    6.240907   -4.996726
    157          1           0       -9.763424    6.364802   -3.148464
    158          1           0      -10.691161    5.346448   -4.277402
 ---------------------------------------------------------------------

 SCF Done:  E(RCAM-B3LYP) =  -4069.81184257     A.U. after   19 cycles

 Excitation energies and oscillator strengths:

 Excited State   1:      Singlet-A      1.6749 eV  740.25 nm  f=0.3506  <S**2>=0.000
     310 -> 316        0.16969
     311 -> 313        0.14416
     312 -> 314        0.67075
     310 <- 316        0.10233
 This state for optimization and/or second-order correction.
 Total Energy, E(TD-HF/TD-DFT) =  -4069.75029164
 Copying the excited state density for this state as the 1-particle RhoCI density.

 Excited State   2:      Singlet-A      1.6797 eV  738.11 nm  f=0.3985  <S**2>=0.000
     309 -> 315        0.17146
     311 -> 313        0.67036
     312 -> 314       -0.14406
     309 <- 315        0.10266

 Excited State   3:      Singlet-A      2.1858 eV  567.23 nm  f=0.0995  <S**2>=0.000
     310 -> 314        0.64113
     312 -> 316       -0.27232

 Excited State   4:      Singlet-A      2.1923 eV  565.54 nm  f=0.0999  <S**2>=0.000
     309 -> 313        0.63928
     311 -> 315       -0.27744

 Excited State   5:      Singlet-A      2.7658 eV  448.27 nm  f=0.0000  <S**2>=0.000
     312 -> 313        0.70710

 The electronic state is 1-A.
 Alpha  occ. eigenvalues --  -46.87836 -46.87593 -19.26328 -19.26302 -19.19131
 Alpha  occ. eigenvalues --  -19.19042 -19.18870 -19.18650 -19.18202 -19.18003
 Alpha  occ. eigenvalues --  -14.42485 -14.42432 -14.41490 -14.41286 -14.39443
 Alpha  occ. eigenvalues --  -14.39285 -14.38625 -14.38534 -10.39102 -10.39060
 Alpha  occ. eigenvalues --  -10.35504 -10.35328 -10.34421 -10.34181 -10.31746
 Alpha  occ. eigenvalues --  -10.31690 -10.31436 -10.31248 -10.30962 -10.30943
 Alpha  occ. eigenvalues --  -10.30606 -10.30549 -10.30331 -10.30298 -10.30251
 Alpha  occ. eigenvalues --  -10.30063 -10.29963 -10.29819 -10.29671 -10.29367
 Alpha  occ. eigenvalues --  -10.29338 -10.29295 -10.28769 -10.28672 -10.28628
 Alpha  occ. eigenvalues --  -10.28536 -10.28402 -10.28342 -10.28137 -10.28088
 Alpha  occ. eigenvalues --  -10.27938 -10.27831 -10.27762 -10.27626 -10.27604
 Alpha  occ. eigenvalues --  -10.27551 -10.27517 -10.27501 -10.27439 -10.27422
 Alpha  occ. eigenvalues --  -10.27421 -10.27407 -10.27402 -10.27277 -10.27187
 Alpha  occ. eigenvalues --  -10.27007 -10.26716 -10.26655 -10.26473 -10.26357
 Alpha  occ. eigenvalues --  -10.26253 -10.26242 -10.26060 -10.26049 -10.25969
 Alpha  occ. eigenvalues --  -10.25877 -10.25861 -10.25790 -10.25486 -10.25268
 Alpha  occ. eigenvalues --  -10.24870 -10.24830 -10.24811 -10.24755 -10.24654
 Alpha  occ. eigenvalues --  -10.24618  -3.16579  -3.16342  -1.91460  -1.91225
 Alpha  occ. eigenvalues --   -1.91047  -1.90889  -1.90813  -1.90650  -1.16651
 Alpha  occ. eigenvalues --   -1.16620  -1.08658  -1.08613  -1.07273  -1.06916
 Alpha  occ. eigenvalues --   -1.06902  -1.06664  -1.04616  -1.04432  -1.03800
 Alpha  occ. eigenvalues --   -1.03596  -1.03274  -1.02968  -1.02450  -1.02043
 Alpha  occ. eigenvalues --   -0.92007  -0.91928  -0.89565  -0.89419  -0.89210
 Alpha  occ. eigenvalues --   -0.89098  -0.88333  -0.88136  -0.87906  -0.87731
 Alpha  occ. eigenvalues --   -0.87707  -0.87619  -0.87317  -0.87058  -0.85009
 Alpha  occ. eigenvalues --   -0.84945  -0.83985  -0.83794  -0.83018  -0.82865
 Alpha  occ. eigenvalues --   -0.82681  -0.82597  -0.81614  -0.81551  -0.80631
 Alpha  occ. eigenvalues --   -0.80389  -0.78837  -0.78573  -0.77255  -0.77084
 Alpha  occ. eigenvalues --   -0.76962  -0.76840  -0.75950  -0.75787  -0.74940
 Alpha  occ. eigenvalues --   -0.74720  -0.72812  -0.72633  -0.71708  -0.71512
 Alpha  occ. eigenvalues --   -0.69959  -0.69674  -0.68903  -0.68772  -0.67680
 Alpha  occ. eigenvalues --   -0.67539  -0.67246  -0.67149  -0.65313  -0.65219
 Alpha  occ. eigenvalues --   -0.64889  -0.64708  -0.64654  -0.64598  -0.64313
 Alpha  occ. eigenvalues --   -0.64127  -0.62326  -0.62232  -0.60486  -0.60271
 Alpha  occ. eigenvalues --   -0.59832  -0.59741  -0.59025  -0.58927  -0.58541
 Alpha  occ. eigenvalues --   -0.58363  -0.57614  -0.57509  -0.57350  -0.57168
 Alpha  occ. eigenvalues --   -0.56346  -0.56145  -0.56002  -0.55845  -0.55560
 Alpha  occ. eigenvalues --   -0.55399  -0.55380  -0.55178  -0.54560  -0.54424
 Alpha  occ. eigenvalues --   -0.53918  -0.53861  -0.53340  -0.53255  -0.53164
 Alpha  occ. eigenvalues --   -0.53088  -0.52948  -0.52850  -0.52795  -0.52611
 Alpha  occ. eigenvalues --   -0.52491  -0.52322  -0.51950  -0.51824  -0.51645
 Alpha  occ. eigenvalues --   -0.51608  -0.51231  -0.51144  -0.50620  -0.50412
 Alpha  occ. eigenvalues --   -0.50078  -0.49960  -0.49918  -0.49785  -0.49549
 Alpha  occ. eigenvalues --   -0.49430  -0.49249  -0.49148  -0.49122  -0.49051
 Alpha  occ. eigenvalues --   -0.48623  -0.48508  -0.48506  -0.48485  -0.48298
 Alpha  occ. eigenvalues --   -0.48277  -0.47731  -0.47534  -0.47335  -0.47050
 Alpha  occ. eigenvalues --   -0.46834  -0.46643  -0.46580  -0.46499  -0.46398
 Alpha  occ. eigenvalues --   -0.46204  -0.46199  -0.46016  -0.45851  -0.45770
 Alpha  occ. eigenvalues --   -0.45246  -0.45123  -0.44611  -0.44547  -0.44460
 Alpha  occ. eigenvalues --   -0.44419  -0.44188  -0.44116  -0.44071  -0.44055
 Alpha  occ. eigenvalues --   -0.44011  -0.43885  -0.43525  -0.43506  -0.43420
 Alpha  occ. eigenvalues --   -0.43325  -0.43063  -0.42889  -0.42841  -0.42736
 Alpha  occ. eigenvalues --   -0.42691  -0.42477  -0.42050  -0.41898  -0.41740
 Alpha  occ. eigenvalues --   -0.41610  -0.41560  -0.41401  -0.41175  -0.40923
 Alpha  occ. eigenvalues --   -0.40902  -0.40870  -0.40664  -0.40639  -0.40614
 Alpha  occ. eigenvalues --   -0.40415  -0.40252  -0.40182  -0.39495  -0.39343
 Alpha  occ. eigenvalues --   -0.38512  -0.38269  -0.37769  -0.37606  -0.37363
 Alpha  occ. eigenvalues --   -0.37290  -0.37193  -0.37142  -0.36742  -0.36731
 Alpha  occ. eigenvalues --   -0.36226  -0.36150  -0.34324  -0.34188  -0.33825
 Alpha  occ. eigenvalues --   -0.33796  -0.33224  -0.33109  -0.31400  -0.31208
 Alpha  occ. eigenvalues --   -0.31074  -0.30907  -0.30061  -0.29909  -0.29491
 Alpha  occ. eigenvalues --   -0.29360  -0.29263  -0.29149  -0.24118  -0.23969
 Alpha  occ. eigenvalues --   -0.21166  -0.21050
 Alpha virt. eigenvalues --   -0.08813  -0.08727  -0.01791  -0.01614  -0.00100
 Alpha virt. eigenvalues --    0.00032   0.02163   0.02266   0.03074   0.03289
 Alpha virt. eigenvalues --    0.04689   0.04791   0.05075   0.05198   0.06163

 Mulliken charges:
               1
     1  Mg   0.838584
     2  C   -0.002933
     3  C   -0.093956
     4  C   -0.046017
     5  C   -0.063998
     6  N   -0.256786
     7  C   -0.052401
     8  C   -0.013988
     9  C   -0.087025
    10  C    0.046322
    11  C    0.104781
    12  C    0.053409
    13  C   -0.071989
    14  H    0.036500
    15  N   -0.433124
    16  C    0.168338
    17  C   -0.177111
    18  C   -0.004146
    19  C    0.148657
    20  C    0.110144
    21  C    0.012072
    22  O   -0.249926
    23  C    0.062557
    24  N   -0.341103
    25  C    0.041250
    26  C   -0.028130
    27  C   -0.023983
    28  C    0.074808
    29  C    0.076174
    30  C    0.035179
    31  C   -0.004484
    32  N   -0.310474
    33  C    0.080415
    34  C   -0.169702
    35  C    0.008405
    36  C    0.082977
    37  C    0.127311
    38  C    0.046136
    39  O   -0.188315
    40  C   -0.005312
    41  C    0.212905
    42  O   -0.257148
    43  O   -0.304768
    44  C    0.157676
    45  H   -0.017459
    46  H   -0.017036
    47  H   -0.041487
    48  H    0.001031
    49  H   -0.003842
    50  H    0.025499
    51  H    0.016386
    52  H    0.016810
    53  H    0.011265
    54  H    0.044090
    55  H    0.017886
    56  H    0.018143
    57  H    0.006088
    58  H    0.026833
    59  H    0.039525
    60  H    0.037552
    61  H    0.035296
    62  H    0.031382
    63  H    0.016248
    64  H    0.009541
    65  H    0.023052
    66  H    0.012644
    67  H    0.004823
    68  H    0.006231
    69  H    0.004867
    70  H    0.008401
    71  H    0.018090
    72  H    0.029062
    73  H    0.047621
    74  H    0.009101
    75  H    0.046092
    76  H    0.035257
    77  H    0.043004
    78  H    0.046570
    79  H    0.053650
    80  Mg   0.838002
    81  C   -0.016935
    82  C   -0.087854
    83  C   -0.045377
    84  C   -0.064493
    85  N   -0.254584
    86  C   -0.049841
    87  C   -0.015103
    88  C   -0.090509
    89  C    0.045776
    90  C    0.114354
    91  C    0.062554
    92  C   -0.077772
    93  H    0.034637
    94  N   -0.423511
    95  C    0.162981
    96  C   -0.174572
    97  C   -0.007749
    98  C    0.152194
    99  C    0.099346
   100  C    0.015577
   101  O   -0.253040
   102  C    0.061210
   103  N   -0.350028
   104  C    0.037725
   105  C   -0.020003
   106  C   -0.034850
   107  C    0.088914
   108  C    0.073370
   109  C    0.034709
   110  C   -0.007663
   111  N   -0.324083
   112  C    0.078416
   113  C   -0.163070
   114  C    0.002128
   115  C    0.096229
   116  C    0.131493
   117  C    0.042280
   118  O   -0.188333
   119  C    0.000952
   120  C    0.211191
   121  O   -0.251033
   122  O   -0.305708
   123  C    0.152099
   124  H   -0.019646
   125  H   -0.015388
   126  H   -0.040308
   127  H   -0.000928
   128  H   -0.004441
   129  H    0.022272
   130  H    0.014835
   131  H    0.016216
   132  H    0.013944
   133  H    0.037608
   134  H    0.020612
   135  H    0.019598
   136  H    0.008734
   137  H    0.026220
   138  H    0.039660
   139  H    0.038260
   140  H    0.036351
   141  H    0.033780
   142  H    0.014279
   143  H    0.013041
   144  H    0.025202
   145  H    0.012002
   146  H    0.006586
   147  H    0.006462
   148  H    0.003634
   149  H    0.010909
   150  H    0.017758
   151  H    0.029928
   152  H    0.045727
   153  H    0.008630
   154  H    0.047041
   155  H    0.034768
   156  H    0.043618
   157  H    0.049459
   158  H    0.053551
 Sum of Mulliken charges =  -0.00000

 Dipole moment (field-independent basis, Debye):
    X=              3.5877    Y=              5.4228    Z=              1.4579  Tot=              6.6637
 Quadrupole moment (field-independent basis, Debye-Ang):
   XX=           -519.3957   YY=           -506.6066   ZZ=           -492.0778
   XY=             13.5572   XZ=            -51.5511   YZ=              6.3712

 Normal termination of Gaussian 16 at Sun Sep 12 01:58:02 2021.
