 Gaussian 16, Revision A.03,
 Gaussian 16:  ES64L-G16RevA.03 25-Dec-2016

 -----------------------------------
 #p cam-b3lyp/Def2SVP td=(nstates=5)
 -----------------------------------

 --------------------------------
 TDDFT excited states in gaussian
 --------------------------------
 Symbolic Z-matrix:
 Charge =  0 Multiplicity = 1

                         Standard orientation:
 ---------------------------------------------------------------------
 Center     Atomic      Atomic             Coordinates (Angstroms)
 Number     Number       Type             X           Y           Z
 ---------------------------------------------------------------------
      1         12           0        7.706648   -1.044081    0.184405
      2          6           0        8.059136    2.461839   -0.445270
      3          6           0        8.516540   -0.390466    3.434009
      4          6           0        7.846803   -4.175443    0.665604
      5          6           0        8.045262   -1.544456   -3.247886
      6          7           0        8.201751    0.838047    1.239446
      7          6           0        8.243385    2.121796    0.896769
      8          6           0        8.426415    3.079913    2.111629
      9          6           0        9.113352    2.064957    3.131423
     10          6           0        8.550207    0.761460    2.593197
     11          6           0       10.634112    2.025880    3.020679
     12          6           0        7.059622    3.608735    2.662950
     13          6           0        7.158901    4.793133    3.628714
     14          1           0        6.121434    5.812883    3.595233
     15          7           0        7.640327   -2.086892    1.861008
     16          6           0        7.991720   -1.656811    3.096661
     17          6           0        7.763395   -2.800050    4.006360
     18          6           0        7.431240   -3.987233    3.170678
     19          6           0        7.654723   -3.463597    1.847335
     20          6           0        7.820450   -2.688017    5.498990
     21          6           0        6.993591   -5.376708    3.511198
     22          8           0        6.982917   -6.317756    2.645815
     23          6           0        6.657568   -5.632036    4.923621
     24          7           0        8.134692   -2.655961   -1.071085
     25          6           0        8.069339   -3.914971   -0.624309
     26          6           0        8.135459   -4.899396   -1.754121
     27          6           0        8.015049   -4.041552   -3.095522
     28          6           0        7.980805   -2.626095   -2.468162
     29          6           0        9.401380   -5.765344   -1.814044
     30          6           0        6.890196   -4.437306   -4.084715
     31          6           0        5.539841   -4.142821   -3.470779
     32          7           0        7.823373    0.216746   -1.578471
     33          6           0        7.985448   -0.203653   -2.906504
     34          6           0        8.118589    1.011431   -3.731072
     35          6           0        8.040818    2.060709   -2.817391
     36          6           0        7.896257    1.533774   -1.502198
     37          6           0        8.344655    1.044916   -5.135425
     38          6           0        8.070936    3.503868   -2.643486
     39          8           0        8.079304    4.469480   -3.408349
     40          6           0        8.206370    3.818434   -1.088322
     41          6           0        7.188377    4.872383   -0.747456
     42          8           0        5.966753    4.623506   -0.802797
     43          8           0        7.806731    5.922647   -0.186096
     44          6           0        6.849693    6.992579    0.203104
     45          1           0        8.986234   -0.339431    4.418247
     46          1           0        7.790799   -5.260673    0.773205
     47          1           0        8.069123   -1.620289   -4.336524
     48          1           0        9.087634    3.926747    1.927013
     49          1           0        8.778527    2.228156    4.155620
     50          1           0       10.986640    2.607734    2.169157
     51          1           0       10.889832    0.973618    2.894800
     52          1           0       11.098774    2.337275    3.956574
     53          1           0        6.627605    2.861918    3.329047
     54          1           0        6.387132    3.866655    1.844072
     55          1           0        8.147229    5.252514    3.595771
     56          1           0        7.070936    4.412378    4.646304
     57          1           0        8.248754   -1.737014    5.813148
     58          1           0        8.533210   -3.435228    5.847356
     59          1           0        6.848814   -2.863224    5.961113
     60          1           0        7.525818   -5.412797    5.545414
     61          1           0        6.280727   -6.653445    4.963163
     62          1           0        5.876261   -4.936736    5.231947
     63          1           0        7.307664   -5.605721   -1.706309
     64          1           0        8.924781   -4.089164   -3.694516
     65          1           0        9.200125   -6.836772   -1.798468
     66          1           0       10.046774   -5.476576   -0.984965
     67          1           0       10.047774   -5.571386   -2.669597
     68          1           0        6.923489   -5.507036   -4.288469
     69          1           0        6.953740   -3.915650   -5.039748
     70          1           0        5.352517   -5.025196   -2.859914
     71          1           0        4.782822   -4.038698   -4.248784
     72          1           0        5.586365   -3.285396   -2.799107
     73          1           0        7.685610    1.817084   -5.532143
     74          1           0        8.140723    0.076885   -5.592514
     75          1           0        9.402590    1.305380   -5.163497
     76          1           0        9.226033    4.166640   -0.926578
     77          1           0        7.178424    7.910281   -0.284741
     78          1           0        6.804547    6.986750    1.292293
     79          1           0        5.837325    6.900799   -0.191898
     80         12           0       -8.159081   -0.439907   -0.256385
     81          6           0       -6.520616    2.748308   -0.429015
     82          6           0       -8.740606    0.205050    3.042165
     83          6           0       -9.205839   -3.420534    0.039561
     84          6           0       -6.479926   -1.305662   -3.184967
     85          7           0       -7.648447    1.288585    1.025732
     86          6           0       -7.078992    2.469266    0.835811
     87          6           0       -7.180652    3.434665    2.047103
     88          6           0       -7.365925    2.342759    3.209977
     89          6           0       -7.990261    1.215731    2.389795
     90          6           0       -6.049554    1.844103    3.782563
     91          6           0       -8.423994    4.386850    1.949846
     92          6           0       -8.415394    5.558370    2.934332
     93          1           0       -8.972400    6.836529    2.500112
     94          7           0       -9.289616   -1.270617    1.147310
     95          6           0       -9.425728   -0.866039    2.427579
     96          6           0      -10.352374   -1.820978    3.054926
     97          6           0      -10.623308   -2.917380    2.085786
     98          6           0       -9.679865   -2.582208    1.038090
     99          6           0      -10.949001   -1.602122    4.414909
    100          6           0      -11.565385   -4.082846    2.105204
    101          8           0      -11.464988   -5.043911    1.263129
    102          6           0      -12.549991   -4.111821    3.196619
    103          7           0       -7.725348   -2.195071   -1.282840
    104          6           0       -8.359960   -3.343225   -0.987977
    105          6           0       -8.088720   -4.400064   -2.031956
    106          6           0       -7.331592   -3.644933   -3.221131
    107          6           0       -7.211740   -2.239272   -2.592526
    108          6           0       -7.249711   -5.591391   -1.570218
    109          6           0       -7.950036   -3.769598   -4.640513
    110          6           0       -9.278632   -3.050010   -4.689627
    111          7           0       -6.899178    0.578423   -1.685964
    112          6           0       -6.280464    0.021425   -2.826588
    113          6           0       -5.432148    1.075268   -3.420056
    114          6           0       -5.599591    2.173938   -2.563679
    115          6           0       -6.473627    1.822873   -1.499575
    116          6           0       -4.607786    0.929528   -4.571272
    117          6           0       -5.227354    3.547546   -2.312012
    118          8           0       -4.581187    4.398244   -2.922358
    119          6           0       -5.707564    3.941313   -0.848895
    120          6           0       -6.405721    5.271097   -0.931324
    121          8           0       -7.473407    5.386601   -1.558466
    122          8           0       -5.816821    6.131413   -0.080783
    123          6           0       -6.481124    7.461491   -0.118378
    124          1           0       -8.774847    0.206118    4.131991
    125          1           0       -9.623921   -4.429813    0.033365
    126          1           0       -6.001302   -1.466276   -4.153372
    127          1           0       -6.292584    4.027216    2.231502
    128          1           0       -8.059873    2.690083    3.970997
    129          1           0       -5.201531    2.220263    3.229837
    130          1           0       -6.092321    0.764533    3.721427
    131          1           0       -5.987182    2.083393    4.848018
    132          1           0       -9.314080    3.850752    2.303523
    133          1           0       -8.543860    4.756040    0.949868
    134          1           0       -7.429667    5.704526    3.392510
    135          1           0       -9.067574    5.309887    3.775126
    136          1           0      -10.436861   -0.795434    4.953778
    137          1           0      -10.737341   -2.500208    5.005243
    138          1           0      -12.029650   -1.448077    4.380975
    139          1           0      -12.030523   -4.104853    4.151898
    140          1           0      -13.190298   -4.971537    2.989804
    141          1           0      -13.145200   -3.192775    3.155343
    142          1           0       -9.014291   -4.814777   -2.412000
    143          1           0       -6.305566   -4.018649   -3.353150
    144          1           0       -7.755829   -6.564366   -1.716054
    145          1           0       -6.996227   -5.447016   -0.528383
    146          1           0       -6.269740   -5.674688   -2.037021
    147          1           0       -8.155732   -4.817292   -4.873302
    148          1           0       -7.308635   -3.385010   -5.426438
    149          1           0       -9.974709   -3.788875   -4.281411
    150          1           0       -9.535603   -2.789627   -5.714424
    151          1           0       -9.283073   -2.185410   -4.015760
    152          1           0       -4.747817    1.820195   -5.169269
    153          1           0       -4.860473    0.030798   -5.130020
    154          1           0       -3.624468    0.856389   -4.099034
    155          1           0       -4.822073    3.982532   -0.213466
    156          1           0       -5.705264    8.199879   -0.343114
    157          1           0       -7.005636    7.560954    0.850510
    158          1           0       -7.187468    7.646482   -0.919191
 ---------------------------------------------------------------------

 SCF Done:  E(RCAM-B3LYP) =  -4069.81150213     A.U. after   19 cycles

 Excitation energies and oscillator strengths:

 Excited State   1:      Singlet-A      1.6700 eV  742.41 nm  f=0.0776  <S**2>=0.000
     309 -> 315       -0.10513
     310 -> 316       -0.13678
     311 -> 313       -0.41692
     312 -> 314        0.54519
 This state for optimization and/or second-order correction.
 Total Energy, E(TD-HF/TD-DFT) =  -4069.75013010
 Copying the excited state density for this state as the 1-particle RhoCI density.

 Excited State   2:      Singlet-A      1.6853 eV  735.66 nm  f=0.6849  <S**2>=0.000
     309 -> 315        0.14046
     310 -> 316       -0.10686
     311 -> 313        0.54439
     312 -> 314        0.41642

 Excited State   3:      Singlet-A      2.1857 eV  567.26 nm  f=0.0501  <S**2>=0.000
     309 -> 313        0.16576
     310 -> 314        0.62090
     312 -> 316        0.26374

 Excited State   4:      Singlet-A      2.1927 eV  565.45 nm  f=0.1425  <S**2>=0.000
     309 -> 313        0.61900
     310 -> 314       -0.16464
     311 -> 315       -0.26912

 Excited State   5:      Singlet-A      2.7782 eV  446.28 nm  f=0.0000  <S**2>=0.000
     312 -> 313        0.70707

 The electronic state is 1-A.
 Alpha  occ. eigenvalues --  -46.87752 -46.87576 -19.26245 -19.26190 -19.19058
 Alpha  occ. eigenvalues --  -19.18922 -19.18786 -19.18643 -19.18101 -19.17929
 Alpha  occ. eigenvalues --  -14.42416 -14.42406 -14.41407 -14.41276 -14.39360
 Alpha  occ. eigenvalues --  -14.39269 -14.38538 -14.38510 -10.38987 -10.38986
 Alpha  occ. eigenvalues --  -10.35421 -10.35322 -10.34320 -10.34107 -10.31658
 Alpha  occ. eigenvalues --  -10.31577 -10.31356 -10.31221 -10.30946 -10.30866
 Alpha  occ. eigenvalues --  -10.30520 -10.30461 -10.30308 -10.30268 -10.30171
 Alpha  occ. eigenvalues --  -10.30066 -10.29875 -10.29806 -10.29585 -10.29356
 Alpha  occ. eigenvalues --  -10.29312 -10.29214 -10.28703 -10.28646 -10.28597
 Alpha  occ. eigenvalues --  -10.28495 -10.28317 -10.28317 -10.28074 -10.28070
 Alpha  occ. eigenvalues --  -10.27907 -10.27744 -10.27684 -10.27589 -10.27542
 Alpha  occ. eigenvalues --  -10.27468 -10.27457 -10.27444 -10.27416 -10.27404
 Alpha  occ. eigenvalues --  -10.27397 -10.27381 -10.27355 -10.27301 -10.27089
 Alpha  occ. eigenvalues --  -10.26939 -10.26656 -10.26626 -10.26396 -10.26360
 Alpha  occ. eigenvalues --  -10.26195 -10.26156 -10.26069 -10.25977 -10.25961
 Alpha  occ. eigenvalues --  -10.25850 -10.25779 -10.25717 -10.25405 -10.25326
 Alpha  occ. eigenvalues --  -10.24780 -10.24775 -10.24745 -10.24664 -10.24663
 Alpha  occ. eigenvalues --  -10.24606  -3.16495  -3.16327  -1.91376  -1.91209
 Alpha  occ. eigenvalues --   -1.90963  -1.90805  -1.90797  -1.90634  -1.16539
 Alpha  occ. eigenvalues --   -1.16538  -1.08555  -1.08533  -1.07188  -1.06897
 Alpha  occ. eigenvalues --   -1.06842  -1.06546  -1.04536  -1.04413  -1.03717
 Alpha  occ. eigenvalues --   -1.03579  -1.03188  -1.02953  -1.02366  -1.02025
 Alpha  occ. eigenvalues --   -0.91918  -0.91893  -0.89480  -0.89413  -0.89143
 Alpha  occ. eigenvalues --   -0.89078  -0.88249  -0.88142  -0.87817  -0.87689
 Alpha  occ. eigenvalues --   -0.87629  -0.87603  -0.87239  -0.87045  -0.84938
 Alpha  occ. eigenvalues --   -0.84924  -0.83897  -0.83798  -0.82939  -0.82862
 Alpha  occ. eigenvalues --   -0.82603  -0.82577  -0.81520  -0.81502  -0.80544
 Alpha  occ. eigenvalues --   -0.80356  -0.78756  -0.78551  -0.77176  -0.77066
 Alpha  occ. eigenvalues --   -0.76883  -0.76818  -0.75869  -0.75755  -0.74856
 Alpha  occ. eigenvalues --   -0.74723  -0.72728  -0.72610  -0.71627  -0.71499
 Alpha  occ. eigenvalues --   -0.69873  -0.69684  -0.68829  -0.68750  -0.67594
 Alpha  occ. eigenvalues --   -0.67516  -0.67178  -0.67128  -0.65238  -0.65192
 Alpha  occ. eigenvalues --   -0.64802  -0.64685  -0.64570  -0.64570  -0.64229
 Alpha  occ. eigenvalues --   -0.64124  -0.62227  -0.62184  -0.60406  -0.60262
 Alpha  occ. eigenvalues --   -0.59759  -0.59717  -0.58940  -0.58906  -0.58454
 Alpha  occ. eigenvalues --   -0.58337  -0.57517  -0.57450  -0.57261  -0.57151
 Alpha  occ. eigenvalues --   -0.56262  -0.56115  -0.55906  -0.55797  -0.55478
 Alpha  occ. eigenvalues --   -0.55369  -0.55288  -0.55161  -0.54464  -0.54401
 Alpha  occ. eigenvalues --   -0.53849  -0.53839  -0.53256  -0.53177  -0.53144
 Alpha  occ. eigenvalues --   -0.53060  -0.52857  -0.52818  -0.52721  -0.52600
 Alpha  occ. eigenvalues --   -0.52402  -0.52326  -0.51855  -0.51767  -0.51583
 Alpha  occ. eigenvalues --   -0.51571  -0.51143  -0.51107  -0.50547  -0.50409
 Alpha  occ. eigenvalues --   -0.49997  -0.49907  -0.49883  -0.49791  -0.49472
 Alpha  occ. eigenvalues --   -0.49412  -0.49163  -0.49116  -0.49048  -0.49016
 Alpha  occ. eigenvalues --   -0.48535  -0.48468  -0.48425  -0.48395  -0.48292
 Alpha  occ. eigenvalues --   -0.48257  -0.47651  -0.47516  -0.47254  -0.47040
 Alpha  occ. eigenvalues --   -0.46753  -0.46628  -0.46509  -0.46480  -0.46313
 Alpha  occ. eigenvalues --   -0.46186  -0.46109  -0.45994  -0.45758  -0.45722
 Alpha  occ. eigenvalues --   -0.45163  -0.45130  -0.44519  -0.44471  -0.44427
 Alpha  occ. eigenvalues --   -0.44394  -0.44104  -0.44045  -0.44044  -0.43998
 Alpha  occ. eigenvalues --   -0.43966  -0.43854  -0.43463  -0.43430  -0.43343
 Alpha  occ. eigenvalues --   -0.43302  -0.42978  -0.42839  -0.42804  -0.42646
 Alpha  occ. eigenvalues --   -0.42587  -0.42477  -0.41966  -0.41887  -0.41653
 Alpha  occ. eigenvalues --   -0.41574  -0.41490  -0.41384  -0.41096  -0.40909
 Alpha  occ. eigenvalues --   -0.40829  -0.40792  -0.40653  -0.40628  -0.40531
 Alpha  occ. eigenvalues --   -0.40415  -0.40191  -0.40160  -0.39410  -0.39353
 Alpha  occ. eigenvalues --   -0.38432  -0.38275  -0.37702  -0.37582  -0.37281
 Alpha  occ. eigenvalues --   -0.37216  -0.37187  -0.37120  -0.36675  -0.36639
 Alpha  occ. eigenvalues --   -0.36133  -0.36132  -0.34239  -0.34167  -0.33763
 Alpha  occ. eigenvalues --   -0.33682  -0.33136  -0.33090  -0.31315  -0.31202
 Alpha  occ. eigenvalues --   -0.30989  -0.30889  -0.29959  -0.29832  -0.29406
 Alpha  occ. eigenvalues --   -0.29270  -0.29242  -0.29113  -0.24034  -0.23950
 Alpha  occ. eigenvalues --   -0.21083  -0.21032
 Alpha virt. eigenvalues --   -0.08729  -0.08704  -0.01708  -0.01602  -0.00018
 Alpha virt. eigenvalues --    0.00052   0.02256   0.02310   0.03169   0.03304
 Alpha virt. eigenvalues --    0.04762   0.04807   0.05186   0.05269   0.06225

 Mulliken charges:
               1
     1  Mg   0.838792
     2  C   -0.002786
     3  C   -0.094236
     4  C   -0.045940
     5  C   -0.063998
     6  N   -0.256754
     7  C   -0.052418
     8  C   -0.014001
     9  C   -0.086972
    10  C    0.046270
    11  C    0.104851
    12  C    0.053521
    13  C   -0.071744
    14  H    0.036263
    15  N   -0.433092
    16  C    0.168310
    17  C   -0.177329
    18  C   -0.004166
    19  C    0.148630
    20  C    0.110244
    21  C    0.012159
    22  O   -0.249795
    23  C    0.062544
    24  N   -0.341113
    25  C    0.041134
    26  C   -0.028094
    27  C   -0.024006
    28  C    0.074870
    29  C    0.076209
    30  C    0.035154
    31  C   -0.004472
    32  N   -0.310586
    33  C    0.080576
    34  C   -0.169447
    35  C    0.008585
    36  C    0.083181
    37  C    0.127204
    38  C    0.046501
    39  O   -0.187829
    40  C   -0.005481
    41  C    0.212908
    42  O   -0.256432
    43  O   -0.305016
    44  C    0.157447
    45  H   -0.017787
    46  H   -0.017013
    47  H   -0.041433
    48  H    0.001006
    49  H   -0.004230
    50  H    0.025511
    51  H    0.016391
    52  H    0.016500
    53  H    0.010968
    54  H    0.044535
    55  H    0.017846
    56  H    0.017597
    57  H    0.005751
    58  H    0.026676
    59  H    0.039182
    60  H    0.037303
    61  H    0.035454
    62  H    0.031279
    63  H    0.016378
    64  H    0.009467
    65  H    0.023068
    66  H    0.012537
    67  H    0.004718
    68  H    0.006205
    69  H    0.004841
    70  H    0.008559
    71  H    0.018000
    72  H    0.029188
    73  H    0.048153
    74  H    0.009081
    75  H    0.045973
    76  H    0.035064
    77  H    0.043042
    78  H    0.046042
    79  H    0.054497
    80  Mg   0.837748
    81  C   -0.016770
    82  C   -0.087907
    83  C   -0.045605
    84  C   -0.064843
    85  N   -0.254507
    86  C   -0.049772
    87  C   -0.015063
    88  C   -0.090520
    89  C    0.045701
    90  C    0.114395
    91  C    0.062578
    92  C   -0.077748
    93  H    0.034796
    94  N   -0.423449
    95  C    0.162770
    96  C   -0.174862
    97  C   -0.007967
    98  C    0.151998
    99  C    0.099465
   100  C    0.015413
   101  O   -0.253375
   102  C    0.061265
   103  N   -0.350048
   104  C    0.037437
   105  C   -0.019787
   106  C   -0.034856
   107  C    0.089036
   108  C    0.073697
   109  C    0.034740
   110  C   -0.007640
   111  N   -0.324232
   112  C    0.078566
   113  C   -0.162910
   114  C    0.002713
   115  C    0.096152
   116  C    0.131492
   117  C    0.042884
   118  O   -0.186638
   119  C    0.000737
   120  C    0.211338
   121  O   -0.251201
   122  O   -0.305468
   123  C    0.152048
   124  H   -0.020034
   125  H   -0.015761
   126  H   -0.040299
   127  H   -0.000514
   128  H   -0.004604
   129  H    0.022788
   130  H    0.014344
   131  H    0.015751
   132  H    0.013816
   133  H    0.037769
   134  H    0.020692
   135  H    0.019352
   136  H    0.008520
   137  H    0.025817
   138  H    0.039556
   139  H    0.038087
   140  H    0.036185
   141  H    0.033815
   142  H    0.014248
   143  H    0.012519
   144  H    0.024944
   145  H    0.011614
   146  H    0.005712
   147  H    0.006114
   148  H    0.003718
   149  H    0.010822
   150  H    0.017872
   151  H    0.030164
   152  H    0.046296
   153  H    0.008244
   154  H    0.048128
   155  H    0.035711
   156  H    0.044176
   157  H    0.049120
   158  H    0.053518
 Sum of Mulliken charges =  -0.00000

 Dipole moment (field-independent basis, Debye):
    X=              1.4982    Y=             -1.6563    Z=              8.2583  Tot=              8.5550
 Quadrupole moment (field-independent basis, Debye-Ang):
   XX=           -484.7506   YY=           -534.3742   ZZ=           -463.0825
   XY=            -13.5379   XZ=             -5.8358   YZ=             57.3769

 Normal termination of Gaussian 16 at Sun Sep 12 04:47:28 2021.
