 Gaussian 16, Revision A.03,
 Gaussian 16:  ES64L-G16RevA.03 25-Dec-2016

 -----------------------------------
 #p cam-b3lyp/Def2SVP td=(nstates=5)
 -----------------------------------

 --------------------------------
 TDDFT excited states in gaussian
 --------------------------------
 Symbolic Z-matrix:
 Charge =  0 Multiplicity = 1

                         Standard orientation:
 ---------------------------------------------------------------------
 Center     Atomic      Atomic             Coordinates (Angstroms)
 Number     Number       Type             X           Y           Z
 ---------------------------------------------------------------------
      1         12           0       15.980989   -0.648607    0.512305
      2          6           0       16.253915    2.188802   -1.652606
      3          6           0       16.772634    1.434115    3.096610
      4          6           0       16.192165   -3.210536    2.369331
      5          6           0       16.334225   -2.654684   -2.315510
      6          7           0       16.431968    1.517446    0.586341
      7          6           0       16.444599    2.503372   -0.305264
      8          6           0       16.604537    3.914252    0.335994
      9          6           0       17.313500    3.491837    1.700154
     10          6           0       16.780787    2.075063    1.822188
     11          6           0       18.834861    3.438051    1.604918
     12          6           0       15.225496    4.608048    0.597957
     13          6           0       15.296775    6.104613    0.915079
     14          1           0       14.236321    6.974639    0.429443
     15          7           0       15.936899   -0.811346    2.480660
     16          6           0       16.277197    0.142952    3.379993
     17          6           0       16.074171   -0.462839    4.713590
     18          6           0       15.770017   -1.907282    4.515684
     19          6           0       15.982747   -2.041582    3.097204
     20          6           0       16.127226    0.319920    5.989608
     21          6           0       15.363891   -2.996435    5.457459
     22          8           0       15.375540   -4.228892    5.117624
     23          6           0       15.032437   -2.585168    6.833701
     24          7           0       16.446936   -2.646752    0.127672
     25          6           0       16.409928   -3.563611    1.100803
     26          6           0       16.499594   -4.953860    0.544829
     27          6           0       16.360906   -4.806340   -1.039077
     28          6           0       16.293743   -3.261676   -1.127238
     29          6           0       17.785019   -5.725043    0.874936
     30          6           0       15.246331   -5.633561   -1.727443
     31          6           0       13.889016   -5.119210   -1.302899
     32          7           0       16.070573   -0.330358   -1.632861
     33          6           0       16.243478   -1.307595   -2.623712
     34          6           0       16.349621   -0.600995   -3.913487
     35          6           0       16.247032    0.747940   -3.579278
     36          6           0       16.113286    0.877220   -2.167297
     37          6           0       16.576206   -1.208139   -5.180163
     38          6           0       16.244015    2.111403   -4.084072
     39          8           0       16.231059    2.620838   -5.205589
     40          6           0       16.370742    3.104468   -2.845690
     41          6           0       15.328618    4.176340   -3.014140
     42          8           0       14.113051    3.904381   -2.937979
     43          8           0       15.922287    5.379632   -3.000454
     44          6           0       14.940690    6.489065   -3.133795
     45          1           0       17.240098    1.938921    3.944306
     46          1           0       16.160859   -4.127621    2.961288
     47          1           0       16.360853   -3.218998   -3.249477
     48          1           0       17.246419    4.596709   -0.221379
     49          1           0       16.974056    4.097950    2.539872
     50          1           0       19.174822    3.573764    0.578308
     51          1           0       19.114667    2.450082    1.971141
     52          1           0       19.291395    4.152201    2.290734
     53          1           0       14.810011    4.239269    1.535739
     54          1           0       14.548074    4.449332   -0.241826
     55          1           0       16.274384    6.518596    0.666469
     56          1           0       15.216556    6.229098    1.995018
     57          1           0       16.533397    1.318056    5.830562
     58          1           0       16.856531   -0.170615    6.633967
     59          1           0       15.159403    0.355079    6.490023
     60          1           0       15.894857   -2.088101    7.278340
     61          1           0       14.678984   -3.483251    7.339040
     62          1           0       14.235158   -1.842194    6.797858
     63          1           0       15.688101   -5.577322    0.917924
     64          1           0       17.272061   -5.103466   -1.558871
     65          1           0       17.608272   -6.674913    1.380122
     66          1           0       18.422856   -5.076067    1.474339
     67          1           0       18.427633   -5.930026    0.019105
     68          1           0       15.304242   -6.677259   -1.420381
     69          1           0       15.298858   -5.604669   -2.815862
     70          1           0       13.721310   -5.628695   -0.354674
     71          1           0       13.130561   -5.397776   -2.035264
     72          1           0       13.915303   -4.048876   -1.097522
     73          1           0       15.900077   -0.716386   -5.879447
     74          1           0       16.394874   -2.282063   -5.142631
     75          1           0       17.627943   -0.967382   -5.334248
     76          1           0       17.382032    3.509182   -2.870638
     77          1           0       15.248843    7.089105   -3.990082
     78          1           0       14.894648    6.980568   -2.161833
     79          1           0       13.931061    6.205970   -3.433536
     80         12           0      -15.744862   -0.642427   -0.516861
     81          6           0      -17.388926    1.721433    1.625170
     82          6           0      -15.086437    1.954500   -2.628042
     83          6           0      -14.689584   -2.759254   -2.631773
     84          6           0      -17.491785   -3.156458    1.148544
     85          7           0      -16.226328    1.513511   -0.405642
     86          6           0      -16.800820    2.307792    0.485099
     87          6           0      -16.671351    3.823025    0.173868
     88          6           0      -16.458146    3.724845   -1.414773
     89          6           0      -15.852530    2.324980   -1.494051
     90          6           0      -17.760388    3.726937   -2.198030
     91          6           0      -15.431229    4.474580    0.880676
     92          6           0      -15.417449    6.004787    0.873541
     93          1           0      -14.871591    6.701344    2.035141
     94          7           0      -14.581154   -0.399569   -2.106006
     95          6           0      -14.415277    0.728225   -2.828391
     96          6           0      -13.473545    0.382030   -3.904249
     97          6           0      -13.224772   -1.084427   -3.855998
     98          6           0      -14.192761   -1.483184   -2.853960
     99          6           0      -12.845295    1.411378   -4.798201
    100          6           0      -12.281767   -1.981478   -4.599126
    101          8           0      -12.401310   -3.257254   -4.568789
    102          6           0      -11.271780   -1.320027   -5.438121
    103          7           0      -16.201482   -2.641612   -0.859023
    104          6           0      -15.559404   -3.344714   -1.808398
    105          6           0      -15.854425   -4.820753   -1.687326
    106          6           0      -16.639731   -4.989911   -0.304487
    107          6           0      -16.745672   -3.505753    0.109566
    108          6           0      -16.681604   -5.428889   -2.819730
    109          6           0      -16.054716   -6.002536    0.717779
    110          6           0      -14.728087   -5.500189    1.240381
    111          7           0      -17.038631   -0.755733    1.209809
    112          6           0      -17.683606   -1.904359    1.718481
    113          6           0      -18.546277   -1.461616    2.833022
    114          6           0      -18.359455   -0.071902    2.880952
    115          6           0      -17.460451    0.326132    1.854858
    116          6           0      -19.397356   -2.297932    3.609137
    117          6           0      -18.726538    1.150207    3.559471
    118          8           0      -19.387398    1.423091    4.560740
    119          6           0      -18.212343    2.381652    2.696010
    120          6           0      -17.517155    3.340841    3.622937
    121          8           0      -16.464565    3.012989    4.198407
    122          8           0      -18.086457    4.554619    3.508921
    123          6           0      -17.424054    5.543206    4.400970
    124          1           0      -15.026620    2.651841   -3.464113
    125          1           0      -14.271122   -3.545015   -3.264970
    126          1           0      -17.992912   -3.892310    1.781053
    127          1           0      -17.555219    4.409308    0.394862
    128          1           0      -15.746734    4.468432   -1.764524
    129          1           0      -18.621392    3.674876   -1.548323
    130          1           0      -17.718401    2.857454   -2.840897
    131          1           0      -17.797872    4.593189   -2.864759
    132          1           0      -14.532751    4.275804    0.282381
    133          1           0      -15.335110    4.117043    1.887427
    134          1           0      -16.392231    6.424482    0.596806
    135          1           0      -14.745552    6.342063    0.080564
    136          1           0      -13.345148    2.383476   -4.705630
    137          1           0      -13.042473    1.101749   -5.830241
    138          1           0      -11.765841    1.492350   -4.653643
    139          1           0      -11.768683   -0.696143   -6.177257
    140          1           0      -10.635968   -2.122387   -5.817387
    141          1           0      -10.678288   -0.648719   -4.807476
    142          1           0      -14.937768   -5.396028   -1.643549
    143          1           0      -17.668343   -5.346677   -0.461051
    144          1           0      -16.178455   -6.277333   -3.320785
    145          1           0      -16.910654   -4.647895   -3.532567
    146          1           0      -17.672221   -5.777214   -2.532416
    147          1           0      -15.853886   -6.959658    0.230196
    148          1           0      -16.714641   -6.200265    1.555870
    149          1           0      -14.022157   -5.817115    0.466879
    150          1           0      -14.495411   -5.959232    2.199118
    151          1           0      -14.708372   -4.404740    1.275800
    152          1           0      -19.271962   -1.997868    4.640996
    153          1           0      -19.157298   -3.349722    3.468177
    154          1           0      -20.369265   -2.037805    3.181354
    155          1           0      -19.082715    2.832602    2.217797
    156          1           0      -18.205442    5.978258    5.031709
    157          1           0      -16.877001    6.231700    3.729807
    158          1           0      -16.736827    5.162935    5.147660
 ---------------------------------------------------------------------

 SCF Done:  E(RCAM-B3LYP) =  -4069.81178741     A.U. after   19 cycles

 Excitation energies and oscillator strengths:

 Excited State   1:      Singlet-A      1.6754 eV  740.03 nm  f=0.2564  <S**2>=0.000
     310 -> 316       -0.16939
     311 -> 313        0.66943
     312 -> 314        0.15011
     310 <- 316       -0.10212
 This state for optimization and/or second-order correction.
 Total Energy, E(TD-HF/TD-DFT) =  -4069.75021740
 Copying the excited state density for this state as the 1-particle RhoCI density.

 Excited State   2:      Singlet-A      1.6801 eV  737.96 nm  f=0.5223  <S**2>=0.000
     309 -> 315        0.17137
     311 -> 313       -0.15008
     312 -> 314        0.66907
     309 <- 315        0.10261

 Excited State   3:      Singlet-A      2.1862 eV  567.11 nm  f=0.0956  <S**2>=0.000
     310 -> 313        0.64212
     311 -> 316        0.27305

 Excited State   4:      Singlet-A      2.1926 eV  565.47 nm  f=0.1046  <S**2>=0.000
     309 -> 314        0.64036
     312 -> 315       -0.27819

 Excited State   5:      Singlet-A      3.0649 eV  404.52 nm  f=0.0000  <S**2>=0.000
     312 -> 313        0.70710

 The electronic state is 1-A.
 Alpha  occ. eigenvalues --  -46.87780 -46.87660 -19.26353 -19.26275 -19.19164
 Alpha  occ. eigenvalues --  -19.19010 -19.18796 -19.18707 -19.18157 -19.18053
 Alpha  occ. eigenvalues --  -14.42497 -14.42434 -14.41434 -14.41359 -14.39387
 Alpha  occ. eigenvalues --  -14.39351 -14.38600 -14.38571 -10.39094 -10.39069
 Alpha  occ. eigenvalues --  -10.35429 -10.35384 -10.34377 -10.34231 -10.31761
 Alpha  occ. eigenvalues --  -10.31672 -10.31390 -10.31310 -10.31022 -10.30893
 Alpha  occ. eigenvalues --  -10.30555 -10.30492 -10.30397 -10.30361 -10.30190
 Alpha  occ. eigenvalues --  -10.30140 -10.29905 -10.29895 -10.29615 -10.29435
 Alpha  occ. eigenvalues --  -10.29400 -10.29238 -10.28735 -10.28719 -10.28654
 Alpha  occ. eigenvalues --  -10.28526 -10.28404 -10.28349 -10.28141 -10.28102
 Alpha  occ. eigenvalues --  -10.28001 -10.27777 -10.27711 -10.27669 -10.27568
 Alpha  occ. eigenvalues --  -10.27518 -10.27484 -10.27484 -10.27464 -10.27462
 Alpha  occ. eigenvalues --  -10.27458 -10.27432 -10.27388 -10.27376 -10.27146
 Alpha  occ. eigenvalues --  -10.27053 -10.26692 -10.26691 -10.26401 -10.26388
 Alpha  occ. eigenvalues --  -10.26220 -10.26166 -10.26138 -10.26026 -10.26003
 Alpha  occ. eigenvalues --  -10.25935 -10.25855 -10.25831 -10.25418 -10.25398
 Alpha  occ. eigenvalues --  -10.24873 -10.24818 -10.24771 -10.24730 -10.24689
 Alpha  occ. eigenvalues --  -10.24668  -3.16523  -3.16410  -1.91405  -1.91292
 Alpha  occ. eigenvalues --   -1.90991  -1.90881  -1.90834  -1.90718  -1.16647
 Alpha  occ. eigenvalues --   -1.16623  -1.08661  -1.08615  -1.07196  -1.06960
 Alpha  occ. eigenvalues --   -1.06949  -1.06632  -1.04565  -1.04495  -1.03744
 Alpha  occ. eigenvalues --   -1.03663  -1.03218  -1.03039  -1.02395  -1.02111
 Alpha  occ. eigenvalues --   -0.91988  -0.91957  -0.89503  -0.89495  -0.89173
 Alpha  occ. eigenvalues --   -0.89152  -0.88270  -0.88220  -0.87856  -0.87795
 Alpha  occ. eigenvalues --   -0.87684  -0.87657  -0.87256  -0.87115  -0.84999
 Alpha  occ. eigenvalues --   -0.84967  -0.83920  -0.83876  -0.82948  -0.82926
 Alpha  occ. eigenvalues --   -0.82651  -0.82633  -0.81598  -0.81573  -0.80582
 Alpha  occ. eigenvalues --   -0.80443  -0.78780  -0.78633  -0.77203  -0.77144
 Alpha  occ. eigenvalues --   -0.76920  -0.76899  -0.75909  -0.75839  -0.74882
 Alpha  occ. eigenvalues --   -0.74803  -0.72759  -0.72699  -0.71657  -0.71581
 Alpha  occ. eigenvalues --   -0.69890  -0.69758  -0.68858  -0.68827  -0.67625
 Alpha  occ. eigenvalues --   -0.67601  -0.67204  -0.67198  -0.65272  -0.65272
 Alpha  occ. eigenvalues --   -0.64839  -0.64771  -0.64654  -0.64606  -0.64253
 Alpha  occ. eigenvalues --   -0.64204  -0.62285  -0.62281  -0.60425  -0.60337
 Alpha  occ. eigenvalues --   -0.59797  -0.59789  -0.58993  -0.58972  -0.58489
 Alpha  occ. eigenvalues --   -0.58426  -0.57572  -0.57556  -0.57293  -0.57236
 Alpha  occ. eigenvalues --   -0.56294  -0.56204  -0.55967  -0.55888  -0.55504
 Alpha  occ. eigenvalues --   -0.55450  -0.55325  -0.55249  -0.54510  -0.54489
 Alpha  occ. eigenvalues --   -0.53913  -0.53880  -0.53283  -0.53226  -0.53206
 Alpha  occ. eigenvalues --   -0.53140  -0.52903  -0.52900  -0.52739  -0.52662
 Alpha  occ. eigenvalues --   -0.52421  -0.52401  -0.51901  -0.51888  -0.51657
 Alpha  occ. eigenvalues --   -0.51601  -0.51202  -0.51181  -0.50553  -0.50468
 Alpha  occ. eigenvalues --   -0.50014  -0.49978  -0.49901  -0.49866  -0.49499
 Alpha  occ. eigenvalues --   -0.49485  -0.49202  -0.49200  -0.49105  -0.49082
 Alpha  occ. eigenvalues --   -0.48579  -0.48559  -0.48445  -0.48429  -0.48377
 Alpha  occ. eigenvalues --   -0.48334  -0.47679  -0.47593  -0.47281  -0.47117
 Alpha  occ. eigenvalues --   -0.46781  -0.46709  -0.46553  -0.46541  -0.46343
 Alpha  occ. eigenvalues --   -0.46270  -0.46148  -0.46087  -0.45825  -0.45809
 Alpha  occ. eigenvalues --   -0.45209  -0.45185  -0.44564  -0.44515  -0.44490
 Alpha  occ. eigenvalues --   -0.44476  -0.44128  -0.44127  -0.44077  -0.44073
 Alpha  occ. eigenvalues --   -0.44004  -0.43936  -0.43555  -0.43482  -0.43386
 Alpha  occ. eigenvalues --   -0.43370  -0.43012  -0.42932  -0.42903  -0.42686
 Alpha  occ. eigenvalues --   -0.42640  -0.42553  -0.41994  -0.41964  -0.41689
 Alpha  occ. eigenvalues --   -0.41670  -0.41519  -0.41458  -0.41126  -0.40990
 Alpha  occ. eigenvalues --   -0.40854  -0.40805  -0.40719  -0.40696  -0.40555
 Alpha  occ. eigenvalues --   -0.40494  -0.40225  -0.40219  -0.39426  -0.39424
 Alpha  occ. eigenvalues --   -0.38453  -0.38351  -0.37734  -0.37654  -0.37304
 Alpha  occ. eigenvalues --   -0.37266  -0.37249  -0.37199  -0.36774  -0.36701
 Alpha  occ. eigenvalues --   -0.36218  -0.36178  -0.34270  -0.34254  -0.33865
 Alpha  occ. eigenvalues --   -0.33759  -0.33176  -0.33171  -0.31325  -0.31267
 Alpha  occ. eigenvalues --   -0.31020  -0.30972  -0.30016  -0.29958  -0.29433
 Alpha  occ. eigenvalues --   -0.29325  -0.29306  -0.29212  -0.24065  -0.24036
 Alpha  occ. eigenvalues --   -0.21117  -0.21112
 Alpha virt. eigenvalues --   -0.08791  -0.08758  -0.01733  -0.01683  -0.00041
 Alpha virt. eigenvalues --   -0.00026   0.02206   0.02215   0.03138   0.03229
 Alpha virt. eigenvalues --    0.04729   0.04733   0.05109   0.05162   0.06182

 Mulliken charges:
               1
     1  Mg   0.838695
     2  C   -0.002981
     3  C   -0.094124
     4  C   -0.045843
     5  C   -0.063933
     6  N   -0.256789
     7  C   -0.052452
     8  C   -0.014051
     9  C   -0.086990
    10  C    0.046334
    11  C    0.104815
    12  C    0.053469
    13  C   -0.071798
    14  H    0.036086
    15  N   -0.433131
    16  C    0.168443
    17  C   -0.177140
    18  C   -0.003963
    19  C    0.148718
    20  C    0.110180
    21  C    0.012318
    22  O   -0.249586
    23  C    0.062456
    24  N   -0.341123
    25  C    0.041250
    26  C   -0.028192
    27  C   -0.023967
    28  C    0.074822
    29  C    0.076181
    30  C    0.035126
    31  C   -0.004511
    32  N   -0.310442
    33  C    0.080374
    34  C   -0.169736
    35  C    0.008337
    36  C    0.082987
    37  C    0.127318
    38  C    0.046088
    39  O   -0.188529
    40  C   -0.005313
    41  C    0.212864
    42  O   -0.257113
    43  O   -0.304797
    44  C    0.157715
    45  H   -0.017592
    46  H   -0.016808
    47  H   -0.041514
    48  H    0.000906
    49  H   -0.004017
    50  H    0.025453
    51  H    0.016455
    52  H    0.016657
    53  H    0.011242
    54  H    0.044106
    55  H    0.017850
    56  H    0.017982
    57  H    0.005875
    58  H    0.026842
    59  H    0.039621
    60  H    0.037342
    61  H    0.035715
    62  H    0.031552
    63  H    0.016593
    64  H    0.009438
    65  H    0.023236
    66  H    0.012538
    67  H    0.004735
    68  H    0.006380
    69  H    0.004703
    70  H    0.008822
    71  H    0.018152
    72  H    0.028981
    73  H    0.047520
    74  H    0.009107
    75  H    0.045976
    76  H    0.035125
    77  H    0.042890
    78  H    0.046414
    79  H    0.053651
    80  Mg   0.837861
    81  C   -0.016833
    82  C   -0.087760
    83  C   -0.045514
    84  C   -0.064877
    85  N   -0.254579
    86  C   -0.049865
    87  C   -0.015098
    88  C   -0.090506
    89  C    0.045763
    90  C    0.114373
    91  C    0.062520
    92  C   -0.077904
    93  H    0.034886
    94  N   -0.423514
    95  C    0.162940
    96  C   -0.174581
    97  C   -0.007752
    98  C    0.152136
    99  C    0.099352
   100  C    0.015609
   101  O   -0.253128
   102  C    0.061170
   103  N   -0.350071
   104  C    0.037544
   105  C   -0.019852
   106  C   -0.034770
   107  C    0.088878
   108  C    0.073648
   109  C    0.034717
   110  C   -0.007675
   111  N   -0.324087
   112  C    0.078412
   113  C   -0.163159
   114  C    0.002202
   115  C    0.096200
   116  C    0.131498
   117  C    0.042356
   118  O   -0.187945
   119  C    0.000935
   120  C    0.211232
   121  O   -0.251006
   122  O   -0.305635
   123  C    0.152043
   124  H   -0.019617
   125  H   -0.015528
   126  H   -0.040489
   127  H   -0.000674
   128  H   -0.004282
   129  H    0.022433
   130  H    0.014428
   131  H    0.016305
   132  H    0.013962
   133  H    0.037662
   134  H    0.020766
   135  H    0.019640
   136  H    0.008780
   137  H    0.026207
   138  H    0.039933
   139  H    0.038276
   140  H    0.036527
   141  H    0.033975
   142  H    0.014450
   143  H    0.012386
   144  H    0.025183
   145  H    0.011641
   146  H    0.005647
   147  H    0.006275
   148  H    0.003619
   149  H    0.010979
   150  H    0.017928
   151  H    0.030106
   152  H    0.045972
   153  H    0.008497
   154  H    0.046898
   155  H    0.034997
   156  H    0.043875
   157  H    0.049510
   158  H    0.053568
 Sum of Mulliken charges =  -0.00000

 Dipole moment (field-independent basis, Debye):
    X=              2.5069    Y=              3.1573    Z=              0.1337  Tot=              4.0337
 Quadrupole moment (field-independent basis, Debye-Ang):
   XX=           -478.4545   YY=           -461.9298   ZZ=           -533.0448
   XY=              1.8428   XZ=            133.5707   YZ=             12.9472

 Normal termination of Gaussian 16 at Sun Sep 12 11:13:05 2021.
