 Gaussian 16, Revision A.03,
 Gaussian 16:  ES64L-G16RevA.03 25-Dec-2016

 -----------------------------------
 #p cam-b3lyp/Def2SVP td=(nstates=5)
 -----------------------------------

 --------------------------------
 TDDFT excited states in gaussian
 --------------------------------
 Symbolic Z-matrix:
 Charge =  0 Multiplicity = 1

                         Standard orientation:
 ---------------------------------------------------------------------
 Center     Atomic      Atomic             Coordinates (Angstroms)
 Number     Number       Type             X           Y           Z
 ---------------------------------------------------------------------
      1         12           0        3.350062   -1.997469    0.073006
      2          6           0        5.048604    0.725088   -1.512822
      3          6           0        5.045186   -1.199013    2.924688
      4          6           0        2.213009   -4.660967    1.365101
      5          6           0        2.685773   -3.245211   -3.112511
      6          7           0        4.830473   -0.414568    0.524065
      7          6           0        5.351770    0.602436   -0.154996
      8          6           0        6.191668    1.570788    0.730577
      9          6           0        6.570514    0.567936    1.910731
     10          6           0        5.394388   -0.386790    1.805141
     11          6           0        7.858452   -0.209663    1.659616
     12          6           0        5.346822    2.780112    1.255458
     13          6           0        6.158200    3.934898    1.850007
     14          1           0        5.688442    5.297306    1.648710
     15          7           0        3.200595   -2.540461    1.966593
     16          6           0        3.962173   -2.101595    2.997458
     17          6           0        3.461550   -2.800647    4.200531
     18          6           0        2.473595   -3.822232    3.755107
     19          6           0        2.610713   -3.732143    2.323863
     20          6           0        3.883000   -2.445799    5.593446
     21          6           0        1.559736   -4.742207    4.501189
     22          8           0        0.953462   -5.710918    3.927948
     23          6           0        1.460379   -4.531344    5.956767
     24          7           0        2.750670   -3.825461   -0.737432
     25          6           0        2.241931   -4.790017    0.037037
     26          6           0        1.626688   -5.883103   -0.785506
     27          6           0        1.604928   -5.346019   -2.289108
     28          6           0        2.327061   -3.994136   -2.067282
     29          6           0        2.342855   -7.239905   -0.738554
     30          6           0        0.235718   -5.340585   -3.014128
     31          6           0       -0.683268   -4.328320   -2.367690
     32          7           0        3.619854   -1.307734   -1.967220
     33          6           0        3.291205   -2.000030   -3.141694
     34          6           0        3.758348   -1.177743   -4.272928
     35          6           0        4.344909   -0.064805   -3.673627
     36          6           0        4.273557   -0.196800   -2.257372
     37          6           0        3.666761   -1.525301   -5.649608
     38          6           0        5.037280    1.193461   -3.899999
     39          8           0        5.299668    1.872256   -4.893922
     40          6           0        5.628940    1.696948   -2.509939
     41          6           0        5.272049    3.151136   -2.364073
     42          8           0        4.084198    3.507478   -2.224807
     43          8           0        6.391149    3.866590   -2.173590
     44          6           0        6.104935    5.314783   -1.992006
     45          1           0        5.690706   -1.190011    3.805122
     46          1           0        1.714763   -5.545671    1.766958
     47          1           0        2.438165   -3.530089   -4.136712
     48          1           0        7.098309    1.948361    0.257434
     49          1           0        6.570496    1.063309    2.881466
     50          1           0        8.235726   -0.040589    0.651153
     51          1           0        7.596465   -1.258922    1.797136
     52          1           0        8.602497    0.016057    2.423962
     53          1           0        4.788150    2.471662    2.139090
     54          1           0        4.694390    3.164469    0.470646
     55          1           0        7.214762    3.853310    1.593241
     56          1           0        6.135599    3.844558    2.936067
     57          1           0        4.739339   -1.772576    5.593523
     58          1           0        4.255796   -3.359545    6.055831
     59          1           0        3.057589   -2.045949    6.182639
     60          1           0        2.449035   -4.636727    6.403982
     61          1           0        0.694844   -5.221773    6.309064
     62          1           0        1.147097   -3.503870    6.144123
     63          1           0        0.606087   -6.087031   -0.464238
     64          1           0        2.249615   -5.933991   -2.942822
     65          1           0        1.703791   -8.061335   -0.413663
     66          1           0        3.211877   -7.139972   -0.088859
     67          1           0        2.807136   -7.544383   -1.676187
     68          1           0       -0.245082   -6.314031   -2.923682
     69          1           0        0.311866   -5.105664   -4.075855
     70          1           0       -1.099092   -4.880057   -1.525368
     71          1           0       -1.467697   -4.028030   -3.063181
     72          1           0       -0.123975   -3.485544   -1.960988
     73          1           0        3.341313   -0.624911   -6.170522
     74          1           0        2.968161   -2.347158   -5.804889
     75          1           0        4.698580   -1.809859   -5.855109
     76          1           0        6.706576    1.542268   -2.553494
     77          1           0        6.686316    5.853196   -2.740566
     78          1           0        6.298502    5.539758   -0.943043
     79          1           0        5.094893    5.641540   -2.241772
     80         12           0       -3.502758    1.989876    0.584217
     81          6           0       -5.062834   -0.919477   -0.823237
     82          6           0       -2.319333    2.682617   -2.538962
     83          6           0       -1.750610    4.302137    1.869066
     84          6           0       -3.832335    0.483877    3.709770
     85          7           0       -3.730313    0.942123   -1.350386
     86          6           0       -4.396788   -0.120488   -1.775833
     87          6           0       -4.413429   -0.294208   -3.318262
     88          6           0       -3.079846    0.529501   -3.667425
     89          6           0       -3.052605    1.471416   -2.465461
     90          6           0       -1.821247   -0.321535   -3.635955
     91          6           0       -5.679497    0.355492   -3.979317
     92          6           0       -5.918424   -0.041030   -5.437892
     93          1           0       -7.294886   -0.191222   -5.901824
     94          7           0       -2.633345    3.561962   -0.259131
     95          6           0       -2.240114    3.682189   -1.544511
     96          6           0       -1.638268    5.019777   -1.657687
     97          6           0       -1.559424    5.615404   -0.296174
     98          6           0       -1.967871    4.483203    0.510913
     99          6           0       -1.277393    5.640797   -2.975839
    100          6           0       -1.167406    6.974697    0.198643
    101          8           0       -0.943100    7.200455    1.440233
    102          6           0       -0.962977    8.010873   -0.824119
    103          7           0       -2.688737    2.255074    2.478791
    104          6           0       -2.013711    3.375363    2.790571
    105          6           0       -1.762710    3.465149    4.276955
    106          6           0       -2.624219    2.286679    4.930092
    107          6           0       -3.178091    1.635313    3.643881
    108          6           0       -0.304257    3.331793    4.714569
    109          6           0       -3.626639    2.684057    6.048088
    110          6           0       -4.743259    3.520909    5.466502
    111          7           0       -4.458236    0.215316    1.362709
    112          6           0       -4.451159   -0.240735    2.699133
    113          6           0       -5.136653   -1.549258    2.716268
    114          6           0       -5.477385   -1.776211    1.374301
    115          6           0       -5.017607   -0.695555    0.574111
    116          6           0       -5.326673   -2.373906    3.860805
    117          6           0       -6.112081   -2.689245    0.451134
    118          8           0       -6.757777   -3.730345    0.564807
    119          6           0       -5.760522   -2.235035   -1.030916
    120          6           0       -7.034332   -2.233942   -1.830888
    121          8           0       -7.949474   -1.436268   -1.561015
    122          8           0       -6.876567   -3.019637   -2.911695
    123          6           0       -8.109812   -3.042050   -3.742613
    124          1           0       -1.711954    2.868446   -3.425213
    125          1           0       -1.246611    5.125875    2.379873
    126          1           0       -4.061988   -0.003518    4.659706
    127          1           0       -4.318867   -1.317558   -3.661188
    128          1           0       -3.193445    1.092251   -4.590345
    129          1           0       -2.017377   -1.317357   -3.267179
    130          1           0       -1.132661    0.195759   -2.980751
    131          1           0       -1.348521   -0.332018   -4.622242
    132          1           0       -5.505989    1.432181   -4.103315
    133          1           0       -6.559033    0.150671   -3.400443
    134          1           0       -5.316542   -0.909155   -5.732929
    135          1           0       -5.557850    0.765933   -6.080404
    136          1           0       -1.295299    4.902255   -3.786780
    137          1           0       -0.227331    5.945387   -2.909000
    138          1           0       -1.885499    6.517438   -3.208993
    139          1           0       -0.189271    7.687355   -1.516344
    140          1           0       -0.775890    8.933799   -0.271767
    141          1           0       -1.884702    8.113076   -1.407724
    142          1           0       -2.108274    4.413020    4.670944
    143          1           0       -1.984316    1.533706    5.413207
    144          1           0        0.055563    4.196567    5.303437
    145          1           0        0.305621    3.192627    3.831837
    146          1           0       -0.076224    2.439986    5.295855
    147          1           0       -3.130958    3.305747    6.797722
    148          1           0       -4.054266    1.832859    6.567311
    149          1           0       -4.312402    4.526380    5.444622
    150          1           0       -5.623377    3.482449    6.105205
    151          1           0       -4.954546    3.230225    4.430882
    152          1           0       -6.344018   -2.739286    3.815846
    153          1           0       -5.140922   -1.824953    4.781633
    154          1           0       -4.566976   -3.138682    3.678466
    155          1           0       -5.029840   -2.942060   -1.425620
    156          1           0       -8.399742   -4.091235   -3.855847
    157          1           0       -7.858298   -2.486518   -4.665597
    158          1           0       -9.010691   -2.618760   -3.314015
 ---------------------------------------------------------------------

 SCF Done:  E(RCAM-B3LYP) =  -4069.81266718     A.U. after   19 cycles

 Excitation energies and oscillator strengths:

 Excited State   1:      Singlet-A      1.6487 eV  752.00 nm  f=0.1162  <S**2>=0.000
     309 -> 315        0.11603
     310 -> 316        0.11933
     311 -> 313        0.47590
     312 -> 314        0.49581
 This state for optimization and/or second-order correction.
 Total Energy, E(TD-HF/TD-DFT) =  -4069.75207782
 Copying the excited state density for this state as the 1-particle RhoCI density.

 Excited State   2:      Singlet-A      1.6985 eV  729.98 nm  f=0.5399  <S**2>=0.000
     309 -> 315        0.12988
     310 -> 316       -0.12425
     311 -> 313        0.49352
     312 -> 314       -0.47402

 Excited State   3:      Singlet-A      2.1850 eV  567.44 nm  f=0.0420  <S**2>=0.000
     309 -> 313        0.38764
     310 -> 314        0.51421
     311 -> 315       -0.16182
     312 -> 316       -0.21567

 Excited State   4:      Singlet-A      2.1950 eV  564.84 nm  f=0.1434  <S**2>=0.000
     309 -> 313        0.51081
     310 -> 314       -0.38389
     311 -> 315       -0.22402
     312 -> 316        0.16860

 Excited State   5:      Singlet-A      2.2196 eV  558.58 nm  f=0.0000  <S**2>=0.000
     312 -> 313        0.70703

 The electronic state is 1-A.
 Alpha  occ. eigenvalues --  -46.87941 -46.87383 -19.26498 -19.26188 -19.19262
 Alpha  occ. eigenvalues --  -19.18973 -19.18931 -19.18435 -19.18384 -19.17779
 Alpha  occ. eigenvalues --  -14.42587 -14.42210 -14.41594 -14.41102 -14.39545
 Alpha  occ. eigenvalues --  -14.39055 -14.38753 -14.38321 -10.39310 -10.38900
 Alpha  occ. eigenvalues --  -10.35563 -10.35110 -10.34603 -10.33964 -10.31884
 Alpha  occ. eigenvalues --  -10.31626 -10.31563 -10.31034 -10.31009 -10.30744
 Alpha  occ. eigenvalues --  -10.30713 -10.30667 -10.30339 -10.30135 -10.30073
 Alpha  occ. eigenvalues --  -10.30056 -10.29877 -10.29801 -10.29681 -10.29404
 Alpha  occ. eigenvalues --  -10.29117 -10.29105 -10.28843 -10.28543 -10.28521
 Alpha  occ. eigenvalues --  -10.28463 -10.28451 -10.28225 -10.28096 -10.27968
 Alpha  occ. eigenvalues --  -10.27871 -10.27823 -10.27744 -10.27684 -10.27638
 Alpha  occ. eigenvalues --  -10.27628 -10.27555 -10.27554 -10.27402 -10.27349
 Alpha  occ. eigenvalues --  -10.27321 -10.27273 -10.27207 -10.27144 -10.26923
 Alpha  occ. eigenvalues --  -10.26812 -10.26751 -10.26526 -10.26458 -10.26353
 Alpha  occ. eigenvalues --  -10.26340 -10.26183 -10.26116 -10.26106 -10.26056
 Alpha  occ. eigenvalues --  -10.25677 -10.25643 -10.25570 -10.25510 -10.25396
 Alpha  occ. eigenvalues --  -10.25016 -10.24925 -10.24921 -10.24633 -10.24567
 Alpha  occ. eigenvalues --  -10.24434  -3.16683  -3.16134  -1.91565  -1.91151
 Alpha  occ. eigenvalues --   -1.91016  -1.90994  -1.90605  -1.90441  -1.16851
 Alpha  occ. eigenvalues --   -1.16475  -1.08850  -1.08399  -1.07327  -1.06879
 Alpha  occ. eigenvalues --   -1.06758  -1.06690  -1.04722  -1.04202  -1.03903
 Alpha  occ. eigenvalues --   -1.03390  -1.03386  -1.02770  -1.02565  -1.01833
 Alpha  occ. eigenvalues --   -0.92140  -0.91713  -0.89676  -0.89294  -0.89289
 Alpha  occ. eigenvalues --   -0.88861  -0.88427  -0.88069  -0.88050  -0.87807
 Alpha  occ. eigenvalues --   -0.87504  -0.87421  -0.87392  -0.86759  -0.85093
 Alpha  occ. eigenvalues --   -0.84726  -0.84092  -0.83731  -0.83104  -0.82778
 Alpha  occ. eigenvalues --   -0.82651  -0.82371  -0.81761  -0.81370  -0.80753
 Alpha  occ. eigenvalues --   -0.80186  -0.78958  -0.78299  -0.77368  -0.77067
 Alpha  occ. eigenvalues --   -0.76875  -0.76677  -0.76073  -0.75556  -0.75037
 Alpha  occ. eigenvalues --   -0.74629  -0.72938  -0.72416  -0.71811  -0.71334
 Alpha  occ. eigenvalues --   -0.70070  -0.69613  -0.68999  -0.68552  -0.67793
 Alpha  occ. eigenvalues --   -0.67338  -0.67315  -0.66930  -0.65413  -0.65021
 Alpha  occ. eigenvalues --   -0.65006  -0.64766  -0.64519  -0.64428  -0.64405
 Alpha  occ. eigenvalues --   -0.64004  -0.62484  -0.62070  -0.60584  -0.60048
 Alpha  occ. eigenvalues --   -0.59931  -0.59507  -0.59140  -0.58738  -0.58664
 Alpha  occ. eigenvalues --   -0.58171  -0.57781  -0.57465  -0.57316  -0.57001
 Alpha  occ. eigenvalues --   -0.56480  -0.56150  -0.55912  -0.55669  -0.55659
 Alpha  occ. eigenvalues --   -0.55509  -0.55176  -0.55075  -0.54705  -0.54323
 Alpha  occ. eigenvalues --   -0.54002  -0.53636  -0.53458  -0.53360  -0.53087
 Alpha  occ. eigenvalues --   -0.52977  -0.52886  -0.52870  -0.52652  -0.52617
 Alpha  occ. eigenvalues --   -0.52330  -0.52250  -0.52143  -0.51739  -0.51603
 Alpha  occ. eigenvalues --   -0.51378  -0.51355  -0.50957  -0.50711  -0.50187
 Alpha  occ. eigenvalues --   -0.50143  -0.50048  -0.49711  -0.49649  -0.49614
 Alpha  occ. eigenvalues --   -0.49385  -0.49229  -0.49201  -0.48901  -0.48836
 Alpha  occ. eigenvalues --   -0.48757  -0.48610  -0.48580  -0.48306  -0.48195
 Alpha  occ. eigenvalues --   -0.48043  -0.47836  -0.47441  -0.47319  -0.46950
 Alpha  occ. eigenvalues --   -0.46825  -0.46667  -0.46525  -0.46461  -0.46331
 Alpha  occ. eigenvalues --   -0.46285  -0.46012  -0.45985  -0.45869  -0.45592
 Alpha  occ. eigenvalues --   -0.45338  -0.45042  -0.44765  -0.44636  -0.44307
 Alpha  occ. eigenvalues --   -0.44274  -0.44225  -0.44204  -0.44161  -0.43886
 Alpha  occ. eigenvalues --   -0.43829  -0.43684  -0.43641  -0.43508  -0.43354
 Alpha  occ. eigenvalues --   -0.43187  -0.43138  -0.42894  -0.42804  -0.42726
 Alpha  occ. eigenvalues --   -0.42667  -0.42335  -0.42165  -0.41864  -0.41764
 Alpha  occ. eigenvalues --   -0.41642  -0.41415  -0.41271  -0.41210  -0.40987
 Alpha  occ. eigenvalues --   -0.40932  -0.40736  -0.40707  -0.40476  -0.40432
 Alpha  occ. eigenvalues --   -0.40301  -0.40294  -0.39981  -0.39601  -0.39288
 Alpha  occ. eigenvalues --   -0.38591  -0.38184  -0.37839  -0.37459  -0.37409
 Alpha  occ. eigenvalues --   -0.37380  -0.37050  -0.36923  -0.36900  -0.36596
 Alpha  occ. eigenvalues --   -0.36354  -0.36014  -0.34441  -0.33999  -0.33984
 Alpha  occ. eigenvalues --   -0.33655  -0.33348  -0.32894  -0.31459  -0.31182
 Alpha  occ. eigenvalues --   -0.31001  -0.30700  -0.30245  -0.29694  -0.29611
 Alpha  occ. eigenvalues --   -0.29500  -0.29003  -0.28906  -0.24231  -0.23755
 Alpha  occ. eigenvalues --   -0.21283  -0.20825
 Alpha virt. eigenvalues --   -0.08932  -0.08486  -0.01891  -0.01415  -0.00200
 Alpha virt. eigenvalues --    0.00288   0.02010   0.02375   0.02584   0.03606
 Alpha virt. eigenvalues --    0.04601   0.04879   0.05036   0.05368   0.06091

 Mulliken charges:
               1
     1  Mg   0.839152
     2  C   -0.002744
     3  C   -0.094088
     4  C   -0.045148
     5  C   -0.064678
     6  N   -0.256949
     7  C   -0.052034
     8  C   -0.014266
     9  C   -0.087090
    10  C    0.046951
    11  C    0.104731
    12  C    0.053398
    13  C   -0.072713
    14  H    0.038577
    15  N   -0.433371
    16  C    0.169079
    17  C   -0.177147
    18  C   -0.003416
    19  C    0.149538
    20  C    0.110162
    21  C    0.012665
    22  O   -0.248081
    23  C    0.062414
    24  N   -0.341222
    25  C    0.041476
    26  C   -0.028916
    27  C   -0.024624
    28  C    0.074936
    29  C    0.075906
    30  C    0.036774
    31  C   -0.014578
    32  N   -0.310097
    33  C    0.079592
    34  C   -0.172164
    35  C    0.007432
    36  C    0.082225
    37  C    0.127780
    38  C    0.044470
    39  O   -0.189917
    40  C   -0.004881
    41  C    0.212695
    42  O   -0.258922
    43  O   -0.304231
    44  C    0.158476
    45  H   -0.017168
    46  H   -0.015750
    47  H   -0.042382
    48  H    0.000792
    49  H   -0.003544
    50  H    0.025483
    51  H    0.016431
    52  H    0.017083
    53  H    0.011745
    54  H    0.044474
    55  H    0.017288
    56  H    0.018319
    57  H    0.006283
    58  H    0.027491
    59  H    0.039070
    60  H    0.037590
    61  H    0.036521
    62  H    0.030449
    63  H    0.018262
    64  H    0.009758
    65  H    0.024501
    66  H    0.012569
    67  H    0.004850
    68  H    0.008029
    69  H    0.003415
    70  H    0.012897
    71  H    0.021737
    72  H    0.031690
    73  H    0.044906
    74  H    0.008445
    75  H    0.046736
    76  H    0.035597
    77  H    0.042797
    78  H    0.047990
    79  H    0.051398
    80  Mg   0.836711
    81  C   -0.016367
    82  C   -0.085362
    83  C   -0.044986
    84  C   -0.065533
    85  N   -0.254549
    86  C   -0.050423
    87  C   -0.013972
    88  C   -0.093084
    89  C    0.044310
    90  C    0.113569
    91  C    0.062957
    92  C   -0.077374
    93  H    0.033916
    94  N   -0.424414
    95  C    0.161977
    96  C   -0.167390
    97  C   -0.007532
    98  C    0.153653
    99  C    0.097239
   100  C    0.016385
   101  O   -0.255054
   102  C    0.060630
   103  N   -0.350118
   104  C    0.037342
   105  C   -0.019544
   106  C   -0.034141
   107  C    0.088430
   108  C    0.074383
   109  C    0.035103
   110  C   -0.007489
   111  N   -0.323971
   112  C    0.077645
   113  C   -0.163163
   114  C    0.002252
   115  C    0.095363
   116  C    0.130976
   117  C    0.042242
   118  O   -0.189088
   119  C    0.000273
   120  C    0.211274
   121  O   -0.251132
   122  O   -0.306050
   123  C    0.152157
   124  H   -0.013528
   125  H   -0.016813
   126  H   -0.042103
   127  H   -0.002744
   128  H   -0.004135
   129  H    0.019598
   130  H    0.019844
   131  H    0.016296
   132  H    0.014119
   133  H    0.037155
   134  H    0.019679
   135  H    0.020022
   136  H    0.011015
   137  H    0.034090
   138  H    0.037685
   139  H    0.040536
   140  H    0.034536
   141  H    0.033514
   142  H    0.013907
   143  H    0.009702
   144  H    0.023566
   145  H    0.012502
   146  H    0.002330
   147  H    0.004683
   148  H    0.002998
   149  H    0.010560
   150  H    0.017430
   151  H    0.031137
   152  H    0.045059
   153  H    0.006865
   154  H    0.049011
   155  H    0.034548
   156  H    0.043137
   157  H    0.049361
   158  H    0.053479
 Sum of Mulliken charges =  -0.00000

 Dipole moment (field-independent basis, Debye):
    X=              5.4176    Y=              0.6964    Z=              0.8853  Tot=              5.5335
 Quadrupole moment (field-independent basis, Debye-Ang):
   XX=           -528.4746   YY=           -524.3499   ZZ=           -467.4680
   XY=            -15.1077   XZ=             44.1905   YZ=             13.3924

 Normal termination of Gaussian 16 at Wed Sep  8 15:32:10 2021.
