 Gaussian 16, Revision A.03,
 Gaussian 16:  ES64L-G16RevA.03 25-Dec-2016

 -----------------------------------
 #p cam-b3lyp/Def2SVP td=(nstates=5)
 -----------------------------------

 --------------------------------
 TDDFT excited states in gaussian
 --------------------------------
 Symbolic Z-matrix:
 Charge =  0 Multiplicity = 1

                         Standard orientation:
 ---------------------------------------------------------------------
 Center     Atomic      Atomic             Coordinates (Angstroms)
 Number     Number       Type             X           Y           Z
 ---------------------------------------------------------------------
      1         12           0       -4.340834    0.606144    0.793892
      2          6           0       -5.041676   -1.978877   -1.580702
      3          6           0       -4.758731   -1.734276    3.241515
      4          6           0       -4.175262    2.955426    2.917588
      5          6           0       -5.093878    2.908387   -1.711755
      6          7           0       -4.833916   -1.550528    0.714654
      7          6           0       -5.019064   -2.434611   -0.260687
      8          6           0       -5.111678   -3.904573    0.247258
      9          6           0       -5.576944   -3.624100    1.746211
     10          6           0       -4.992198   -2.234256    1.926013
     11          6           0       -7.091405   -3.544681    1.909318
     12          6           0       -3.728261   -4.636723    0.204299
     13          6           0       -3.788614   -6.157906    0.370774
     14          1           0       -2.846078   -6.981523   -0.371269
     15          7           0       -3.972231    0.555680    2.734107
     16          6           0       -4.187969   -0.486282    3.572592
     17          6           0       -3.753651   -0.029632    4.910321
     18          6           0       -3.445659    1.424504    4.816922
     19          6           0       -3.882750    1.712841    3.474837
     20          6           0       -3.619965   -0.944557    6.088791
     21          6           0       -2.861378    2.401748    5.787355
     22          8           0       -2.893871    3.663670    5.584696
     23          6           0       -2.321793    1.841387    7.039507
     24          7           0       -4.807341    2.638778    0.702186
     25          6           0       -4.586798    3.445174    1.746251
     26          6           0       -4.727041    4.888025    1.360957
     27          6           0       -4.852340    4.910366   -0.230758
     28          6           0       -4.843504    3.383545   -0.489624
     29          6           0       -5.919542    5.632436    1.977240
     30          6           0       -3.842149    5.795305   -1.003295
     31          6           0       -2.448679    5.224280   -0.864477
     32          7           0       -4.787438    0.521505   -1.328471
     33          6           0       -5.092113    1.601416   -2.169684
     34          6           0       -5.426553    1.038832   -3.490940
     35          6           0       -5.308531   -0.339218   -3.320962
     36          6           0       -4.950258   -0.621051   -1.971702
     37          6           0       -5.839407    1.781052   -4.632472
     38          6           0       -5.425767   -1.640408   -3.958943
     39          8           0       -5.609846   -2.026317   -5.114227
     40          6           0       -5.376731   -2.759597   -2.827201
     41          6           0       -4.406236   -3.817818   -3.276218
     42          8           0       -3.187395   -3.568192   -3.373582
     43          8           0       -5.023047   -5.009406   -3.290563
     44          6           0       -4.107576   -6.108121   -3.699087
     45          1           0       -5.095773   -2.322511    4.097274
     46          1           0       -4.022419    3.803119    3.588775
     47          1           0       -5.256528    3.570163   -2.564427
     48          1           0       -5.854533   -4.516433   -0.264813
     49          1           0       -5.122291   -4.320518    2.450493
     50          1           0       -7.597678   -3.565627    0.944346
     51          1           0       -7.280187   -2.599019    2.417823
     52          1           0       -7.449865   -4.323729    2.582643
     53          1           0       -3.155475   -4.375298    1.094037
     54          1           0       -3.192503   -4.395568   -0.714469
     55          1           0       -4.804813   -6.532623    0.244931
     56          1           0       -3.537078   -6.398691    1.403707
     57          1           0       -4.074271   -1.915539    5.895542
     58          1           0       -4.220629   -0.518702    6.892258
     59          1           0       -2.584923   -1.043342    6.416300
     60          1           0       -3.113792    1.308289    7.565904
     61          1           0       -1.865868    2.676185    7.570633
     62          1           0       -1.562015    1.098394    6.795276
     63          1           0       -3.848564    5.459314    1.658163
     64          1           0       -5.827350    5.271084   -0.559259
     65          1           0       -5.636476    6.520558    2.542764
     66          1           0       -6.469072    4.929349    2.602521
     67          1           0       -6.687000    5.934936    1.265257
     68          1           0       -3.820169    6.800446   -0.583586
     69          1           0       -4.072029    5.884239   -2.065131
     70          1           0       -2.114643    5.627020    0.091061
     71          1           0       -1.812167    5.572188   -1.678739
     72          1           0       -2.470982    4.138390   -0.770502
     73          1           0       -5.300168    1.360445   -5.481165
     74          1           0       -5.624528    2.842773   -4.513405
     75          1           0       -6.908491    1.569139   -4.635291
     76          1           0       -6.389460   -3.148818   -2.727162
     77          1           0       -4.567677   -6.609328   -4.550751
     78          1           0       -3.917560   -6.701802   -2.804748
     79          1           0       -3.152755   -5.804852   -4.129997
     80         12           0        4.487772    0.547744   -0.969842
     81          6           0        4.720559   -2.194311    1.333627
     82          6           0        4.150151    2.597183    1.735784
     83          6           0        3.829976    2.919000   -2.972814
     84          6           0        3.702773   -1.778128   -3.443662
     85          7           0        4.455919    0.136346    1.203177
     86          6           0        4.615110   -0.936607    1.963298
     87          6           0        4.744591   -0.636360    3.480744
     88          6           0        3.985688    0.778550    3.511530
     89          6           0        4.238195    1.222715    2.072217
     90          6           0        2.485177    0.652338    3.716172
     91          6           0        6.239354   -0.496495    3.936966
     92          6           0        6.453301   -0.510808    5.452153
     93          1           0        7.657739   -1.146565    5.979040
     94          7           0        4.540017    2.512554   -0.695326
     95          6           0        4.409012    3.174675    0.473316
     96          6           0        4.499236    4.604236    0.138084
     97          6           0        4.529056    4.737557   -1.343824
     98          6           0        4.274303    3.366209   -1.737041
     99          6           0        4.628135    5.677669    1.179496
    100          6           0        4.737920    5.908147   -2.256118
    101          8           0        4.486620    5.837118   -3.510965
    102          6           0        5.156152    7.166965   -1.622144
    103          7           0        3.652146    0.595048   -2.872948
    104          6           0        3.525852    1.753387   -3.543930
    105          6           0        3.158568    1.509868   -4.988302
    106          6           0        3.301844   -0.067730   -5.207919
    107          6           0        3.656363   -0.492792   -3.766042
    108          6           0        1.756429    1.955823   -5.402451
    109          6           0        4.226194   -0.536132   -6.365013
    110          6           0        5.664053   -0.193544   -6.047873
    111          7           0        4.427728   -1.607028   -1.116049
    112          6           0        4.046763   -2.375566   -2.237790
    113          6           0        4.055581   -3.792063   -1.818378
    114          6           0        4.421658   -3.747271   -0.464693
    115          6           0        4.606869   -2.396752   -0.063100
    116          6           0        3.705335   -4.903755   -2.635426
    117          6           0        4.683168   -4.534699    0.718637
    118          8           0        4.766115   -5.738196    0.960413
    119          6           0        4.765176   -3.556414    1.968690
    120          6           0        5.989872   -3.919361    2.762992
    121          8           0        7.125327   -3.764602    2.279884
    122          8           0        5.629824   -4.182097    4.032522
    123          6           0        6.811962   -4.536456    4.862451
    124          1           0        3.809877    3.297415    2.499185
    125          1           0        3.695007    3.691684   -3.733220
    126          1           0        3.564965   -2.570594   -4.182364
    127          1           0        4.239827   -1.343191    4.128345
    128          1           0        4.457130    1.464495    4.210523
    129          1           0        2.160024   -0.377067    3.688881
    130          1           0        2.030187    1.214287    2.911034
    131          1           0        2.187185    1.155227    4.640639
    132          1           0        6.590431    0.517749    3.707212
    133          1           0        6.849689   -1.250229    3.478712
    134          1           0        5.565402   -0.864049    5.990484
    135          1           0        6.582044    0.518976    5.794168
    136          1           0        4.410606    5.292432    2.183325
    137          1           0        3.831583    6.405098    0.989220
    138          1           0        5.591713    6.190093    1.139201
    139          1           0        4.413665    7.464410   -0.885464
    140          1           0        5.340577    7.861097   -2.444367
    141          1           0        6.088961    6.990151   -1.075129
    142          1           0        3.844106    2.020918   -5.653102
    143          1           0        2.334971   -0.535618   -5.444733
    144          1           0        1.757490    2.672003   -6.245752
    145          1           0        1.266052    2.385660   -4.539146
    146          1           0        1.077597    1.149991   -5.676350
    147          1           0        3.976902   -0.005645   -7.287288
    148          1           0        4.152017   -1.598073   -6.574211
    149          1           0        5.742959    0.852384   -6.359149
    150          1           0        6.342888   -0.826624   -6.615697
    151          1           0        5.848548   -0.230893   -4.967956
    152          1           0        4.442695   -5.672838   -2.447485
    153          1           0        3.674974   -4.629720   -3.687926
    154          1           0        2.710958   -5.129875   -2.241278
    155          1           0        3.849249   -3.685776    2.546564
    156          1           0        6.605850   -5.512906    5.311625
    157          1           0        6.958020   -3.684933    5.553331
    158          1           0        7.745018   -4.733240    4.347543
 ---------------------------------------------------------------------

 SCF Done:  E(RCAM-B3LYP) =  -4069.81227189     A.U. after   19 cycles

 Excitation energies and oscillator strengths:

 Excited State   1:      Singlet-A      1.6688 eV  742.97 nm  f=0.3112  <S**2>=0.000
     310 -> 316       -0.14345
     311 -> 313       -0.37706
     312 -> 314        0.57300
 This state for optimization and/or second-order correction.
 Total Energy, E(TD-HF/TD-DFT) =  -4069.75094611
 Copying the excited state density for this state as the 1-particle RhoCI density.

 Excited State   2:      Singlet-A      1.6773 eV  739.17 nm  f=0.3592  <S**2>=0.000
     309 -> 315       -0.14530
     311 -> 313        0.57256
     312 -> 314        0.37708

 Excited State   3:      Singlet-A      2.1843 eV  567.61 nm  f=0.1018  <S**2>=0.000
     310 -> 314        0.64112
     312 -> 316        0.27169

 Excited State   4:      Singlet-A      2.1902 eV  566.08 nm  f=0.0959  <S**2>=0.000
     309 -> 313        0.63958
     311 -> 315        0.27550

 Excited State   5:      Singlet-A      2.3486 eV  527.91 nm  f=0.0000  <S**2>=0.000
     312 -> 313        0.70706

 The electronic state is 1-A.
 Alpha  occ. eigenvalues --  -46.87905 -46.87456 -19.26358 -19.26317 -19.19115
 Alpha  occ. eigenvalues --  -19.19098 -19.19020 -19.18553 -19.18288 -19.17922
 Alpha  occ. eigenvalues --  -14.42548 -14.42307 -14.41557 -14.41132 -14.39523
 Alpha  occ. eigenvalues --  -14.39154 -14.38696 -14.38397 -10.39173 -10.39024
 Alpha  occ. eigenvalues --  -10.35657 -10.35233 -10.34504 -10.34102 -10.31756
 Alpha  occ. eigenvalues --  -10.31731 -10.31490 -10.31126 -10.31009 -10.30861
 Alpha  occ. eigenvalues --  -10.30674 -10.30630 -10.30324 -10.30191 -10.30159
 Alpha  occ. eigenvalues --  -10.30031 -10.29889 -10.29757 -10.29656 -10.29379
 Alpha  occ. eigenvalues --  -10.29224 -10.29203 -10.28792 -10.28624 -10.28621
 Alpha  occ. eigenvalues --  -10.28482 -10.28477 -10.28225 -10.28166 -10.28024
 Alpha  occ. eigenvalues --  -10.27916 -10.27825 -10.27812 -10.27720 -10.27619
 Alpha  occ. eigenvalues --  -10.27598 -10.27564 -10.27508 -10.27468 -10.27302
 Alpha  occ. eigenvalues --  -10.27282 -10.27274 -10.27257 -10.27177 -10.27070
 Alpha  occ. eigenvalues --  -10.26944 -10.26703 -10.26673 -10.26616 -10.26284
 Alpha  occ. eigenvalues --  -10.26282 -10.26256 -10.26124 -10.25951 -10.25941
 Alpha  occ. eigenvalues --  -10.25836 -10.25682 -10.25608 -10.25548 -10.25025
 Alpha  occ. eigenvalues --  -10.24953 -10.24908 -10.24742 -10.24687 -10.24481
 Alpha  occ. eigenvalues --  -10.24480  -3.16648  -3.16206  -1.91529  -1.91116
 Alpha  occ. eigenvalues --   -1.91088  -1.90958  -1.90677  -1.90514  -1.16711
 Alpha  occ. eigenvalues --   -1.16604  -1.08743  -1.08539  -1.07427  -1.06884
 Alpha  occ. eigenvalues --   -1.06808  -1.06735  -1.04680  -1.04313  -1.03869
 Alpha  occ. eigenvalues --   -1.03460  -1.03350  -1.02819  -1.02523  -1.01902
 Alpha  occ. eigenvalues --   -0.92078  -0.91817  -0.89621  -0.89255  -0.89238
 Alpha  occ. eigenvalues --   -0.89025  -0.88390  -0.87982  -0.87956  -0.87763
 Alpha  occ. eigenvalues --   -0.87588  -0.87486  -0.87427  -0.86939  -0.85049
 Alpha  occ. eigenvalues --   -0.84859  -0.84034  -0.83623  -0.83144  -0.82745
 Alpha  occ. eigenvalues --   -0.82736  -0.82508  -0.81672  -0.81469  -0.80701
 Alpha  occ. eigenvalues --   -0.80289  -0.78929  -0.78443  -0.77308  -0.76997
 Alpha  occ. eigenvalues --   -0.76981  -0.76732  -0.76000  -0.75702  -0.74997
 Alpha  occ. eigenvalues --   -0.74555  -0.72881  -0.72493  -0.71769  -0.71384
 Alpha  occ. eigenvalues --   -0.69995  -0.69488  -0.68956  -0.68683  -0.67762
 Alpha  occ. eigenvalues --   -0.67421  -0.67288  -0.67074  -0.65353  -0.65139
 Alpha  occ. eigenvalues --   -0.64952  -0.64707  -0.64587  -0.64493  -0.64370
 Alpha  occ. eigenvalues --   -0.63960  -0.62386  -0.62147  -0.60582  -0.60138
 Alpha  occ. eigenvalues --   -0.59879  -0.59653  -0.59091  -0.58795  -0.58611
 Alpha  occ. eigenvalues --   -0.58242  -0.57686  -0.57432  -0.57424  -0.57029
 Alpha  occ. eigenvalues --   -0.56426  -0.56055  -0.56029  -0.55777  -0.55653
 Alpha  occ. eigenvalues --   -0.55436  -0.55311  -0.55040  -0.54614  -0.54292
 Alpha  occ. eigenvalues --   -0.53950  -0.53793  -0.53433  -0.53322  -0.53042
 Alpha  occ. eigenvalues --   -0.53023  -0.52992  -0.52880  -0.52761  -0.52526
 Alpha  occ. eigenvalues --   -0.52522  -0.52145  -0.52026  -0.51701  -0.51666
 Alpha  occ. eigenvalues --   -0.51532  -0.51289  -0.51030  -0.50747  -0.50300
 Alpha  occ. eigenvalues --   -0.50130  -0.50061  -0.49828  -0.49619  -0.49613
 Alpha  occ. eigenvalues --   -0.49338  -0.49330  -0.49165  -0.49062  -0.48962
 Alpha  occ. eigenvalues --   -0.48685  -0.48615  -0.48558  -0.48420  -0.48193
 Alpha  occ. eigenvalues --   -0.48120  -0.47797  -0.47423  -0.47413  -0.46918
 Alpha  occ. eigenvalues --   -0.46889  -0.46617  -0.46521  -0.46467  -0.46401
 Alpha  occ. eigenvalues --   -0.46264  -0.46066  -0.45910  -0.45866  -0.45667
 Alpha  occ. eigenvalues --   -0.45306  -0.44960  -0.44687  -0.44620  -0.44379
 Alpha  occ. eigenvalues --   -0.44310  -0.44253  -0.44154  -0.44133  -0.43984
 Alpha  occ. eigenvalues --   -0.43876  -0.43795  -0.43590  -0.43467  -0.43424
 Alpha  occ. eigenvalues --   -0.43217  -0.43127  -0.42828  -0.42794  -0.42740
 Alpha  occ. eigenvalues --   -0.42714  -0.42319  -0.42090  -0.41810  -0.41770
 Alpha  occ. eigenvalues --   -0.41592  -0.41501  -0.41300  -0.41234  -0.41005
 Alpha  occ. eigenvalues --   -0.40921  -0.40815  -0.40660  -0.40583  -0.40546
 Alpha  occ. eigenvalues --   -0.40259  -0.40246  -0.40130  -0.39524  -0.39152
 Alpha  occ. eigenvalues --   -0.38557  -0.38108  -0.37791  -0.37537  -0.37418
 Alpha  occ. eigenvalues --   -0.37327  -0.37059  -0.37015  -0.36802  -0.36674
 Alpha  occ. eigenvalues --   -0.36282  -0.36009  -0.34392  -0.34058  -0.33871
 Alpha  occ. eigenvalues --   -0.33772  -0.33297  -0.32969  -0.31546  -0.31145
 Alpha  occ. eigenvalues --   -0.31110  -0.30781  -0.30144  -0.29830  -0.29587
 Alpha  occ. eigenvalues --   -0.29442  -0.29140  -0.29020  -0.24187  -0.23830
 Alpha  occ. eigenvalues --   -0.21238  -0.20911
 Alpha virt. eigenvalues --   -0.08896  -0.08595  -0.01868  -0.01473  -0.00204
 Alpha virt. eigenvalues --    0.00137   0.02079   0.02379   0.02842   0.03481
 Alpha virt. eigenvalues --    0.04647   0.04905   0.05006   0.05241   0.06162

 Mulliken charges:
               1
     1  Mg   0.838818
     2  C   -0.002882
     3  C   -0.093676
     4  C   -0.046461
     5  C   -0.063842
     6  N   -0.256873
     7  C   -0.051916
     8  C   -0.014154
     9  C   -0.087035
    10  C    0.046383
    11  C    0.104746
    12  C    0.053305
    13  C   -0.072646
    14  H    0.038140
    15  N   -0.433013
    16  C    0.168105
    17  C   -0.177336
    18  C   -0.004731
    19  C    0.148541
    20  C    0.110106
    21  C    0.010828
    22  O   -0.250530
    23  C    0.062721
    24  N   -0.341239
    25  C    0.041505
    26  C   -0.027994
    27  C   -0.024064
    28  C    0.075168
    29  C    0.076201
    30  C    0.035087
    31  C   -0.004614
    32  N   -0.310516
    33  C    0.080666
    34  C   -0.169877
    35  C    0.008199
    36  C    0.083131
    37  C    0.127383
    38  C    0.045797
    39  O   -0.188404
    40  C   -0.005170
    41  C    0.212977
    42  O   -0.257809
    43  O   -0.304549
    44  C    0.157814
    45  H   -0.017259
    46  H   -0.017485
    47  H   -0.041112
    48  H    0.001105
    49  H   -0.003337
    50  H    0.025482
    51  H    0.016213
    52  H    0.017074
    53  H    0.011769
    54  H    0.043831
    55  H    0.017548
    56  H    0.018918
    57  H    0.006716
    58  H    0.026884
    59  H    0.038585
    60  H    0.038441
    61  H    0.034408
    62  H    0.029911
    63  H    0.015635
    64  H    0.009679
    65  H    0.022822
    66  H    0.012630
    67  H    0.005071
    68  H    0.006092
    69  H    0.005403
    70  H    0.006800
    71  H    0.020917
    72  H    0.028916
    73  H    0.047182
    74  H    0.009574
    75  H    0.046345
    76  H    0.035530
    77  H    0.043089
    78  H    0.047373
    79  H    0.052877
    80  Mg   0.837998
    81  C   -0.017325
    82  C   -0.088275
    83  C   -0.045629
    84  C   -0.060817
    85  N   -0.254592
    86  C   -0.050068
    87  C   -0.015003
    88  C   -0.090484
    89  C    0.045291
    90  C    0.114327
    91  C    0.062696
    92  C   -0.077448
    93  H    0.034380
    94  N   -0.423457
    95  C    0.162664
    96  C   -0.174608
    97  C   -0.008205
    98  C    0.152235
    99  C    0.099415
   100  C    0.015047
   101  O   -0.253587
   102  C    0.061339
   103  N   -0.349966
   104  C    0.038159
   105  C   -0.020400
   106  C   -0.035719
   107  C    0.088940
   108  C    0.072647
   109  C    0.034532
   110  C   -0.007512
   111  N   -0.324268
   112  C    0.078133
   113  C   -0.161767
   114  C    0.001557
   115  C    0.096629
   116  C    0.131743
   117  C    0.042042
   118  O   -0.189397
   119  C    0.000995
   120  C    0.211134
   121  O   -0.250880
   122  O   -0.306172
   123  C    0.152144
   124  H   -0.018865
   125  H   -0.015851
   126  H   -0.038665
   127  H   -0.002393
   128  H   -0.004492
   129  H    0.020599
   130  H    0.016596
   131  H    0.015062
   132  H    0.014237
   133  H    0.037610
   134  H    0.019503
   135  H    0.019709
   136  H    0.009182
   137  H    0.026018
   138  H    0.039165
   139  H    0.037958
   140  H    0.035809
   141  H    0.033827
   142  H    0.013567
   143  H    0.017725
   144  H    0.023618
   145  H    0.011125
   146  H    0.010869
   147  H    0.006453
   148  H    0.004192
   149  H    0.010442
   150  H    0.017270
   151  H    0.029476
   152  H    0.044597
   153  H    0.009281
   154  H    0.048608
   155  H    0.033385
   156  H    0.043075
   157  H    0.049243
   158  H    0.053679
 Sum of Mulliken charges =  -0.00000

 Dipole moment (field-independent basis, Debye):
    X=             -2.9975    Y=              1.7616    Z=              6.0106  Tot=              6.9437
 Quadrupole moment (field-independent basis, Debye-Ang):
   XX=           -520.1337   YY=           -505.5684   ZZ=           -493.5956
   XY=             26.6615   XZ=             -3.7245   YZ=             -7.3336

 Normal termination of Gaussian 16 at Fri Sep  3 22:11:39 2021.
