 Gaussian 16, Revision A.03,
 Gaussian 16:  ES64L-G16RevA.03 25-Dec-2016

 -----------------------------------
 #p cam-b3lyp/Def2SVP td=(nstates=5)
 -----------------------------------

 --------------------------------
 TDDFT excited states in gaussian
 --------------------------------
 Symbolic Z-matrix:
 Charge =  0 Multiplicity = 1

                         Standard orientation:
 ---------------------------------------------------------------------
 Center     Atomic      Atomic             Coordinates (Angstroms)
 Number     Number       Type             X           Y           Z
 ---------------------------------------------------------------------
      1         12           0       -7.841858    0.573742   -0.573785
      2          6           0       -8.122353   -2.560284    1.132503
      3          6           0       -8.923613    2.064907    2.298374
      4          6           0       -8.037696    3.295572   -2.189307
      5          6           0       -7.888024   -1.217477   -3.562943
      6          7           0       -8.416355   -0.249915    1.399079
      7          6           0       -8.422358   -1.462976    1.942785
      8          6           0       -8.704037   -1.451839    3.475073
      9          6           0       -9.480557   -0.063177    3.578184
     10          6           0       -8.879700    0.641070    2.374469
     11          6           0      -10.986440   -0.190397    3.371701
     12          6           0       -7.386892   -1.435922    4.321599
     13          6           0       -7.562733   -1.752066    5.809715
     14          1           0       -6.521321   -2.503636    6.493784
     15          7           0       -7.924209    2.440747    0.066810
     16          6           0       -8.377946    2.864531    1.270893
     17          6           0       -8.233767    4.336219    1.265823
     18          6           0       -7.837048    4.749817   -0.108821
     19          6           0       -7.943992    3.498417   -0.814469
     20          6           0       -8.417758    5.185210    2.486115
     21          6           0       -7.436808    6.066343   -0.695931
     22          8           0       -7.356665    6.251904   -1.958356
     23          6           0       -7.224069    7.172320    0.255174
     24          7           0       -8.168671    1.008490   -2.589181
     25          6           0       -8.147821    2.269242   -3.035336
     26          6           0       -8.121778    2.317618   -4.534309
     27          6           0       -7.882945    0.815669   -5.020991
     28          6           0       -7.895697    0.115223   -3.639875
     29          6           0       -9.382076    2.878012   -5.207822
     30          6           0       -6.679510    0.565015   -5.964038
     31          6           0       -5.385224    0.801018   -5.218234
     32          7           0       -7.801300   -1.519444   -1.146476
     33          6           0       -7.851195   -2.038511   -2.448303
     34          6           0       -7.907477   -3.506828   -2.326051
     35          6           0       -7.903111   -3.740783   -0.952336
     36          6           0       -7.874117   -2.496512   -0.260064
     37          6           0       -8.012419   -4.429422   -3.404124
     38          6           0       -7.941066   -4.751720    0.091897
     39          8           0       -7.879339   -5.981896    0.110553
     40          6           0       -8.207524   -4.024897    1.483499
     41          6           0       -7.217372   -4.568571    2.477143
     42          8           0       -5.996701   -4.339927    2.354458
     43          8           0       -7.876430   -5.065166    3.535243
     44          6           0       -6.951066   -5.594338    4.572467
     45          1           0       -9.475529    2.617479    3.061260
     46          1           0       -7.996313    4.207684   -2.788286
     47          1           0       -7.819036   -1.845019   -4.453383
     48          1           0       -9.342967   -2.262579    3.825636
     49          1           0       -9.233792    0.474061    4.493719
     50          1           0      -11.262037   -1.197518    3.059171
     51          1           0      -11.235503    0.531258    2.593451
     52          1           0      -11.527956    0.130240    4.262054
     53          1           0       -7.017029   -0.413009    4.391687
     54          1           0       -6.645587   -2.112216    3.894493
     55          1           0       -8.542403   -2.185947    6.011957
     56          1           0       -7.563967   -0.811615    6.360851
     57          1           0       -8.866794    4.620997    3.302555
     58          1           0       -9.161284    5.942402    2.238047
     59          1           0       -7.490067    5.667888    2.793918
     60          1           0       -8.141263    7.343454    0.819105
     61          1           0       -6.856900    8.010673   -0.335758
     62          1           0       -6.468670    6.872497    0.982105
     63          1           0       -7.304508    2.942993   -4.891243
     64          1           0       -8.738322    0.423160   -5.571393
     65          1           0       -9.188038    3.729916   -5.859983
     66          1           0      -10.094631    3.138544   -4.425723
     67          1           0       -9.951976    2.152048   -5.787138
     68          1           0       -6.700388    1.264059   -6.799410
     69          1           0       -6.658620   -0.443881   -6.376280
     70          1           0       -5.255080    1.880120   -5.291945
     71          1           0       -4.563936    0.274531   -5.705583
     72          1           0       -5.484917    0.556327   -4.160560
     73          1           0       -7.318153   -5.239483   -3.181041
     74          1           0       -7.774784   -3.954897   -4.355942
     75          1           0       -9.062812   -4.710075   -3.328200
     76          1           0       -9.235602   -4.251923    1.763922
     77          1           0       -7.232452   -6.631589    4.754587
     78          1           0       -6.999286   -4.901923    5.413086
     79          1           0       -5.909072   -5.713254    4.273391
     80         12           0        8.005481    0.740958    0.469603
     81          6           0        7.971017   -2.135918   -1.675493
     82          6           0        6.983510   -1.313942    2.992994
     83          6           0        7.591525    3.321089    2.269324
     84          6           0        7.904377    2.711533   -2.403091
     85          7           0        7.568591   -1.426524    0.527664
     86          6           0        7.649959   -2.429368   -0.333754
     87          6           0        7.450227   -3.834711    0.294475
     88          6           0        6.599406   -3.402074    1.585915
     89          6           0        7.102338   -1.968301    1.740881
     90          6           0        5.101631   -3.358128    1.332778
     91          6           0        8.808849   -4.506571    0.700374
     92          6           0        8.715052   -5.997378    1.032712
     93          1           0        9.832461   -6.863596    0.667304
     94          7           0        7.858122    0.921932    2.440411
     95          6           0        7.447460   -0.019715    3.315586
     96          6           0        7.498532    0.614266    4.642088
     97          6           0        7.815136    2.057019    4.460565
     98          6           0        7.745169    2.162638    3.016950
     99          6           0        7.337305   -0.157449    5.919544
    100          6           0        8.116748    3.161989    5.427143
    101          8           0        8.128080    4.390816    5.062896
    102          6           0        8.306368    2.770868    6.831622
    103          7           0        7.567316    2.721765    0.014868
    104          6           0        7.493988    3.653146    0.981873
    105          6           0        7.442597    5.044251    0.396582
    106          6           0        7.741719    4.865009   -1.164181
    107          6           0        7.829913    3.324446   -1.229655
    108          6           0        6.123280    5.794310    0.578802
    109          6           0        8.910997    5.698168   -1.756901
    110          6           0       10.227134    5.216258   -1.190405
    111          7           0        8.133358    0.394892   -1.659234
    112          6           0        8.042204    1.358863   -2.687110
    113          6           0        8.070048    0.629628   -3.971584
    114          6           0        8.152944   -0.720342   -3.598519
    115          6           0        8.154822   -0.826329   -2.181381
    116          6           0        7.972838    1.217590   -5.264254
    117          6           0        8.228568   -2.080476   -4.081233
    118          8           0        8.348911   -2.603984   -5.188125
    119          6           0        7.986609   -3.065274   -2.857294
    120          6           0        9.050282   -4.128005   -2.898908
    121          8           0       10.245183   -3.833660   -2.719495
    122          8           0        8.463098   -5.338303   -2.926324
    123          6           0        9.477413   -6.425525   -2.956998
    124          1           0        6.446892   -1.821742    3.794913
    125          1           0        7.555795    4.250664    2.842132
    126          1           0        7.975705    3.260084   -3.344719
    127          1           0        6.878787   -4.526615   -0.312564
    128          1           0        6.869756   -3.996954    2.454472
    129          1           0        4.864534   -3.511065    0.290406
    130          1           0        4.777585   -2.377032    1.654494
    131          1           0        4.588417   -4.073033    1.982279
    132          1           0        9.123923   -4.115929    1.676525
    133          1           0        9.552026   -4.351336   -0.057406
    134          1           0        7.765416   -6.434640    0.701134
    135          1           0        8.697106   -6.110185    2.119429
    136          1           0        6.951577   -1.167390    5.733431
    137          1           0        6.544190    0.334899    6.492624
    138          1           0        8.249376   -0.173386    6.520001
    139          1           0        7.411535    2.267830    7.190371
    140          1           0        8.600789    3.684241    7.352135
    141          1           0        9.120886    2.039840    6.884298
    142          1           0        8.208382    5.675104    0.830971
    143          1           0        6.878754    5.156850   -1.780586
    144          1           0        6.241193    6.765769    1.094974
    145          1           0        5.439699    5.155526    1.122126
    146          1           0        5.573809    5.992135   -0.339975
    147          1           0        8.813705    6.747201   -1.466704
    148          1           0        8.957959    5.666766   -2.840320
    149          1           0       10.290339    5.740921   -0.232375
    150          1           0       11.050409    5.491833   -1.846396
    151          1           0       10.193540    4.141723   -0.976170
    152          1           0        8.711628    0.728476   -5.885108
    153          1           0        8.134256    2.292847   -5.225114
    154          1           0        6.938819    0.966604   -5.515408
    155          1           0        6.985334   -3.483724   -2.966492
    156          1           0        9.257208   -7.043283   -3.833106
    157          1           0        9.419437   -6.916192   -1.967228
    158          1           0       10.506598   -6.145529   -3.148920
 ---------------------------------------------------------------------

 SCF Done:  E(RCAM-B3LYP) =  -4069.81187293     A.U. after   19 cycles

 Excitation energies and oscillator strengths:

 Excited State   1:      Singlet-A      1.6736 eV  740.80 nm  f=0.2418  <S**2>=0.000
     310 -> 316        0.15426
     311 -> 313       -0.30987
     312 -> 314        0.61219
 This state for optimization and/or second-order correction.
 Total Energy, E(TD-HF/TD-DFT) =  -4069.75036768
 Copying the excited state density for this state as the 1-particle RhoCI density.

 Excited State   2:      Singlet-A      1.6811 eV  737.51 nm  f=0.5091  <S**2>=0.000
     309 -> 315        0.15704
     311 -> 313        0.61169
     312 -> 314        0.30963

 Excited State   3:      Singlet-A      2.1854 eV  567.32 nm  f=0.0916  <S**2>=0.000
     310 -> 314        0.63847
     312 -> 316       -0.27061

 Excited State   4:      Singlet-A      2.1929 eV  565.39 nm  f=0.1067  <S**2>=0.000
     309 -> 313        0.63647
     311 -> 315       -0.27674

 Excited State   5:      Singlet-A      2.7633 eV  448.68 nm  f=0.0000  <S**2>=0.000
     312 -> 313        0.70710

 The electronic state is 1-A.
 Alpha  occ. eigenvalues --  -46.87839 -46.87585 -19.26370 -19.26259 -19.19104
 Alpha  occ. eigenvalues --  -19.19076 -19.18849 -19.18664 -19.18222 -19.17975
 Alpha  occ. eigenvalues --  -14.42494 -14.42416 -14.41489 -14.41287 -14.39444
 Alpha  occ. eigenvalues --  -14.39279 -14.38630 -14.38526 -10.39161 -10.39005
 Alpha  occ. eigenvalues --  -10.35482 -10.35343 -10.34443 -10.34151 -10.31779
 Alpha  occ. eigenvalues --  -10.31665 -10.31452 -10.31221 -10.30956 -10.30941
 Alpha  occ. eigenvalues --  -10.30613 -10.30548 -10.30328 -10.30284 -10.30241
 Alpha  occ. eigenvalues --  -10.30074 -10.29958 -10.29826 -10.29672 -10.29367
 Alpha  occ. eigenvalues --  -10.29332 -10.29293 -10.28808 -10.28623 -10.28613
 Alpha  occ. eigenvalues --  -10.28551 -10.28410 -10.28329 -10.28169 -10.28023
 Alpha  occ. eigenvalues --  -10.27929 -10.27835 -10.27770 -10.27625 -10.27586
 Alpha  occ. eigenvalues --  -10.27524 -10.27517 -10.27475 -10.27462 -10.27450
 Alpha  occ. eigenvalues --  -10.27406 -10.27406 -10.27399 -10.27322 -10.27217
 Alpha  occ. eigenvalues --  -10.26964 -10.26779 -10.26596 -10.26439 -10.26379
 Alpha  occ. eigenvalues --  -10.26281 -10.26198 -10.26090 -10.26056 -10.25877
 Alpha  occ. eigenvalues --  -10.25866 -10.25864 -10.25786 -10.25457 -10.25350
 Alpha  occ. eigenvalues --  -10.24876 -10.24827 -10.24800 -10.24701 -10.24687
 Alpha  occ. eigenvalues --  -10.24621  -3.16582  -3.16335  -1.91464  -1.91218
 Alpha  occ. eigenvalues --   -1.91050  -1.90892  -1.90806  -1.90643  -1.16718
 Alpha  occ. eigenvalues --   -1.16554  -1.08682  -1.08581  -1.07250  -1.06918
 Alpha  occ. eigenvalues --   -1.06860  -1.06726  -1.04626  -1.04413  -1.03801
 Alpha  occ. eigenvalues --   -1.03588  -1.03275  -1.02968  -1.02452  -1.02038
 Alpha  occ. eigenvalues --   -0.92020  -0.91908  -0.89552  -0.89429  -0.89243
 Alpha  occ. eigenvalues --   -0.89045  -0.88318  -0.88159  -0.87911  -0.87722
 Alpha  occ. eigenvalues --   -0.87718  -0.87604  -0.87312  -0.87059  -0.85035
 Alpha  occ. eigenvalues --   -0.84908  -0.83968  -0.83817  -0.83000  -0.82879
 Alpha  occ. eigenvalues --   -0.82699  -0.82569  -0.81647  -0.81515  -0.80647
 Alpha  occ. eigenvalues --   -0.80366  -0.78836  -0.78568  -0.77261  -0.77064
 Alpha  occ. eigenvalues --   -0.76989  -0.76814  -0.75977  -0.75745  -0.74934
 Alpha  occ. eigenvalues --   -0.74737  -0.72815  -0.72625  -0.71716  -0.71499
 Alpha  occ. eigenvalues --   -0.69933  -0.69700  -0.68923  -0.68740  -0.67686
 Alpha  occ. eigenvalues --   -0.67530  -0.67275  -0.67119  -0.65341  -0.65180
 Alpha  occ. eigenvalues --   -0.64902  -0.64694  -0.64670  -0.64572  -0.64304
 Alpha  occ. eigenvalues --   -0.64139  -0.62362  -0.62198  -0.60479  -0.60277
 Alpha  occ. eigenvalues --   -0.59855  -0.59702  -0.59031  -0.58918  -0.58549
 Alpha  occ. eigenvalues --   -0.58351  -0.57643  -0.57473  -0.57350  -0.57170
 Alpha  occ. eigenvalues --   -0.56354  -0.56131  -0.56049  -0.55803  -0.55563
 Alpha  occ. eigenvalues --   -0.55382  -0.55381  -0.55180  -0.54574  -0.54418
 Alpha  occ. eigenvalues --   -0.53951  -0.53811  -0.53340  -0.53272  -0.53159
 Alpha  occ. eigenvalues --   -0.53063  -0.52969  -0.52822  -0.52799  -0.52599
 Alpha  occ. eigenvalues --   -0.52464  -0.52347  -0.51955  -0.51816  -0.51670
 Alpha  occ. eigenvalues --   -0.51573  -0.51243  -0.51126  -0.50606  -0.50419
 Alpha  occ. eigenvalues --   -0.50062  -0.49959  -0.49900  -0.49805  -0.49563
 Alpha  occ. eigenvalues --   -0.49412  -0.49262  -0.49148  -0.49122  -0.49010
 Alpha  occ. eigenvalues --   -0.48646  -0.48497  -0.48489  -0.48473  -0.48314
 Alpha  occ. eigenvalues --   -0.48276  -0.47740  -0.47518  -0.47339  -0.47050
 Alpha  occ. eigenvalues --   -0.46838  -0.46634  -0.46611  -0.46461  -0.46401
 Alpha  occ. eigenvalues --   -0.46206  -0.46201  -0.46016  -0.45875  -0.45742
 Alpha  occ. eigenvalues --   -0.45234  -0.45145  -0.44629  -0.44549  -0.44437
 Alpha  occ. eigenvalues --   -0.44390  -0.44184  -0.44137  -0.44067  -0.44039
 Alpha  occ. eigenvalues --   -0.44014  -0.43869  -0.43553  -0.43473  -0.43431
 Alpha  occ. eigenvalues --   -0.43303  -0.43072  -0.42851  -0.42822  -0.42767
 Alpha  occ. eigenvalues --   -0.42692  -0.42493  -0.42050  -0.41893  -0.41750
 Alpha  occ. eigenvalues --   -0.41591  -0.41586  -0.41373  -0.41185  -0.40916
 Alpha  occ. eigenvalues --   -0.40903  -0.40863  -0.40656  -0.40617  -0.40606
 Alpha  occ. eigenvalues --   -0.40423  -0.40298  -0.40136  -0.39465  -0.39370
 Alpha  occ. eigenvalues --   -0.38504  -0.38283  -0.37810  -0.37565  -0.37356
 Alpha  occ. eigenvalues --   -0.37318  -0.37196  -0.37113  -0.36780  -0.36690
 Alpha  occ. eigenvalues --   -0.36244  -0.36143  -0.34329  -0.34178  -0.33847
 Alpha  occ. eigenvalues --   -0.33780  -0.33231  -0.33101  -0.31379  -0.31223
 Alpha  occ. eigenvalues --   -0.31079  -0.30898  -0.30082  -0.29878  -0.29490
 Alpha  occ. eigenvalues --   -0.29365  -0.29260  -0.29140  -0.24124  -0.23960
 Alpha  occ. eigenvalues --   -0.21169  -0.21043
 Alpha virt. eigenvalues --   -0.08816  -0.08720  -0.01790  -0.01612  -0.00099
 Alpha virt. eigenvalues --    0.00039   0.02155   0.02279   0.03073   0.03293
 Alpha virt. eigenvalues --    0.04667   0.04817   0.05021   0.05250   0.06107

 Mulliken charges:
               1
     1  Mg   0.838649
     2  C   -0.003129
     3  C   -0.094205
     4  C   -0.045828
     5  C   -0.063794
     6  N   -0.256797
     7  C   -0.052556
     8  C   -0.014008
     9  C   -0.087008
    10  C    0.046303
    11  C    0.104791
    12  C    0.053495
    13  C   -0.071610
    14  H    0.035438
    15  N   -0.433177
    16  C    0.168431
    17  C   -0.177125
    18  C   -0.003935
    19  C    0.148722
    20  C    0.110149
    21  C    0.012302
    22  O   -0.249514
    23  C    0.062464
    24  N   -0.341135
    25  C    0.041286
    26  C   -0.028207
    27  C   -0.023990
    28  C    0.074771
    29  C    0.076131
    30  C    0.035083
    31  C   -0.004555
    32  N   -0.310444
    33  C    0.080333
    34  C   -0.169674
    35  C    0.008299
    36  C    0.082926
    37  C    0.127318
    38  C    0.046020
    39  O   -0.188613
    40  C   -0.005327
    41  C    0.212889
    42  O   -0.257503
    43  O   -0.304638
    44  C    0.157851
    45  H   -0.017561
    46  H   -0.016707
    47  H   -0.041296
    48  H    0.000912
    49  H   -0.004088
    50  H    0.025491
    51  H    0.016571
    52  H    0.016698
    53  H    0.011190
    54  H    0.043809
    55  H    0.018026
    56  H    0.018032
    57  H    0.005852
    58  H    0.026942
    59  H    0.039619
    60  H    0.037405
    61  H    0.035753
    62  H    0.031512
    63  H    0.016638
    64  H    0.009568
    65  H    0.023333
    66  H    0.012526
    67  H    0.004865
    68  H    0.006555
    69  H    0.004907
    70  H    0.008768
    71  H    0.018478
    72  H    0.028738
    73  H    0.047500
    74  H    0.009330
    75  H    0.046066
    76  H    0.035214
    77  H    0.042946
    78  H    0.046369
    79  H    0.053162
    80  Mg   0.837897
    81  C   -0.016783
    82  C   -0.087630
    83  C   -0.045675
    84  C   -0.064916
    85  N   -0.254610
    86  C   -0.049537
    87  C   -0.015172
    88  C   -0.090517
    89  C    0.045775
    90  C    0.114267
    91  C    0.062495
    92  C   -0.077895
    93  H    0.034619
    94  N   -0.423480
    95  C    0.162873
    96  C   -0.174610
    97  C   -0.008031
    98  C    0.152209
    99  C    0.099383
   100  C    0.015417
   101  O   -0.253475
   102  C    0.061257
   103  N   -0.350056
   104  C    0.037586
   105  C   -0.019807
   106  C   -0.034820
   107  C    0.088955
   108  C    0.073690
   109  C    0.034783
   110  C   -0.007633
   111  N   -0.324123
   112  C    0.078525
   113  C   -0.163192
   114  C    0.002341
   115  C    0.096183
   116  C    0.131482
   117  C    0.042388
   118  O   -0.187891
   119  C    0.000926
   120  C    0.211222
   121  O   -0.251209
   122  O   -0.305417
   123  C    0.152084
   124  H   -0.019349
   125  H   -0.015869
   126  H   -0.040593
   127  H   -0.000181
   128  H   -0.004374
   129  H    0.023002
   130  H    0.014563
   131  H    0.017157
   132  H    0.013719
   133  H    0.037488
   134  H    0.021285
   135  H    0.019561
   136  H    0.008962
   137  H    0.025929
   138  H    0.039583
   139  H    0.038121
   140  H    0.036075
   141  H    0.033903
   142  H    0.014195
   143  H    0.012459
   144  H    0.024787
   145  H    0.011666
   146  H    0.005741
   147  H    0.006075
   148  H    0.003611
   149  H    0.010807
   150  H    0.017795
   151  H    0.030206
   152  H    0.045885
   153  H    0.008369
   154  H    0.047052
   155  H    0.035544
   156  H    0.043949
   157  H    0.049627
   158  H    0.053373
 Sum of Mulliken charges =  -0.00000

 Dipole moment (field-independent basis, Debye):
    X=             -4.4963    Y=              1.9802    Z=              6.1185  Tot=              7.8469
 Quadrupole moment (field-independent basis, Debye-Ang):
   XX=           -517.9945   YY=           -521.2192   ZZ=           -478.0768
   XY=            -29.0038   XZ=              7.5668   YZ=            -20.7940

 Normal termination of Gaussian 16 at Sun Sep 12 07:46:52 2021.
