 Gaussian 16, Revision A.03,
 Gaussian 16:  ES64L-G16RevA.03 25-Dec-2016

 -----------------------------------
 #p cam-b3lyp/Def2SVP td=(nstates=5)
 -----------------------------------

 --------------------------------
 TDDFT excited states in gaussian
 --------------------------------
 Symbolic Z-matrix:
 Charge =  0 Multiplicity = 1

                         Standard orientation:
 ---------------------------------------------------------------------
 Center     Atomic      Atomic             Coordinates (Angstroms)
 Number     Number       Type             X           Y           Z
 ---------------------------------------------------------------------
      1         12           0        5.094101    1.072556    0.402200
      2          6           0        6.008001   -2.099386   -0.981919
      3          6           0        5.731455    2.426897   -2.664167
      4          6           0        4.732846    3.937507    1.712990
      5          6           0        5.626121   -0.315550    3.554307
      6          7           0        5.775931    0.174404   -1.502814
      7          6           0        6.033248   -1.062281   -1.917024
      8          6           0        6.258614   -1.164288   -3.455263
      9          6           0        6.705565    0.338586   -3.744404
     10          6           0        6.000956    1.028038   -2.589368
     11          6           0        8.207915    0.564311   -3.608412
     12          6           0        4.945310   -1.529694   -4.225617
     13          6           0        5.141174   -1.966956   -5.680193
     14          1           0        4.271207   -2.998563   -6.224522
     15          7           0        4.742273    2.828223   -0.432486
     16          6           0        5.054193    3.200793   -1.697074
     17          6           0        4.588598    4.597323   -1.837101
     18          6           0        4.152425    5.068454   -0.493270
     19          6           0        4.554731    3.958071    0.331701
     20          6           0        4.543115    5.322051   -3.147235
     21          6           0        3.489267    6.325129   -0.025167
     22          8           0        3.408659    6.630870    1.213623
     23          6           0        3.008477    7.243781   -1.073004
     24          7           0        5.378106    1.793325    2.340619
     25          6           0        5.092802    3.061985    2.653808
     26          6           0        5.102463    3.273214    4.138809
     27          6           0        5.216388    1.820258    4.791260
     28          6           0        5.341457    0.987188    3.491791
     29          6           0        6.227723    4.165574    4.680561
     30          6           0        4.127439    1.423841    5.819590
     31          6           0        2.790859    1.288222    5.125141
     32          7           0        5.534576   -0.901105    1.190674
     33          6           0        5.737636   -1.246069    2.534712
     34          6           0        6.113228   -2.671625    2.562820
     35          6           0        6.118755   -3.055190    1.223159
     36          6           0        5.794418   -1.933345    0.407952
     37          6           0        6.452288   -3.421364    3.723580
     38          6           0        6.347281   -4.145707    0.289133
     39          8           0        6.558376   -5.354108    0.401820
     40          6           0        6.403956   -3.541036   -1.182937
     41          6           0        5.528572   -4.395052   -2.059104
     42          8           0        4.291878   -4.423419   -1.894329
     43          8           0        6.248472   -4.854042   -3.094292
     44          6           0        5.431710   -5.684925   -4.018785
     45          1           0        6.124083    2.995612   -3.509358
     46          1           0        4.509231    4.880969    2.215299
     47          1           0        5.724711   -0.838060    4.507573
     48          1           0        7.049899   -1.852047   -3.754060
     49          1           0        6.318367    0.702390   -4.695953
     50          1           0        8.708650   -0.317284   -3.208441
     51          1           0        8.314983    1.406222   -2.924150
     52          1           0        8.637768    0.891411   -4.555518
     53          1           0        4.356592   -0.625685   -4.381313
     54          1           0        4.385160   -2.297415   -3.690677
     55          1           0        6.185864   -2.198756   -5.889478
     56          1           0        4.917746   -1.117195   -6.325318
     57          1           0        5.080601    4.779467   -3.923931
     58          1           0        5.108156    6.245251   -3.020200
     59          1           0        3.522748    5.554584   -3.452379
     60          1           0        3.847537    7.544162   -1.700936
     61          1           0        2.483337    8.044344   -0.553219
     62          1           0        2.316185    6.707244   -1.722472
     63          1           0        4.178486    3.743372    4.472941
     64          1           0        6.153739    1.687030    5.331905
     65          1           0        5.870225    5.023664    5.250283
     66          1           0        6.840889    4.483654    3.837861
     67          1           0        6.961358    3.650523    5.300173
     68          1           0        4.018810    2.200952    6.575398
     69          1           0        4.342592    0.487708    6.334969
     70          1           0        2.427791    2.314868    5.093312
     71          1           0        2.121475    0.655305    5.708710
     72          1           0        2.909838    0.952583    4.094765
     73          1           0        5.947711   -4.382346    3.624159
     74          1           0        6.144826   -2.904683    4.632486
     75          1           0        7.535914   -3.474957    3.619952
     76          1           0        7.447739   -3.570637   -1.494004
     77          1           0        5.929653   -6.650567   -4.107228
     78          1           0        5.300061   -5.098349   -4.928182
     79          1           0        4.451375   -5.991688   -3.652483
     80         12           0       -5.255074   -1.173620    0.284763
     81          6           0       -5.694067    1.910347   -1.497238
     82          6           0       -4.796954    0.693008    3.102647
     83          6           0       -4.419980   -3.837009    1.793539
     84          6           0       -4.614125   -2.694895   -2.784538
     85          7           0       -5.268037    1.010947    0.630821
     86          6           0       -5.506686    2.082710   -0.109932
     87          6           0       -5.626491    3.405817    0.692945
     88          6           0       -4.771889    2.981493    1.984637
     89          6           0       -4.982289    1.469695    1.931106
     90          6           0       -3.285262    3.262200    1.841474
     91          6           0       -7.111397    3.742647    1.071903
     92          6           0       -7.337193    5.166951    1.583906
     93          1           0       -8.586598    5.840248    1.240232
     94          7           0       -5.173480   -1.578342    2.225927
     95          6           0       -5.005809   -0.697435    3.234470
     96          6           0       -4.994514   -1.496966    4.469288
     97          6           0       -5.003931   -2.937426    4.095536
     98          6           0       -4.841607   -2.838063    2.658917
     99          6           0       -5.056749   -0.882168    5.837348
    100          6           0       -5.124552   -4.196476    4.899552
    101          8           0       -4.869354   -5.345892    4.393065
    102          6           0       -5.459553   -4.036333    6.322099
    103          7           0       -4.403916   -2.955220   -0.366216
    104          6           0       -4.192852   -3.972846    0.486910
    105          6           0       -3.832441   -5.239028   -0.252869
    106          6           0       -4.082742   -4.918949   -1.799632
    107          6           0       -4.476592   -3.429614   -1.689357
    108          6           0       -2.399771   -5.736313   -0.061687
    109          6           0       -5.028535   -5.878330   -2.572770
    110          6           0       -6.441627   -5.738911   -2.054003
    111          7           0       -5.342979   -0.583948   -1.791920
    112          6           0       -5.007620   -1.369331   -2.916552
    113          6           0       -5.117452   -0.497981   -4.104457
    114          6           0       -5.489696    0.749809   -3.582031
    115          6           0       -5.584162    0.667452   -2.166480
    116          6           0       -4.838742   -0.882008   -5.446456
    117          6           0       -5.813866    2.120632   -3.905235
    118          8           0       -5.981595    2.750829   -4.948522
    119          6           0       -5.837461    2.965243   -2.558947
    120          6           0       -7.090236    3.797740   -2.554802
    121          8           0       -8.208631    3.256450   -2.501754
    122          8           0       -6.758742    5.091935   -2.394989
    123          6           0       -7.968738    5.956377   -2.373388
    124          1           0       -4.414845    1.186069    3.996937
    125          1           0       -4.226238   -4.808697    2.253727
    126          1           0       -4.525869   -3.119131   -3.786990
    127          1           0       -5.176654    4.268601    0.216487
    128          1           0       -5.200035    3.394061    2.894494
    129          1           0       -3.031826    3.592974    0.845234
    130          1           0       -2.786502    2.329101    2.068657
    131          1           0       -2.960177    3.971994    2.607532
    132          1           0       -7.389824    3.174280    1.968670
    133          1           0       -7.768908    3.546581    0.247365
    134          1           0       -6.479891    5.819516    1.378617
    135          1           0       -7.397026    5.138219    2.674597
    136          1           0       -4.873896    0.198881    5.801235
    137          1           0       -4.210421   -1.281939    6.406363
    138          1           0       -5.982276   -1.121911    6.365167
    139          1           0       -4.703830   -3.420591    6.803974
    140          1           0       -5.589386   -5.049462    6.707589
    141          1           0       -6.406424   -3.490363    6.399228
    142          1           0       -4.476025   -6.057600    0.045220
    143          1           0       -3.148763   -4.954905   -2.379492
    144          1           0       -2.345015   -6.771126    0.325930
    145          1           0       -1.887349   -5.053633    0.603070
    146          1           0       -1.776207   -5.702155   -0.953434
    147          1           0       -4.736265   -6.917331   -2.401870
    148          1           0       -5.026348   -5.715431   -3.645366
    149          1           0       -6.445730   -6.386394   -1.172047
    150          1           0       -7.158303   -6.080809   -2.797978
    151          1           0       -6.636362   -4.715599   -1.712577
    152          1           0       -5.628868   -0.468626   -6.059085
    153          1           0       -4.781610   -1.963893   -5.546708
    154          1           0       -3.865353   -0.404711   -5.587754
    155          1           0       -4.937027    3.580484   -2.542389
    156          1           0       -7.833967    6.714127   -3.151435
    157          1           0       -8.060792    6.315460   -1.331114
    158          1           0       -8.909264    5.509664   -2.673874
 ---------------------------------------------------------------------

 SCF Done:  E(RCAM-B3LYP) =  -4069.81200153     A.U. after   19 cycles

 Excitation energies and oscillator strengths:

 Excited State   1:      Singlet-A      1.6638 eV  745.18 nm  f=0.1354  <S**2>=0.000
     309 -> 315       -0.10572
     310 -> 316       -0.13450
     311 -> 313       -0.42467
     312 -> 314        0.53965
 This state for optimization and/or second-order correction.
 Total Energy, E(TD-HF/TD-DFT) =  -4069.75085764
 Copying the excited state density for this state as the 1-particle RhoCI density.

 Excited State   2:      Singlet-A      1.6879 eV  734.54 nm  f=0.5742  <S**2>=0.000
     309 -> 315        0.13938
     310 -> 316       -0.10922
     311 -> 313        0.53831
     312 -> 314        0.42365

 Excited State   3:      Singlet-A      2.1835 eV  567.81 nm  f=0.0613  <S**2>=0.000
     309 -> 313        0.22027
     310 -> 314        0.60480
     312 -> 316        0.25434

 Excited State   4:      Singlet-A      2.1939 eV  565.14 nm  f=0.1295  <S**2>=0.000
     309 -> 313        0.60153
     310 -> 314       -0.21821
     311 -> 315       -0.26244

 Excited State   5:      Singlet-A      2.4849 eV  498.94 nm  f=0.0000  <S**2>=0.000
     312 -> 313        0.70709

 The electronic state is 1-A.
 Alpha  occ. eigenvalues --  -46.87886 -46.87494 -19.26370 -19.26289 -19.19112
 Alpha  occ. eigenvalues --  -19.19086 -19.18918 -19.18561 -19.18245 -19.17952
 Alpha  occ. eigenvalues --  -14.42533 -14.42334 -14.41547 -14.41175 -14.39491
 Alpha  occ. eigenvalues --  -14.39190 -14.38673 -14.38445 -10.39170 -10.39013
 Alpha  occ. eigenvalues --  -10.35550 -10.35239 -10.34466 -10.34130 -10.31768
 Alpha  occ. eigenvalues --  -10.31713 -10.31481 -10.31162 -10.30988 -10.30868
 Alpha  occ. eigenvalues --  -10.30651 -10.30602 -10.30309 -10.30239 -10.30219
 Alpha  occ. eigenvalues --  -10.30026 -10.29941 -10.29716 -10.29700 -10.29340
 Alpha  occ. eigenvalues --  -10.29269 -10.29259 -10.28813 -10.28587 -10.28584
 Alpha  occ. eigenvalues --  -10.28555 -10.28447 -10.28255 -10.28176 -10.27987
 Alpha  occ. eigenvalues --  -10.27873 -10.27858 -10.27805 -10.27668 -10.27640
 Alpha  occ. eigenvalues --  -10.27589 -10.27522 -10.27509 -10.27489 -10.27346
 Alpha  occ. eigenvalues --  -10.27330 -10.27322 -10.27258 -10.27238 -10.27081
 Alpha  occ. eigenvalues --  -10.26953 -10.26764 -10.26578 -10.26492 -10.26368
 Alpha  occ. eigenvalues --  -10.26287 -10.26283 -10.26115 -10.25925 -10.25912
 Alpha  occ. eigenvalues --  -10.25842 -10.25764 -10.25756 -10.25564 -10.24944
 Alpha  occ. eigenvalues --  -10.24916 -10.24912 -10.24887 -10.24735 -10.24547
 Alpha  occ. eigenvalues --  -10.24505  -3.16629  -3.16244  -1.91510  -1.91126
 Alpha  occ. eigenvalues --   -1.91097  -1.90939  -1.90714  -1.90552  -1.16720
 Alpha  occ. eigenvalues --   -1.16579  -1.08703  -1.08566  -1.07322  -1.06872
 Alpha  occ. eigenvalues --   -1.06811  -1.06732  -1.04663  -1.04338  -1.03855
 Alpha  occ. eigenvalues --   -1.03496  -1.03323  -1.02864  -1.02501  -1.01943
 Alpha  occ. eigenvalues --   -0.92056  -0.91847  -0.89643  -0.89306  -0.89254
 Alpha  occ. eigenvalues --   -0.89002  -0.88411  -0.87993  -0.87947  -0.87755
 Alpha  occ. eigenvalues --   -0.87664  -0.87518  -0.87351  -0.86979  -0.85057
 Alpha  occ. eigenvalues --   -0.84851  -0.84073  -0.83651  -0.83063  -0.82767
 Alpha  occ. eigenvalues --   -0.82730  -0.82504  -0.81672  -0.81483  -0.80683
 Alpha  occ. eigenvalues --   -0.80309  -0.78874  -0.78495  -0.77314  -0.77020
 Alpha  occ. eigenvalues --   -0.76992  -0.76738  -0.76000  -0.75703  -0.75011
 Alpha  occ. eigenvalues --   -0.74556  -0.72862  -0.72543  -0.71761  -0.71388
 Alpha  occ. eigenvalues --   -0.70058  -0.69535  -0.68950  -0.68682  -0.67730
 Alpha  occ. eigenvalues --   -0.67446  -0.67291  -0.67068  -0.65364  -0.65134
 Alpha  occ. eigenvalues --   -0.64946  -0.64717  -0.64619  -0.64508  -0.64386
 Alpha  occ. eigenvalues --   -0.64001  -0.62391  -0.62159  -0.60532  -0.60173
 Alpha  occ. eigenvalues --   -0.59875  -0.59651  -0.59080  -0.58826  -0.58595
 Alpha  occ. eigenvalues --   -0.58271  -0.57669  -0.57450  -0.57411  -0.57062
 Alpha  occ. eigenvalues --   -0.56390  -0.56070  -0.56062  -0.55777  -0.55605
 Alpha  occ. eigenvalues --   -0.55457  -0.55327  -0.55065  -0.54636  -0.54312
 Alpha  occ. eigenvalues --   -0.53963  -0.53766  -0.53391  -0.53300  -0.53074
 Alpha  occ. eigenvalues --   -0.53010  -0.53005  -0.52833  -0.52768  -0.52594
 Alpha  occ. eigenvalues --   -0.52530  -0.52205  -0.51991  -0.51774  -0.51686
 Alpha  occ. eigenvalues --   -0.51528  -0.51290  -0.51063  -0.50648  -0.50328
 Alpha  occ. eigenvalues --   -0.50155  -0.50000  -0.49824  -0.49634  -0.49593
 Alpha  occ. eigenvalues --   -0.49345  -0.49295  -0.49166  -0.49073  -0.48965
 Alpha  occ. eigenvalues --   -0.48677  -0.48570  -0.48534  -0.48429  -0.48206
 Alpha  occ. eigenvalues --   -0.48139  -0.47783  -0.47440  -0.47382  -0.46943
 Alpha  occ. eigenvalues --   -0.46895  -0.46627  -0.46542  -0.46452  -0.46400
 Alpha  occ. eigenvalues --   -0.46259  -0.46111  -0.45903  -0.45903  -0.45693
 Alpha  occ. eigenvalues --   -0.45319  -0.44951  -0.44663  -0.44598  -0.44378
 Alpha  occ. eigenvalues --   -0.44325  -0.44254  -0.44164  -0.44100  -0.43986
 Alpha  occ. eigenvalues --   -0.43906  -0.43810  -0.43583  -0.43475  -0.43433
 Alpha  occ. eigenvalues --   -0.43219  -0.43118  -0.42831  -0.42819  -0.42768
 Alpha  occ. eigenvalues --   -0.42739  -0.42353  -0.42126  -0.41794  -0.41793
 Alpha  occ. eigenvalues --   -0.41611  -0.41519  -0.41302  -0.41227  -0.40964
 Alpha  occ. eigenvalues --   -0.40918  -0.40808  -0.40686  -0.40574  -0.40543
 Alpha  occ. eigenvalues --   -0.40299  -0.40276  -0.40098  -0.39605  -0.39210
 Alpha  occ. eigenvalues --   -0.38588  -0.38121  -0.37820  -0.37517  -0.37431
 Alpha  occ. eigenvalues --   -0.37337  -0.37083  -0.37044  -0.36812  -0.36663
 Alpha  occ. eigenvalues --   -0.36293  -0.36031  -0.34374  -0.34092  -0.33863
 Alpha  occ. eigenvalues --   -0.33770  -0.33276  -0.33014  -0.31449  -0.31126
 Alpha  occ. eigenvalues --   -0.31116  -0.30809  -0.30105  -0.29859  -0.29534
 Alpha  occ. eigenvalues --   -0.29403  -0.29182  -0.29074  -0.24169  -0.23872
 Alpha  occ. eigenvalues --   -0.21215  -0.20953
 Alpha virt. eigenvalues --   -0.08859  -0.08639  -0.01844  -0.01508  -0.00143
 Alpha virt. eigenvalues --    0.00116   0.02114   0.02341   0.03010   0.03385
 Alpha virt. eigenvalues --    0.04637   0.04891   0.05011   0.05247   0.06108

 Mulliken charges:
               1
     1  Mg   0.838625
     2  C   -0.002933
     3  C   -0.093517
     4  C   -0.046385
     5  C   -0.064022
     6  N   -0.256773
     7  C   -0.052346
     8  C   -0.014082
     9  C   -0.087092
    10  C    0.046288
    11  C    0.104731
    12  C    0.053369
    13  C   -0.071863
    14  H    0.035764
    15  N   -0.433134
    16  C    0.168341
    17  C   -0.176694
    18  C   -0.004150
    19  C    0.148612
    20  C    0.109950
    21  C    0.011731
    22  O   -0.250537
    23  C    0.062520
    24  N   -0.341023
    25  C    0.041260
    26  C   -0.028087
    27  C   -0.023862
    28  C    0.074520
    29  C    0.076167
    30  C    0.035285
    31  C   -0.004335
    32  N   -0.310506
    33  C    0.080349
    34  C   -0.169533
    35  C    0.008487
    36  C    0.082963
    37  C    0.127296
    38  C    0.046162
    39  O   -0.188204
    40  C   -0.005391
    41  C    0.213083
    42  O   -0.257588
    43  O   -0.304597
    44  C    0.157838
    45  H   -0.017142
    46  H   -0.017345
    47  H   -0.041604
    48  H    0.001050
    49  H   -0.003546
    50  H    0.025494
    51  H    0.016425
    52  H    0.017014
    53  H    0.011641
    54  H    0.043690
    55  H    0.018014
    56  H    0.018561
    57  H    0.006347
    58  H    0.026948
    59  H    0.040520
    60  H    0.037890
    61  H    0.035174
    62  H    0.032024
    63  H    0.015493
    64  H    0.009704
    65  H    0.022849
    66  H    0.012957
    67  H    0.004927
    68  H    0.005829
    69  H    0.005111
    70  H    0.007247
    71  H    0.017063
    72  H    0.029813
    73  H    0.047942
    74  H    0.008974
    75  H    0.046110
    76  H    0.035385
    77  H    0.043165
    78  H    0.046589
    79  H    0.053000
    80  Mg   0.838039
    81  C   -0.017220
    82  C   -0.088065
    83  C   -0.044963
    84  C   -0.064108
    85  N   -0.254685
    86  C   -0.050006
    87  C   -0.015037
    88  C   -0.090514
    89  C    0.045969
    90  C    0.114510
    91  C    0.062549
    92  C   -0.077712
    93  H    0.034227
    94  N   -0.423611
    95  C    0.163326
    96  C   -0.174694
    97  C   -0.007471
    98  C    0.152280
    99  C    0.099444
   100  C    0.015581
   101  O   -0.252448
   102  C    0.061263
   103  N   -0.350024
   104  C    0.038516
   105  C   -0.020584
   106  C   -0.034477
   107  C    0.089074
   108  C    0.072307
   109  C    0.034616
   110  C   -0.007533
   111  N   -0.323924
   112  C    0.078295
   113  C   -0.163486
   114  C    0.001668
   115  C    0.096231
   116  C    0.131665
   117  C    0.041677
   118  O   -0.189322
   119  C    0.001201
   120  C    0.211148
   121  O   -0.251020
   122  O   -0.305837
   123  C    0.152159
   124  H   -0.019791
   125  H   -0.014698
   126  H   -0.040736
   127  H   -0.001119
   128  H   -0.004568
   129  H    0.021888
   130  H    0.014740
   131  H    0.017463
   132  H    0.013858
   133  H    0.037396
   134  H    0.020865
   135  H    0.019614
   136  H    0.008590
   137  H    0.025813
   138  H    0.039529
   139  H    0.037971
   140  H    0.036366
   141  H    0.033576
   142  H    0.013801
   143  H    0.013822
   144  H    0.025202
   145  H    0.014155
   146  H    0.009751
   147  H    0.006630
   148  H    0.002897
   149  H    0.010981
   150  H    0.017186
   151  H    0.029702
   152  H    0.045351
   153  H    0.008517
   154  H    0.045917
   155  H    0.033940
   156  H    0.043253
   157  H    0.049666
   158  H    0.053464
 Sum of Mulliken charges =  -0.00000

 Dipole moment (field-independent basis, Debye):
    X=              3.3611    Y=              4.0908    Z=              1.0345  Tot=              5.3946
 Quadrupole moment (field-independent basis, Debye-Ang):
   XX=           -522.7362   YY=           -528.4134   ZZ=           -468.5161
   XY=             14.3794   XZ=            -47.4958   YZ=             24.9495

 Normal termination of Gaussian 16 at Sat Sep  4 03:28:34 2021.
