 Gaussian 16, Revision A.03,
 Gaussian 16:  ES64L-G16RevA.03 25-Dec-2016

 -----------------------------------
 #p cam-b3lyp/Def2SVP td=(nstates=5)
 -----------------------------------

 --------------------------------
 TDDFT excited states in gaussian
 --------------------------------
 Symbolic Z-matrix:
 Charge =  0 Multiplicity = 1

                         Standard orientation:
 ---------------------------------------------------------------------
 Center     Atomic      Atomic             Coordinates (Angstroms)
 Number     Number       Type             X           Y           Z
 ---------------------------------------------------------------------
      1         12           0        6.214316    1.135320    0.585694
      2          6           0        6.733256   -2.322641   -0.179434
      3          6           0        7.245162    1.839189   -2.589993
      4          6           0        6.199649    4.205966    1.377869
      5          6           0        6.326619    0.254306    3.955689
      6          7           0        6.877364   -0.163172   -1.080119
      7          6           0        6.973831   -1.476202   -1.264012
      8          6           0        7.281314   -1.872524   -2.739057
      9          6           0        7.965298   -0.517319   -3.226483
     10          6           0        7.297569    0.450918   -2.265973
     11          6           0        9.472405   -0.477929   -2.995011
     12          6           0        5.981279   -2.183646   -3.554437
     13          6           0        6.204197   -2.888515   -4.895639
     14          1           0        5.227488   -3.870691   -5.341416
     15          7           0        6.183459    2.751363   -0.550221
     16          6           0        6.629268    2.853560   -1.825406
     17          6           0        6.387290    4.254943   -2.230690
     18          6           0        5.939543    5.006370   -1.025297
     19          6           0        6.117074    4.011243    0.001145
     20          6           0        6.535954    4.741391   -3.639596
     21          6           0        5.442113    6.403423   -0.827971
     22          8           0        5.327374    6.926981    0.332760
     23          6           0        5.173088    7.183632   -2.049422
     24          7           0        6.475588    2.135198    2.399424
     25          6           0        6.362865    3.465746    2.476360
     26          6           0        6.307036    3.927434    3.902427
     27          6           0        6.160195    2.607505    4.788979
     28          6           0        6.244115    1.553001    3.657941
     29          6           0        7.515034    4.738611    4.391041
     30          6           0        4.959574    2.546847    5.766348
     31          6           0        3.665891    2.476176    4.986290
     32          7           0        6.303141   -0.713424    1.719405
     33          6           0        6.364377   -0.844986    3.114258
     34          6           0        6.520524   -2.281807    3.406202
     35          6           0        6.556156   -2.888523    2.152220
     36          6           0        6.456627   -1.891130    1.140492
     37          6           0        6.667535   -2.858430    4.698614
     38          6           0        6.679922   -4.144999    1.431243
     39          8           0        6.700635   -5.332983    1.756449
     40          6           0        6.922039   -3.817578   -0.108238
     41          6           0        5.988116   -4.683199   -0.909359
     42          8           0        4.752938   -4.514160   -0.853436
     43          8           0        6.697485   -5.407968   -1.788021
     44          6           0        5.828003   -6.267358   -2.635136
     45          1           0        7.772499    2.194314   -3.477542
     46          1           0        6.086956    5.243622    1.698815
     47          1           0        6.283789   -0.103855    4.985902
     48          1           0        7.978966   -2.702741   -2.850618
     49          1           0        7.699587   -0.274422   -4.255133
     50          1           0        9.808894   -1.336803   -2.414467
     51          1           0        9.658971    0.447176   -2.449239
     52          1           0       10.007084   -0.381191   -3.940282
     53          1           0        5.545389   -1.248675   -3.906415
     54          1           0        5.279211   -2.763798   -2.954561
     55          1           0        7.214035   -3.292929   -4.970366
     56          1           0        6.152560   -2.140829   -5.687156
     57          1           0        7.036014    4.004616   -4.267009
     58          1           0        7.222856    5.587087   -3.613641
     59          1           0        5.583780    5.054201   -4.068369
     60          1           0        6.086714    7.253877   -2.640103
     61          1           0        4.740441    8.125928   -1.715140
     62          1           0        4.452375    6.642029   -2.662764
     63          1           0        5.443705    4.569547    4.072066
     64          1           0        7.029910    2.443605    5.425694
     65          1           0        7.253116    5.722862    4.780080
     66          1           0        8.222428    4.819682    3.566230
     67          1           0        8.121656    4.243621    5.148940
     68          1           0        4.918989    3.450456    6.373628
     69          1           0        4.998629    1.693581    6.443595
     70          1           0        3.462852    3.521521    4.756375
     71          1           0        2.872979    2.050795    5.602369
     72          1           0        3.800435    1.954296    4.038648
     73          1           0        6.032855   -3.744426    4.711320
     74          1           0        6.381945   -2.155331    5.480722
     75          1           0        7.735475   -3.076021    4.702360
     76          1           0        7.967777   -4.042239   -0.315800
     77          1           0        6.181061   -7.292351   -2.521230
     78          1           0        5.844907   -5.834614   -3.635562
     79          1           0        4.791100   -6.369885   -2.313176
     80         12           0       -6.947841    0.120615   -0.275838
     81          6           0       -4.702892   -2.674366   -0.110327
     82          6           0       -4.603169    1.699772   -2.184596
     83          6           0       -8.698816    2.758445   -0.067557
     84          6           0       -8.563915   -1.189525    2.520148
     85          7           0       -4.950983   -0.509531   -0.988393
     86          6           0       -4.228432   -1.617143   -0.914447
     87          6           0       -2.962996   -1.620797   -1.813452
     88          6           0       -2.753084   -0.033700   -1.939628
     89          6           0       -4.195455    0.421300   -1.727019
     90          6           0       -1.898947    0.550739   -0.826870
     91          6           0       -3.226311   -2.278481   -3.213493
     92          6           0       -1.966507   -2.595089   -4.022436
     93          1           0       -1.956985   -3.795000   -4.854660
     94          7           0       -6.934637    1.762195   -1.390996
     95          6           0       -5.904690    2.243769   -2.118030
     96          6           0       -6.395367    3.484183   -2.738334
     97          6           0       -7.745046    3.782387   -2.186829
     98          6           0       -7.838450    2.768337   -1.155787
     99          6           0       -5.636673    4.214315   -3.808242
    100          6           0       -8.775207    4.818003   -2.522224
    101          8           0       -9.777235    5.043976   -1.755612
    102          6           0       -8.526691    5.623966   -3.726447
    103          7           0       -8.284674    0.816124    1.156458
    104          6           0       -8.951188    1.970090    0.977493
    105          6           0      -10.053142    2.127478    1.997944
    106          6           0      -10.144280    0.720285    2.752328
    107          6           0       -8.967871   -0.010192    2.068321
    108          6           0       -9.855172    3.242873    3.024137
    109          6           0      -11.532454    0.023871    2.777534
    110          6           0      -11.916486   -0.412262    1.381924
    111          7           0       -6.822934   -1.698957    0.882449
    112          6           0       -7.575177   -2.032999    2.029894
    113          6           0       -7.054204   -3.320861    2.532311
    114          6           0       -6.011514   -3.637875    1.648693
    115          6           0       -5.877927   -2.609561    0.676984
    116          6           0       -7.511540   -4.007617    3.692193
    117          6           0       -4.986520   -4.603398    1.323335
    118          8           0       -4.679215   -5.718638    1.742322
    119          6           0       -4.010951   -3.960945    0.245421
    120          6           0       -3.800692   -4.969647   -0.850401
    121          8           0       -4.746250   -5.316909   -1.579745
    122          8           0       -2.481950   -5.193121   -0.996487
    123          6           0       -2.222131   -6.178672   -2.079545
    124          1           0       -3.847113    2.368805   -2.596498
    125          1           0       -9.400327    3.594169   -0.013511
    126          1           0       -9.078449   -1.712058    3.329408
    127          1           0       -2.088570   -2.077026   -1.365106
    128          1           0       -2.408990    0.241454   -2.933233
    129          1           0       -1.671263   -0.181717   -0.066736
    130          1           0       -2.477617    1.363513   -0.407845
    131          1           0       -0.996736    1.006986   -1.244214
    132          1           0       -3.693129   -1.537457   -3.875088
    133          1           0       -3.822813   -3.164229   -3.112215
    134          1           0       -1.059144   -2.546182   -3.408241
    135          1           0       -1.827220   -1.809743   -4.769339
    136          1           0       -4.604511    3.851484   -3.888297
    137          1           0       -5.534437    5.252945   -3.475593
    138          1           0       -6.149706    4.200834   -4.772231
    139          1           0       -7.575264    6.140681   -3.625171
    140          1           0       -9.415094    6.246324   -3.850026
    141          1           0       -8.428866    4.949742   -4.584624
    142          1           0      -11.001396    2.329412    1.515096
    143          1           0       -9.881816    0.810785    3.816634
    144          1           0      -10.684316    3.975270    3.038155
    145          1           0       -8.915389    3.736375    2.814859
    146          1           0       -9.716213    2.906953    4.050322
    147          1           0      -12.302534    0.726099    3.106179
    148          1           0      -11.573727   -0.833218    3.441373
    149          1           0      -12.340049    0.497855    0.946750
    150          1           0      -12.653642   -1.211775    1.419666
    151          1           0      -11.029738   -0.676838    0.794286
    152          1           0       -7.585472   -5.053597    3.425802
    153          1           0       -8.466584   -3.615584    4.035663
    154          1           0       -6.699659   -3.778184    4.387515
    155          1           0       -3.079817   -3.709750    0.754797
    156          1           0       -1.627101   -6.985754   -1.641089
    157          1           0       -1.760184   -5.602550   -2.903212
    158          1           0       -3.069932   -6.729173   -2.470217
 ---------------------------------------------------------------------

 SCF Done:  E(RCAM-B3LYP) =  -4069.81162008     A.U. after   19 cycles

 Excitation energies and oscillator strengths:

 Excited State   1:      Singlet-A      1.6642 eV  745.00 nm  f=0.0051  <S**2>=0.000
     309 -> 315       -0.11270
     310 -> 316        0.12849
     311 -> 313       -0.45069
     312 -> 314        0.51812
 This state for optimization and/or second-order correction.
 Total Energy, E(TD-HF/TD-DFT) =  -4069.75046089
 Copying the excited state density for this state as the 1-particle RhoCI density.

 Excited State   2:      Singlet-A      1.6897 eV  733.76 nm  f=0.7337  <S**2>=0.000
     309 -> 315        0.13444
     310 -> 316        0.11603
     311 -> 313        0.51681
     312 -> 314        0.44967

 Excited State   3:      Singlet-A      2.1846 eV  567.55 nm  f=0.0755  <S**2>=0.000
     309 -> 313        0.14076
     310 -> 314        0.62737
     312 -> 316       -0.26529

 Excited State   4:      Singlet-A      2.1931 eV  565.34 nm  f=0.1212  <S**2>=0.000
     309 -> 313        0.62506
     310 -> 314       -0.13955
     311 -> 315       -0.27206

 Excited State   5:      Singlet-A      2.5926 eV  478.23 nm  f=0.0000  <S**2>=0.000
     312 -> 313        0.70689

 The electronic state is 1-A.
 Alpha  occ. eigenvalues --  -46.87983 -46.87516 -19.26444 -19.26035 -19.19187
 Alpha  occ. eigenvalues --  -19.19006 -19.18901 -19.18603 -19.18313 -19.17857
 Alpha  occ. eigenvalues --  -14.42634 -14.42345 -14.41624 -14.41217 -14.39590
 Alpha  occ. eigenvalues --  -14.39211 -14.38764 -14.38451 -10.39246 -10.38827
 Alpha  occ. eigenvalues --  -10.35641 -10.35283 -10.34535 -10.34028 -10.31837
 Alpha  occ. eigenvalues --  -10.31578 -10.31423 -10.31144 -10.31099 -10.30861
 Alpha  occ. eigenvalues --  -10.30742 -10.30680 -10.30383 -10.30254 -10.30208
 Alpha  occ. eigenvalues --  -10.30082 -10.30017 -10.29803 -10.29753 -10.29435
 Alpha  occ. eigenvalues --  -10.29305 -10.29260 -10.28943 -10.28760 -10.28545
 Alpha  occ. eigenvalues --  -10.28503 -10.28443 -10.28298 -10.28251 -10.27961
 Alpha  occ. eigenvalues --  -10.27952 -10.27906 -10.27855 -10.27764 -10.27683
 Alpha  occ. eigenvalues --  -10.27647 -10.27596 -10.27581 -10.27525 -10.27409
 Alpha  occ. eigenvalues --  -10.27374 -10.27330 -10.27321 -10.27317 -10.27264
 Alpha  occ. eigenvalues --  -10.26938 -10.26816 -10.26626 -10.26499 -10.26393
 Alpha  occ. eigenvalues --  -10.26334 -10.26317 -10.26187 -10.26041 -10.25952
 Alpha  occ. eigenvalues --  -10.25812 -10.25799 -10.25711 -10.25565 -10.25297
 Alpha  occ. eigenvalues --  -10.24997 -10.24960 -10.24834 -10.24720 -10.24638
 Alpha  occ. eigenvalues --  -10.24549  -3.16727  -3.16266  -1.91609  -1.91195
 Alpha  occ. eigenvalues --   -1.91148  -1.91037  -1.90737  -1.90574  -1.16794
 Alpha  occ. eigenvalues --   -1.16343  -1.08768  -1.08453  -1.07408  -1.06858
 Alpha  occ. eigenvalues --   -1.06807  -1.06680  -1.04763  -1.04339  -1.03937
 Alpha  occ. eigenvalues --   -1.03517  -1.03411  -1.02898  -1.02587  -1.01966
 Alpha  occ. eigenvalues --   -0.92142  -0.91813  -0.89680  -0.89376  -0.89361
 Alpha  occ. eigenvalues --   -0.88963  -0.88444  -0.88095  -0.88022  -0.87853
 Alpha  occ. eigenvalues --   -0.87646  -0.87532  -0.87463  -0.87002  -0.85169
 Alpha  occ. eigenvalues --   -0.84827  -0.84088  -0.83747  -0.83156  -0.82830
 Alpha  occ. eigenvalues --   -0.82822  -0.82485  -0.81751  -0.81382  -0.80771
 Alpha  occ. eigenvalues --   -0.80259  -0.78975  -0.78504  -0.77389  -0.77107
 Alpha  occ. eigenvalues --   -0.76992  -0.76712  -0.76093  -0.75645  -0.75052
 Alpha  occ. eigenvalues --   -0.74660  -0.72940  -0.72554  -0.71839  -0.71421
 Alpha  occ. eigenvalues --   -0.70058  -0.69642  -0.69056  -0.68659  -0.67815
 Alpha  occ. eigenvalues --   -0.67448  -0.67421  -0.67036  -0.65470  -0.65084
 Alpha  occ. eigenvalues --   -0.65023  -0.64793  -0.64611  -0.64467  -0.64430
 Alpha  occ. eigenvalues --   -0.64066  -0.62461  -0.62050  -0.60622  -0.60215
 Alpha  occ. eigenvalues --   -0.59986  -0.59619  -0.59156  -0.58836  -0.58671
 Alpha  occ. eigenvalues --   -0.58261  -0.57745  -0.57474  -0.57343  -0.57086
 Alpha  occ. eigenvalues --   -0.56478  -0.56149  -0.56055  -0.55697  -0.55659
 Alpha  occ. eigenvalues --   -0.55493  -0.55285  -0.55082  -0.54680  -0.54300
 Alpha  occ. eigenvalues --   -0.54084  -0.53728  -0.53475  -0.53404  -0.53086
 Alpha  occ. eigenvalues --   -0.53082  -0.52971  -0.52949  -0.52717  -0.52586
 Alpha  occ. eigenvalues --   -0.52534  -0.52283  -0.52051  -0.51807  -0.51735
 Alpha  occ. eigenvalues --   -0.51487  -0.51357  -0.51029  -0.50772  -0.50370
 Alpha  occ. eigenvalues --   -0.50192  -0.50102  -0.49837  -0.49743  -0.49697
 Alpha  occ. eigenvalues --   -0.49384  -0.49337  -0.49266  -0.49033  -0.48919
 Alpha  occ. eigenvalues --   -0.48754  -0.48636  -0.48604  -0.48373  -0.48247
 Alpha  occ. eigenvalues --   -0.48190  -0.47871  -0.47468  -0.47435  -0.46977
 Alpha  occ. eigenvalues --   -0.46964  -0.46743  -0.46560  -0.46527  -0.46382
 Alpha  occ. eigenvalues --   -0.46319  -0.46128  -0.45972  -0.45923  -0.45627
 Alpha  occ. eigenvalues --   -0.45357  -0.45075  -0.44738  -0.44686  -0.44336
 Alpha  occ. eigenvalues --   -0.44315  -0.44313  -0.44267  -0.44186  -0.43962
 Alpha  occ. eigenvalues --   -0.43937  -0.43777  -0.43655  -0.43561  -0.43347
 Alpha  occ. eigenvalues --   -0.43213  -0.43192  -0.42860  -0.42811  -0.42755
 Alpha  occ. eigenvalues --   -0.42655  -0.42430  -0.42173  -0.41869  -0.41817
 Alpha  occ. eigenvalues --   -0.41718  -0.41497  -0.41310  -0.41291  -0.41051
 Alpha  occ. eigenvalues --   -0.41017  -0.40829  -0.40729  -0.40587  -0.40544
 Alpha  occ. eigenvalues --   -0.40447  -0.40351  -0.40037  -0.39593  -0.39313
 Alpha  occ. eigenvalues --   -0.38632  -0.38219  -0.37948  -0.37485  -0.37479
 Alpha  occ. eigenvalues --   -0.37453  -0.37127  -0.37031  -0.36874  -0.36534
 Alpha  occ. eigenvalues --   -0.36358  -0.36039  -0.34461  -0.34102  -0.33941
 Alpha  occ. eigenvalues --   -0.33626  -0.33361  -0.33024  -0.31535  -0.31211
 Alpha  occ. eigenvalues --   -0.31161  -0.30820  -0.30172  -0.29755  -0.29631
 Alpha  occ. eigenvalues --   -0.29488  -0.29192  -0.29061  -0.24258  -0.23885
 Alpha  occ. eigenvalues --   -0.21303  -0.20973
 Alpha virt. eigenvalues --   -0.08950  -0.08648  -0.01929  -0.01543  -0.00243
 Alpha virt. eigenvalues --    0.00109   0.02042   0.02371   0.02856   0.03356
 Alpha virt. eigenvalues --    0.04532   0.04889   0.04933   0.05420   0.05976

 Mulliken charges:
               1
     1  Mg   0.837194
     2  C   -0.003376
     3  C   -0.094619
     4  C   -0.045897
     5  C   -0.063672
     6  N   -0.256769
     7  C   -0.052681
     8  C   -0.013807
     9  C   -0.086857
    10  C    0.045833
    11  C    0.104731
    12  C    0.053620
    13  C   -0.071697
    14  H    0.035628
    15  N   -0.433146
    16  C    0.167774
    17  C   -0.177655
    18  C   -0.004375
    19  C    0.148311
    20  C    0.110197
    21  C    0.011731
    22  O   -0.249399
    23  C    0.062823
    24  N   -0.341083
    25  C    0.041119
    26  C   -0.028198
    27  C   -0.024080
    28  C    0.074795
    29  C    0.076046
    30  C    0.035014
    31  C   -0.004527
    32  N   -0.310646
    33  C    0.080478
    34  C   -0.169064
    35  C    0.008799
    36  C    0.082889
    37  C    0.127128
    38  C    0.046548
    39  O   -0.187275
    40  C   -0.005461
    41  C    0.213243
    42  O   -0.257607
    43  O   -0.304592
    44  C    0.157602
    45  H   -0.017480
    46  H   -0.016664
    47  H   -0.040804
    48  H    0.001410
    49  H   -0.004305
    50  H    0.025756
    51  H    0.016658
    52  H    0.016898
    53  H    0.010030
    54  H    0.043438
    55  H    0.018641
    56  H    0.017803
    57  H    0.005895
    58  H    0.027205
    59  H    0.038382
    60  H    0.037774
    61  H    0.035730
    62  H    0.030149
    63  H    0.016517
    64  H    0.009916
    65  H    0.023440
    66  H    0.012616
    67  H    0.005111
    68  H    0.006775
    69  H    0.005316
    70  H    0.008602
    71  H    0.018741
    72  H    0.028200
    73  H    0.048595
    74  H    0.009528
    75  H    0.046376
    76  H    0.035547
    77  H    0.043702
    78  H    0.046101
    79  H    0.053368
    80  Mg   0.837504
    81  C   -0.016903
    82  C   -0.087849
    83  C   -0.045713
    84  C   -0.065248
    85  N   -0.254566
    86  C   -0.049625
    87  C   -0.015556
    88  C   -0.090506
    89  C    0.045797
    90  C    0.114582
    91  C    0.062582
    92  C   -0.077969
    93  H    0.033636
    94  N   -0.423437
    95  C    0.162772
    96  C   -0.174839
    97  C   -0.008123
    98  C    0.152025
    99  C    0.099564
   100  C    0.015363
   101  O   -0.253508
   102  C    0.061293
   103  N   -0.350075
   104  C    0.037368
   105  C   -0.019710
   106  C   -0.034798
   107  C    0.089059
   108  C    0.073758
   109  C    0.034795
   110  C   -0.007611
   111  N   -0.324166
   112  C    0.078651
   113  C   -0.163321
   114  C    0.002608
   115  C    0.096049
   116  C    0.131513
   117  C    0.042386
   118  O   -0.186843
   119  C    0.001140
   120  C    0.211022
   121  O   -0.252129
   122  O   -0.303782
   123  C    0.152760
   124  H   -0.020186
   125  H   -0.015958
   126  H   -0.040698
   127  H    0.002644
   128  H   -0.005211
   129  H    0.024201
   130  H    0.013877
   131  H    0.015735
   132  H    0.012929
   133  H    0.037583
   134  H    0.024142
   135  H    0.017917
   136  H    0.008196
   137  H    0.025753
   138  H    0.039158
   139  H    0.038037
   140  H    0.036013
   141  H    0.033625
   142  H    0.014126
   143  H    0.012251
   144  H    0.024815
   145  H    0.011671
   146  H    0.005448
   147  H    0.005986
   148  H    0.003560
   149  H    0.010774
   150  H    0.017717
   151  H    0.030274
   152  H    0.046058
   153  H    0.008161
   154  H    0.047154
   155  H    0.037409
   156  H    0.045378
   157  H    0.049412
   158  H    0.052108
 Sum of Mulliken charges =  -0.00000

 Dipole moment (field-independent basis, Debye):
    X=              4.7209    Y=              5.5848    Z=             -4.5785  Tot=              8.6279
 Quadrupole moment (field-independent basis, Debye-Ang):
   XX=           -503.3763   YY=           -566.9392   ZZ=           -453.5737
   XY=              4.9110   XZ=            -38.1828   YZ=              5.8119

 Normal termination of Gaussian 16 at Sat Sep 11 13:06:12 2021.
