 Gaussian 16, Revision A.03,
 Gaussian 16:  ES64L-G16RevA.03 25-Dec-2016

 -----------------------------------
 #p cam-b3lyp/Def2SVP td=(nstates=5)
 -----------------------------------

 --------------------------------
 TDDFT excited states in gaussian
 --------------------------------
 Symbolic Z-matrix:
 Charge =  0 Multiplicity = 1

                         Standard orientation:
 ---------------------------------------------------------------------
 Center     Atomic      Atomic             Coordinates (Angstroms)
 Number     Number       Type             X           Y           Z
 ---------------------------------------------------------------------
      1         12           0        3.609413    1.163443    0.263027
      2          6           0        4.098743   -1.777666    2.243596
      3          6           0        4.907746   -0.574607   -2.370712
      4          6           0        3.610491    3.873191   -1.384360
      5          6           0        3.430189    2.961462    3.243072
      6          7           0        4.369538   -0.907949    0.083603
      7          6           0        4.446618   -1.952444    0.902298
      8          6           0        4.860381   -3.271461    0.183711
      9          6           0        5.615585   -2.646792   -1.073848
     10          6           0        4.898519   -1.310320   -1.148552
     11          6           0        7.099970   -2.394805   -0.829700
     12          6           0        3.621893   -4.122439   -0.256421
     13          6           0        3.932804   -5.564545   -0.667540
     14          1           0        2.969833   -6.607242   -0.346887
     15          7           0        3.710653    1.478719   -1.684587
     16          6           0        4.259127    0.656068   -2.610713
     17          6           0        4.086260    1.335425   -3.912739
     18          6           0        3.563325    2.704162   -3.645921
     19          6           0        3.632905    2.749940   -2.207714
     20          6           0        4.359149    0.673860   -5.228647
     21          6           0        3.087777    3.801222   -4.545057
     22          8           0        2.894391    4.991968   -4.121618
     23          6           0        2.937046    3.462404   -5.971775
     24          7           0        3.750914    3.168258    0.827233
     25          6           0        3.666607    4.147897   -0.079510
     26          6           0        3.509195    5.487405    0.576902
     27          6           0        3.258351    5.193693    2.126277
     28          6           0        3.405032    3.652227    2.101022
     29          6           0        4.694841    6.450379    0.425456
     30          6           0        1.982511    5.802911    2.759920
     31          6           0        0.753710    5.145326    2.172784
     32          7           0        3.560142    0.686377    2.379870
     33          6           0        3.506645    1.593920    3.447662
     34          6           0        3.602103    0.805443    4.689942
     35          6           0        3.721955   -0.513121    4.255350
     36          6           0        3.728989   -0.543744    2.831516
     37          6           0        3.630819    1.332357    6.011293
     38          6           0        3.870484   -1.900951    4.662441
     39          8           0        3.834720   -2.497206    5.739796
     40          6           0        4.242821   -2.763229    3.376490
     41          6           0        3.353791   -3.976857    3.370034
     42          8           0        2.122831   -3.867233    3.196578
     43          8           0        4.112080   -5.083193    3.330512
     44          6           0        3.291090   -6.322821    3.292409
     45          1           0        5.513067   -0.940383   -3.202418
     46          1           0        3.499254    4.822730   -1.912033
     47          1           0        3.296229    3.446069    4.211919
     48          1           0        5.543164   -3.903579    0.751740
     49          1           0        5.439005   -3.222850   -1.981977
     50          1           0        7.366976   -2.566379    0.212984
     51          1           0        7.266139   -1.351433   -1.098506
     52          1           0        7.710575   -2.981972   -1.516121
     53          1           0        3.239576   -3.738249   -1.202092
     54          1           0        2.859601   -4.126255    0.523465
     55          1           0        4.934672   -5.860789   -0.355437
     56          1           0        3.963606   -5.610250   -1.756192
     57          1           0        4.888536   -0.269470   -5.100496
     58          1           0        5.063278    1.309829   -5.764795
     59          1           0        3.452510    0.548509   -5.820783
     60          1           0        3.896333    3.125035   -6.364840
     61          1           0        2.503468    4.342358   -6.445633
     62          1           0        2.253833    2.617596   -6.063788
     63          1           0        2.651859    6.023202    0.171536
     64          1           0        4.070074    5.568424    2.750262
     65          1           0        4.428106    7.405456   -0.027740
     66          1           0        5.467553    5.945140   -0.153285
     67          1           0        5.226240    6.670240    1.351033
     68          1           0        1.916873    6.866341    2.532424
     69          1           0        1.945565    5.692725    3.843777
     70          1           0        0.596534    5.702953    1.250190
     71          1           0       -0.096426    5.257603    2.846486
     72          1           0        0.949895    4.108839    1.897664
     73          1           0        2.974614    0.697928    6.606997
     74          1           0        3.301959    2.371146    6.030583
     75          1           0        4.689127    1.224931    6.248567
     76          1           0        5.295660   -3.027500    3.470363
     77          1           0        3.607525   -6.943281    4.130940
     78          1           0        3.398756   -6.735074    2.288985
     79          1           0        2.229541   -6.204896    3.512741
     80         12           0       -4.234958    0.056766   -0.234883
     81          6           0       -1.702891   -1.931655   -1.820405
     82          6           0       -6.331097   -2.613037   -0.570980
     83          6           0       -6.607301    1.922505    0.744115
     84          6           0       -2.343072    2.867376   -1.051564
     85          7           0       -3.938824   -1.957232   -1.099968
     86          6           0       -2.916330   -2.621428   -1.617376
     87          6           0       -3.186617   -4.130478   -1.860842
     88          6           0       -4.787318   -4.072534   -1.976107
     89          6           0       -5.047856   -2.824168   -1.135637
     90          6           0       -5.279759   -3.808252   -3.389252
     91          6           0       -2.729580   -5.022015   -0.653251
     92          6           0       -2.677940   -6.523232   -0.945523
     93          1           0       -1.629364   -7.319612   -0.314043
     94          7           0       -6.021498   -0.411846    0.491248
     95          6           0       -6.716676   -1.547583    0.271907
     96          6           0       -7.978913   -1.395992    1.012132
     97          6           0       -8.042811   -0.010529    1.551681
     98          6           0       -6.877135    0.572946    0.918546
     99          6           0       -8.942492   -2.528474    1.218073
    100          6           0       -9.002384    0.679175    2.473497
    101          8           0       -8.998981    1.952614    2.618995
    102          6           0      -10.007000   -0.170558    3.129376
    103          7           0       -4.553978    2.108075   -0.347564
    104          6           0       -5.644234    2.669475    0.203880
    105          6           0       -5.523502    4.174289    0.240659
    106          6           0       -4.014806    4.494706   -0.182130
    107          6           0       -3.528442    3.061505   -0.489974
    108          6           0       -6.481078    4.940969   -0.671287
    109          6           0       -3.179266    5.364563    0.796590
    110          6           0       -2.926302    4.602184    2.077289
    111          7           0       -2.281628    0.424448   -1.081855
    112          6           0       -1.695754    1.678319   -1.362236
    113          6           0       -0.408390    1.416054   -2.037781
    114          6           0       -0.344827    0.017176   -2.124874
    115          6           0       -1.519585   -0.551530   -1.562724
    116          6           0        0.494486    2.405025   -2.520332
    117          6           0        0.444068   -1.107342   -2.574104
    118          8           0        1.571678   -1.243799   -3.046992
    119          6           0       -0.457711   -2.414702   -2.510920
    120          6           0        0.340871   -3.497761   -1.838780
    121          8           0        0.669492   -3.391805   -0.644044
    122          8           0        0.397479   -4.570651   -2.648766
    123          6           0        1.170026   -5.675747   -2.021269
    124          1           0       -7.132431   -3.305413   -0.830529
    125          1           0       -7.345152    2.609169    1.165476
    126          1           0       -1.649741    3.687507   -1.249931
    127          1           0       -2.762048   -4.526194   -2.775673
    128          1           0       -5.248114   -4.943743   -1.517832
    129          1           0       -4.466794   -3.584852   -4.064025
    130          1           0       -5.951588   -2.963297   -3.313460
    131          1           0       -5.888492   -4.646837   -3.739328
    132          1           0       -3.510261   -5.007528    0.118157
    133          1           0       -1.780475   -4.694531   -0.275632
    134          1           0       -2.727304   -6.735843   -2.020370
    135          1           0       -3.579829   -6.987172   -0.538843
    136          1           0       -8.708304   -3.379410    0.566572
    137          1           0       -9.921953   -2.182075    0.870901
    138          1           0       -9.024060   -2.826949    2.265423
    139          1           0      -10.599995   -0.678488    2.372530
    140          1           0      -10.542936    0.487514    3.816094
    141          1           0       -9.488159   -0.950185    3.698240
    142          1           0       -5.695815    4.551748    1.241125
    143          1           0       -3.966708    5.052981   -1.128629
    144          1           0       -7.110072    5.671438   -0.128272
    145          1           0       -7.098164    4.224834   -1.197498
    146          1           0       -6.006929    5.481886   -1.488470
    147          1           0       -3.736158    6.262661    1.074846
    148          1           0       -2.230196    5.689267    0.383270
    149          1           0       -3.842586    4.771936    2.650617
    150          1           0       -2.056793    5.001545    2.595455
    151          1           0       -2.851797    3.525360    1.886131
    152          1           0        1.488411    2.082527   -2.239971
    153          1           0        0.264218    3.386802   -2.111840
    154          1           0        0.290530    2.348584   -3.592939
    155          1           0       -0.724535   -2.678437   -3.535038
    156          1           0        1.967383   -5.945436   -2.720677
    157          1           0        0.427406   -6.458689   -1.777802
    158          1           0        1.740349   -5.444963   -1.129129
 ---------------------------------------------------------------------

 SCF Done:  E(RCAM-B3LYP) =  -4069.80232599     A.U. after   18 cycles

 Excitation energies and oscillator strengths:

 Excited State   1:      Singlet-A      1.6164 eV  767.06 nm  f=0.2733  <S**2>=0.000
     309 -> 315        0.11245
     310 -> 316        0.10518
     311 -> 313        0.48072
     312 -> 313        0.10920
     312 -> 314        0.47865
 This state for optimization and/or second-order correction.
 Total Energy, E(TD-HF/TD-DFT) =  -4069.74292598
 Copying the excited state density for this state as the 1-particle RhoCI density.

 Excited State   2:      Singlet-A      1.7002 eV  729.23 nm  f=0.5009  <S**2>=0.000
     309 -> 315       -0.12412
     310 -> 316        0.12564
     311 -> 313       -0.47529
     312 -> 314        0.48716

 Excited State   3:      Singlet-A      2.0182 eV  614.32 nm  f=0.0006  <S**2>=0.000
     311 -> 313       -0.12080
     312 -> 313        0.69127

 Excited State   4:      Singlet-A      2.1683 eV  571.81 nm  f=0.0031  <S**2>=0.000
     309 -> 313        0.49663
     310 -> 314       -0.41579
     311 -> 315       -0.19948
     312 -> 316        0.16720

 Excited State   5:      Singlet-A      2.1948 eV  564.89 nm  f=0.1539  <S**2>=0.000
     309 -> 313        0.40884
     310 -> 314        0.48564
     311 -> 315       -0.17127
     312 -> 316       -0.20950

 The electronic state is 1-A.
 Alpha  occ. eigenvalues --  -46.87589 -46.86956 -19.26458 -19.25619 -19.19391
 Alpha  occ. eigenvalues --  -19.18658 -19.18577 -19.18406 -19.18200 -19.17387
 Alpha  occ. eigenvalues --  -14.42414 -14.41531 -14.41305 -14.40698 -14.39292
 Alpha  occ. eigenvalues --  -14.38698 -14.38563 -14.37719 -10.39248 -10.38268
 Alpha  occ. eigenvalues --  -10.35333 -10.35004 -10.34575 -10.33609 -10.31477
 Alpha  occ. eigenvalues --  -10.31283 -10.31229 -10.30984 -10.30517 -10.30349
 Alpha  occ. eigenvalues --  -10.30334 -10.30027 -10.29958 -10.29836 -10.29832
 Alpha  occ. eigenvalues --  -10.29790 -10.29439 -10.29362 -10.29344 -10.29321
 Alpha  occ. eigenvalues --  -10.29019 -10.28675 -10.28595 -10.28417 -10.28405
 Alpha  occ. eigenvalues --  -10.28359 -10.28108 -10.27934 -10.27876 -10.27602
 Alpha  occ. eigenvalues --  -10.27444 -10.27442 -10.27429 -10.27404 -10.27380
 Alpha  occ. eigenvalues --  -10.27269 -10.27269 -10.27258 -10.27061 -10.27056
 Alpha  occ. eigenvalues --  -10.26916 -10.26910 -10.26761 -10.26601 -10.26562
 Alpha  occ. eigenvalues --  -10.26546 -10.26371 -10.26341 -10.26035 -10.26011
 Alpha  occ. eigenvalues --  -10.25952 -10.25944 -10.25817 -10.25542 -10.25515
 Alpha  occ. eigenvalues --  -10.25307 -10.25245 -10.25181 -10.25075 -10.24937
 Alpha  occ. eigenvalues --  -10.24892 -10.24651 -10.24647 -10.24481 -10.24106
 Alpha  occ. eigenvalues --  -10.23975  -3.16336  -3.15695  -1.91217  -1.90807
 Alpha  occ. eigenvalues --   -1.90645  -1.90576  -1.90162  -1.90008  -1.16806
 Alpha  occ. eigenvalues --   -1.15939  -1.09099  -1.07860  -1.07188  -1.06908
 Alpha  occ. eigenvalues --   -1.06804  -1.05839  -1.04442  -1.03719  -1.03606
 Alpha  occ. eigenvalues --   -1.03026  -1.02984  -1.02492  -1.02069  -1.01605
 Alpha  occ. eigenvalues --   -0.92024  -0.91135  -0.89418  -0.89100  -0.88986
 Alpha  occ. eigenvalues --   -0.88386  -0.88123  -0.87769  -0.87636  -0.87542
 Alpha  occ. eigenvalues --   -0.87089  -0.87063  -0.86848  -0.86597  -0.84942
 Alpha  occ. eigenvalues --   -0.84412  -0.83797  -0.83485  -0.82863  -0.82629
 Alpha  occ. eigenvalues --   -0.82427  -0.82090  -0.81549  -0.80940  -0.80408
 Alpha  occ. eigenvalues --   -0.79892  -0.78546  -0.78051  -0.77071  -0.76981
 Alpha  occ. eigenvalues --   -0.76640  -0.76343  -0.75757  -0.75231  -0.74742
 Alpha  occ. eigenvalues --   -0.74344  -0.72591  -0.72040  -0.71546  -0.70961
 Alpha  occ. eigenvalues --   -0.69676  -0.69495  -0.68802  -0.68220  -0.67574
 Alpha  occ. eigenvalues --   -0.67134  -0.66949  -0.66594  -0.65253  -0.64757
 Alpha  occ. eigenvalues --   -0.64638  -0.64526  -0.64155  -0.64111  -0.64001
 Alpha  occ. eigenvalues --   -0.63621  -0.62396  -0.61625  -0.60285  -0.59822
 Alpha  occ. eigenvalues --   -0.59740  -0.59103  -0.58900  -0.58447  -0.58293
 Alpha  occ. eigenvalues --   -0.57788  -0.57682  -0.57216  -0.56822  -0.56674
 Alpha  occ. eigenvalues --   -0.56187  -0.56008  -0.55597  -0.55524  -0.55300
 Alpha  occ. eigenvalues --   -0.55260  -0.54923  -0.54827  -0.54486  -0.53953
 Alpha  occ. eigenvalues --   -0.53874  -0.53332  -0.53206  -0.53027  -0.52933
 Alpha  occ. eigenvalues --   -0.52850  -0.52658  -0.52502  -0.52326  -0.52286
 Alpha  occ. eigenvalues --   -0.52183  -0.51992  -0.51722  -0.51588  -0.51247
 Alpha  occ. eigenvalues --   -0.51185  -0.50853  -0.50540  -0.50401  -0.50032
 Alpha  occ. eigenvalues --   -0.49968  -0.49844  -0.49558  -0.49429  -0.49293
 Alpha  occ. eigenvalues --   -0.49242  -0.49196  -0.48907  -0.48618  -0.48567
 Alpha  occ. eigenvalues --   -0.48363  -0.48290  -0.48263  -0.47974  -0.47868
 Alpha  occ. eigenvalues --   -0.47733  -0.47517  -0.47187  -0.47009  -0.46715
 Alpha  occ. eigenvalues --   -0.46571  -0.46483  -0.46296  -0.46115  -0.45953
 Alpha  occ. eigenvalues --   -0.45855  -0.45809  -0.45568  -0.45500  -0.45374
 Alpha  occ. eigenvalues --   -0.45125  -0.44785  -0.44526  -0.44424  -0.44199
 Alpha  occ. eigenvalues --   -0.44110  -0.43984  -0.43881  -0.43774  -0.43706
 Alpha  occ. eigenvalues --   -0.43537  -0.43359  -0.43316  -0.43104  -0.42860
 Alpha  occ. eigenvalues --   -0.42806  -0.42735  -0.42614  -0.42495  -0.42329
 Alpha  occ. eigenvalues --   -0.42159  -0.42009  -0.41833  -0.41672  -0.41427
 Alpha  occ. eigenvalues --   -0.41307  -0.40997  -0.40938  -0.40749  -0.40653
 Alpha  occ. eigenvalues --   -0.40602  -0.40477  -0.40369  -0.40270  -0.40186
 Alpha  occ. eigenvalues --   -0.40144  -0.39946  -0.39502  -0.39335  -0.38980
 Alpha  occ. eigenvalues --   -0.38255  -0.37916  -0.37577  -0.37183  -0.37159
 Alpha  occ. eigenvalues --   -0.37079  -0.36743  -0.36633  -0.36490  -0.36178
 Alpha  occ. eigenvalues --   -0.35974  -0.35455  -0.34221  -0.33877  -0.33459
 Alpha  occ. eigenvalues --   -0.33129  -0.32922  -0.32259  -0.31214  -0.30944
 Alpha  occ. eigenvalues --   -0.30877  -0.30336  -0.30197  -0.29309  -0.29256
 Alpha  occ. eigenvalues --   -0.29200  -0.28798  -0.28506  -0.23984  -0.23239
 Alpha  occ. eigenvalues --   -0.21069  -0.20236
 Alpha virt. eigenvalues --   -0.08767  -0.07923  -0.01636  -0.01103  -0.00032
 Alpha virt. eigenvalues --    0.00681   0.02056   0.02915   0.03234   0.04591
 Alpha virt. eigenvalues --    0.04740   0.04818   0.05120   0.05905   0.06091

 Mulliken charges:
               1
     1  Mg   0.827982
     2  C    0.005621
     3  C   -0.075102
     4  C   -0.045272
     5  C   -0.066206
     6  N   -0.257327
     7  C   -0.044920
     8  C    0.003369
     9  C   -0.093191
    10  C    0.057113
    11  C    0.106160
    12  C    0.021824
    13  C   -0.096059
    14  H    0.031935
    15  N   -0.445238
    16  C    0.205368
    17  C   -0.166830
    18  C   -0.011330
    19  C    0.116178
    20  C    0.118475
    21  C    0.011798
    22  O   -0.254416
    23  C    0.065473
    24  N   -0.339945
    25  C    0.043441
    26  C   -0.027499
    27  C   -0.021974
    28  C    0.074152
    29  C    0.077261
    30  C    0.039413
    31  C   -0.025992
    32  N   -0.307019
    33  C    0.079024
    34  C   -0.172360
    35  C    0.006451
    36  C    0.081160
    37  C    0.127815
    38  C    0.045881
    39  O   -0.192198
    40  C   -0.008070
    41  C    0.211566
    42  O   -0.250703
    43  O   -0.306252
    44  C    0.159602
    45  H   -0.022445
    46  H   -0.023238
    47  H   -0.045215
    48  H   -0.005689
    49  H   -0.003786
    50  H    0.024208
    51  H    0.016038
    52  H    0.013724
    53  H    0.024657
    54  H    0.075053
    55  H    0.015248
    56  H    0.017275
    57  H    0.007011
    58  H    0.021531
    59  H    0.041888
    60  H    0.037866
    61  H    0.032562
    62  H    0.030529
    63  H    0.011861
    64  H    0.008362
    65  H    0.020982
    66  H    0.013294
    67  H    0.004047
    68  H    0.003487
    69  H    0.003910
    70  H    0.008590
    71  H    0.032045
    72  H    0.035538
    73  H    0.045511
    74  H    0.006824
    75  H    0.043974
    76  H    0.032835
    77  H    0.040624
    78  H    0.043683
    79  H    0.052840
    80  Mg   0.841684
    81  C   -0.015607
    82  C   -0.088137
    83  C   -0.044961
    84  C   -0.067255
    85  N   -0.255208
    86  C   -0.049631
    87  C   -0.016292
    88  C   -0.090656
    89  C    0.047225
    90  C    0.114613
    91  C    0.061874
    92  C   -0.077234
    93  H    0.034044
    94  N   -0.423385
    95  C    0.164198
    96  C   -0.174522
    97  C   -0.007229
    98  C    0.152469
    99  C    0.099418
   100  C    0.016042
   101  O   -0.252939
   102  C    0.060948
   103  N   -0.349876
   104  C    0.037871
   105  C   -0.020307
   106  C   -0.032813
   107  C    0.088943
   108  C    0.073725
   109  C    0.032691
   110  C    0.002241
   111  N   -0.322840
   112  C    0.076137
   113  C   -0.175012
   114  C   -0.000827
   115  C    0.098612
   116  C    0.147594
   117  C    0.042383
   118  O   -0.194858
   119  C    0.011507
   120  C    0.212418
   121  O   -0.240663
   122  O   -0.308900
   123  C    0.152671
   124  H   -0.019958
   125  H   -0.015318
   126  H   -0.037041
   127  H   -0.002324
   128  H   -0.004045
   129  H    0.021306
   130  H    0.014453
   131  H    0.016040
   132  H    0.015568
   133  H    0.042371
   134  H    0.019209
   135  H    0.019715
   136  H    0.008777
   137  H    0.025979
   138  H    0.040551
   139  H    0.038027
   140  H    0.036512
   141  H    0.034638
   142  H    0.014817
   143  H    0.013056
   144  H    0.024942
   145  H    0.011138
   146  H    0.006030
   147  H    0.004809
   148  H    0.004608
   149  H    0.007158
   150  H    0.006483
   151  H    0.030960
   152  H    0.067031
   153  H    0.014364
   154  H    0.033214
   155  H    0.032459
   156  H    0.037808
   157  H    0.043685
   158  H    0.058043
 Sum of Mulliken charges =  -0.00000

 Dipole moment (field-independent basis, Debye):
    X=             -1.8472    Y=             -3.2388    Z=             -5.1144  Tot=              6.3293
 Quadrupole moment (field-independent basis, Debye-Ang):
   XX=           -487.2805   YY=           -470.6550   ZZ=           -525.5873
   XY=             21.1326   XZ=             -7.6573   YZ=             30.3729

 Normal termination of Gaussian 16 at Wed Sep  8 22:34:05 2021.
