 Gaussian 16, Revision A.03,
 Gaussian 16:  ES64L-G16RevA.03 25-Dec-2016

 -----------------------------------
 #p cam-b3lyp/Def2SVP td=(nstates=5)
 -----------------------------------

 --------------------------------
 TDDFT excited states in gaussian
 --------------------------------
 Symbolic Z-matrix:
 Charge =  0 Multiplicity = 1

                         Standard orientation:
 ---------------------------------------------------------------------
 Center     Atomic      Atomic             Coordinates (Angstroms)
 Number     Number       Type             X           Y           Z
 ---------------------------------------------------------------------
      1         12           0        6.850609    0.409483    0.797519
      2          6           0        7.202061   -2.577507   -1.143250
      3          6           0        8.007873    2.129067   -1.912986
      4          6           0        6.980633    2.994753    2.629483
      5          6           0        6.819188   -1.613942    3.634845
      6          7           0        7.488970   -0.252071   -1.216305
      7          6           0        7.519006   -1.417935   -1.854294
      8          6           0        7.846166   -1.283637   -3.371629
      9          6           0        8.616442    0.111965   -3.340496
     10          6           0        7.975433    0.715649   -2.103323
     11          6           0       10.116288   -0.025188   -3.099347
     12          6           0        6.554769   -1.205684   -4.253644
     13          6           0        6.776935   -1.401572   -5.756183
     14          1           0        5.761250   -2.100484   -6.529006
     15          7           0        6.939977    2.321901    0.310156
     16          6           0        7.426668    2.842086   -0.842157
     17          6           0        7.272912    4.308098   -0.724471
     18          6           0        6.832726    4.609272    0.666078
     19          6           0        6.926654    3.306084    1.272920
     20          6           0        7.487723    5.252331   -1.867287
     21          6           0        6.406676    5.873214    1.343619
     22          8           0        6.287734    5.957300    2.613799
     23          6           0        6.215258    7.050564    0.477450
     24          7           0        7.114377    0.683637    2.850054
     25          6           0        7.072103    1.904750    3.394187
     26          6           0        7.001069    1.833466    4.890787
     27          6           0        6.757526    0.296566    5.249086
     28          6           0        6.815967   -0.291584    3.817676
     29          6           0        8.237086    2.343539    5.644512
     30          6           0        5.528152   -0.033290    6.132405
     31          6           0        4.255181    0.256117    5.368935
     32          7           0        6.806497   -1.722816    1.200507
     33          6           0        6.820904   -2.343723    2.457862
     34          6           0        6.890276   -3.797396    2.221028
     35          6           0        6.928378   -3.921201    0.833561
     36          6           0        6.912010   -2.625869    0.241835
     37          6           0        6.968978   -4.802499    3.225024
     38          6           0        7.003969   -4.845586   -0.286107
     39          8           0        6.950762   -6.070608   -0.404357
     40          6           0        7.307104   -4.009151   -1.606831
     41          6           0        6.350544   -4.475961   -2.670030
     42          8           0        5.125309   -4.262770   -2.566518
     43          8           0        7.044045   -4.884018   -3.743849
     44          6           0        6.153450   -5.332639   -4.847358
     45          1           0        8.578712    2.742886   -2.612494
     46          1           0        6.915528    3.856080    3.297551
     47          1           0        6.727732   -2.310693    4.470086
     48          1           0        8.500479   -2.061278   -3.766056
     49          1           0        8.393621    0.719416   -4.217466
     50          1           0       10.388935   -1.052877   -2.859680
     51          1           0       10.337377    0.633188   -2.259018
     52          1           0       10.682029    0.367546   -3.944613
     53          1           0        6.180570   -0.181948   -4.253342
     54          1           0        5.805438   -1.916852   -3.904260
     55          1           0        7.764977   -1.813988   -5.962566
     56          1           0        6.788533   -0.420213   -6.230523
     57          1           0        7.964531    4.756771   -2.712046
     58          1           0        8.218623    5.990368   -1.537445
     59          1           0        6.566527    5.754227   -2.163650
     60          1           0        7.147734    7.269793   -0.043104
     61          1           0        5.825234    7.837686    1.121786
     62          1           0        5.483818    6.806535   -0.293520
     63          1           0        6.169504    2.425101    5.271435
     64          1           0        7.598626   -0.135064    5.792150
     65          1           0        8.018199    3.139994    6.356167
     66          1           0        8.970947    2.668429    4.907501
     67          1           0        8.794132    1.576054    6.181247
     68          1           0        5.519604    0.597071    7.020954
     69          1           0        5.501488   -1.071894    6.462318
     70          1           0        4.115940    1.325382    5.524230
     71          1           0        3.423142   -0.310844    5.787834
     72          1           0        4.387939    0.096859    4.298655
     73          1           0        6.286912   -5.595027    2.917364
     74          1           0        6.700015   -4.406266    4.203933
     75          1           0        8.022956   -5.071949    3.158822
     76          1           0        8.344528   -4.208945   -1.873204
     77          1           0        6.446824   -6.350936   -5.102770
     78          1           0        6.222243   -4.575274   -5.628429
     79          1           0        5.103791   -5.479226   -4.590322
     80         12           0       -6.323441    0.574483   -0.444654
     81          6           0       -8.949906   -1.688023    0.483653
     82          6           0       -8.752812    2.835994   -1.230981
     83          6           0       -4.063124    2.420254   -1.690266
     84          6           0       -4.213353   -2.189503   -0.676165
     85          7           0       -8.530497    0.470691   -0.342820
     86          6           0       -9.415098   -0.417753    0.084346
     87          6           0      -10.872700    0.110762    0.159436
     88          6           0      -10.755675    1.293245   -0.920799
     89          6           0       -9.260405    1.582375   -0.805668
     90          6           0      -11.046647    0.840942   -2.342098
     91          6           0      -11.234718    0.665809    1.581712
     92          6           0      -12.726906    0.911911    1.815323
     93          1           0      -13.273627    0.661741    3.146106
     94          7           0       -6.337452    2.513202   -0.868627
     95          6           0       -7.415061    3.279140   -1.139533
     96          6           0       -6.892941    4.628543   -1.405377
     97          6           0       -5.406564    4.559750   -1.431090
     98          6           0       -5.207570    3.126612   -1.349872
     99          6           0       -7.778645    5.834499   -1.526348
    100          6           0       -4.340922    5.609188   -1.527396
    101          8           0       -3.119446    5.307972   -1.772543
    102          6           0       -4.785151    7.006480   -1.419069
    103          7           0       -4.472565    0.157857   -1.294972
    104          6           0       -3.663561    1.148533   -1.709714
    105          6           0       -2.282370    0.627664   -2.028132
    106          6           0       -2.263020   -0.884540   -1.508085
    107          6           0       -3.729266   -1.009656   -1.039169
    108          6           0       -1.881448    0.663630   -3.502704
    109          6           0       -1.133669   -1.272798   -0.514868
    110          6           0       -1.334323   -0.555689    0.800757
    111          7           0       -6.461545   -1.531013    0.019967
    112          6           0       -5.468760   -2.515323   -0.178978
    113          6           0       -6.067789   -3.816863    0.180979
    114          6           0       -7.385077   -3.499783    0.545296
    115          6           0       -7.598400   -2.102138    0.401842
    116          6           0       -5.419877   -5.081682    0.099989
    117          6           0       -8.646802   -4.031042    1.008444
    118          8           0       -9.038675   -5.134593    1.385735
    119          6           0       -9.753727   -2.899033    0.868288
    120          6           0      -10.528856   -2.845330    2.156244
    121          8           0       -9.975878   -2.491326    3.212418
    122          8           0      -11.837546   -3.009221    1.890084
    123          6           0      -12.648889   -2.952548    3.135203
    124          1           0       -9.434163    3.532667   -1.720169
    125          1           0       -3.216098    3.025875   -2.020783
    126          1           0       -3.591358   -3.085860   -0.627749
    127          1           0      -11.630108   -0.600222   -0.148147
    128          1           0      -11.336189    2.161610   -0.620313
    129          1           0      -11.168987   -0.230026   -2.407005
    130          1           0      -10.198043    1.161253   -2.932286
    131          1           0      -11.911124    1.380247   -2.739789
    132          1           0      -10.858553    1.693014    1.671612
    133          1           0      -10.849593    0.024371    2.350398
    134          1           0      -13.348505    0.434002    1.048408
    135          1           0      -12.925625    1.979569    1.694368
    136          1           0       -8.833288    5.550406   -1.628433
    137          1           0       -7.533825    6.316772   -2.478894
    138          1           0       -7.625956    6.552099   -0.717398
    139          1           0       -5.511651    7.216070   -2.200563
    140          1           0       -3.871806    7.604529   -1.421644
    141          1           0       -5.305173    7.135146   -0.463221
    142          1           0       -1.524706    1.191389   -1.497795
    143          1           0       -2.135636   -1.598275   -2.335238
    144          1           0       -0.953144    1.236082   -3.688781
    145          1           0       -2.704069    1.078247   -4.070085
    146          1           0       -1.747441   -0.311076   -3.968753
    147          1           0       -0.163281   -0.949611   -0.899659
    148          1           0       -1.068051   -2.340012   -0.331183
    149          1           0       -0.886345    0.425591    0.617773
    150          1           0       -0.821721   -1.079851    1.604822
    151          1           0       -2.399847   -0.398716    1.004920
    152          1           0       -5.670626   -5.618477    1.005242
    153          1           0       -4.343373   -4.970502   -0.011958
    154          1           0       -5.887258   -5.482755   -0.803318
    155          1           0      -10.386732   -3.163026    0.020235
    156          1           0      -13.230508   -3.878507    3.179957
    157          1           0      -13.215434   -2.004029    3.079688
    158          1           0      -12.119799   -2.989242    4.080279
 ---------------------------------------------------------------------

 SCF Done:  E(RCAM-B3LYP) =  -4069.81209778     A.U. after   19 cycles

 Excitation energies and oscillator strengths:

 Excited State   1:      Singlet-A      1.6642 eV  744.99 nm  f=0.0107  <S**2>=0.000
     309 -> 315       -0.10778
     310 -> 316        0.13298
     311 -> 313       -0.43067
     312 -> 314        0.53482
 This state for optimization and/or second-order correction.
 Total Energy, E(TD-HF/TD-DFT) =  -4069.75093822
 Copying the excited state density for this state as the 1-particle RhoCI density.

 Excited State   2:      Singlet-A      1.6895 eV  733.84 nm  f=0.7305  <S**2>=0.000
     309 -> 315        0.13889
     310 -> 316        0.11109
     311 -> 313        0.53362
     312 -> 314        0.42975

 Excited State   3:      Singlet-A      2.1850 eV  567.44 nm  f=0.1019  <S**2>=0.000
     310 -> 314        0.64088
     312 -> 316       -0.27165

 Excited State   4:      Singlet-A      2.1941 eV  565.09 nm  f=0.0995  <S**2>=0.000
     309 -> 313        0.63875
     311 -> 315       -0.27819

 Excited State   5:      Singlet-A      2.6627 eV  465.63 nm  f=0.0000  <S**2>=0.000
     312 -> 313        0.70684

 The electronic state is 1-A.
 Alpha  occ. eigenvalues --  -46.87796 -46.87528 -19.26340 -19.26259 -19.19086
 Alpha  occ. eigenvalues --  -19.19064 -19.18761 -19.18624 -19.18177 -19.17935
 Alpha  occ. eigenvalues --  -14.42450 -14.42372 -14.41442 -14.41213 -14.39394
 Alpha  occ. eigenvalues --  -14.39225 -14.38590 -14.38467 -10.39139 -10.38992
 Alpha  occ. eigenvalues --  -10.35391 -10.35305 -10.34401 -10.34113 -10.31738
 Alpha  occ. eigenvalues --  -10.31676 -10.31412 -10.31182 -10.30912 -10.30906
 Alpha  occ. eigenvalues --  -10.30570 -10.30500 -10.30262 -10.30226 -10.30185
 Alpha  occ. eigenvalues --  -10.29984 -10.29914 -10.29740 -10.29618 -10.29309
 Alpha  occ. eigenvalues --  -10.29272 -10.29238 -10.28766 -10.28622 -10.28579
 Alpha  occ. eigenvalues --  -10.28577 -10.28361 -10.28286 -10.28125 -10.28040
 Alpha  occ. eigenvalues --  -10.27874 -10.27783 -10.27721 -10.27565 -10.27545
 Alpha  occ. eigenvalues --  -10.27472 -10.27434 -10.27421 -10.27405 -10.27376
 Alpha  occ. eigenvalues --  -10.27359 -10.27344 -10.27275 -10.27184 -10.27179
 Alpha  occ. eigenvalues --  -10.26941 -10.26745 -10.26605 -10.26353 -10.26315
 Alpha  occ. eigenvalues --  -10.26236 -10.26145 -10.26008 -10.25935 -10.25835
 Alpha  occ. eigenvalues --  -10.25788 -10.25769 -10.25672 -10.25404 -10.25233
 Alpha  occ. eigenvalues --  -10.24829 -10.24777 -10.24747 -10.24649 -10.24556
 Alpha  occ. eigenvalues --  -10.24447  -3.16540  -3.16279  -1.91422  -1.91161
 Alpha  occ. eigenvalues --   -1.91008  -1.90850  -1.90749  -1.90586  -1.16689
 Alpha  occ. eigenvalues --   -1.16551  -1.08640  -1.08543  -1.07159  -1.06879
 Alpha  occ. eigenvalues --   -1.06849  -1.06705  -1.04581  -1.04372  -1.03753
 Alpha  occ. eigenvalues --   -1.03530  -1.03227  -1.02898  -1.02406  -1.01976
 Alpha  occ. eigenvalues --   -0.91977  -0.91863  -0.89502  -0.89311  -0.89199
 Alpha  occ. eigenvalues --   -0.89043  -0.88267  -0.88026  -0.87864  -0.87670
 Alpha  occ. eigenvalues --   -0.87652  -0.87554  -0.87239  -0.87014  -0.84987
 Alpha  occ. eigenvalues --   -0.84888  -0.83917  -0.83679  -0.82918  -0.82815
 Alpha  occ. eigenvalues --   -0.82642  -0.82538  -0.81603  -0.81477  -0.80595
 Alpha  occ. eigenvalues --   -0.80324  -0.78774  -0.78514  -0.77209  -0.77015
 Alpha  occ. eigenvalues --   -0.76943  -0.76761  -0.75931  -0.75725  -0.74884
 Alpha  occ. eigenvalues --   -0.74643  -0.72766  -0.72558  -0.71668  -0.71450
 Alpha  occ. eigenvalues --   -0.69881  -0.69525  -0.68872  -0.68711  -0.67633
 Alpha  occ. eigenvalues --   -0.67476  -0.67220  -0.67101  -0.65297  -0.65159
 Alpha  occ. eigenvalues --   -0.64857  -0.64631  -0.64622  -0.64525  -0.64254
 Alpha  occ. eigenvalues --   -0.64014  -0.62321  -0.62153  -0.60414  -0.60214
 Alpha  occ. eigenvalues --   -0.59809  -0.59684  -0.58983  -0.58855  -0.58500
 Alpha  occ. eigenvalues --   -0.58289  -0.57605  -0.57439  -0.57297  -0.57087
 Alpha  occ. eigenvalues --   -0.56301  -0.56074  -0.56007  -0.55778  -0.55498
 Alpha  occ. eigenvalues --   -0.55347  -0.55336  -0.55085  -0.54532  -0.54324
 Alpha  occ. eigenvalues --   -0.53907  -0.53808  -0.53282  -0.53211  -0.53098
 Alpha  occ. eigenvalues --   -0.53025  -0.52925  -0.52781  -0.52724  -0.52576
 Alpha  occ. eigenvalues --   -0.52411  -0.52144  -0.51911  -0.51729  -0.51615
 Alpha  occ. eigenvalues --   -0.51559  -0.51196  -0.51057  -0.50517  -0.50373
 Alpha  occ. eigenvalues --   -0.50006  -0.49891  -0.49867  -0.49693  -0.49503
 Alpha  occ. eigenvalues --   -0.49384  -0.49209  -0.49099  -0.49092  -0.48986
 Alpha  occ. eigenvalues --   -0.48602  -0.48448  -0.48445  -0.48414  -0.48242
 Alpha  occ. eigenvalues --   -0.48216  -0.47683  -0.47469  -0.47281  -0.46995
 Alpha  occ. eigenvalues --   -0.46790  -0.46563  -0.46561  -0.46441  -0.46351
 Alpha  occ. eigenvalues --   -0.46161  -0.46127  -0.45939  -0.45834  -0.45691
 Alpha  occ. eigenvalues --   -0.45183  -0.45052  -0.44583  -0.44484  -0.44405
 Alpha  occ. eigenvalues --   -0.44341  -0.44129  -0.44087  -0.44014  -0.44006
 Alpha  occ. eigenvalues --   -0.43914  -0.43836  -0.43508  -0.43423  -0.43382
 Alpha  occ. eigenvalues --   -0.43262  -0.43023  -0.42819  -0.42767  -0.42731
 Alpha  occ. eigenvalues --   -0.42640  -0.42374  -0.42002  -0.41788  -0.41702
 Alpha  occ. eigenvalues --   -0.41539  -0.41538  -0.41324  -0.41136  -0.40867
 Alpha  occ. eigenvalues --   -0.40864  -0.40783  -0.40627  -0.40565  -0.40556
 Alpha  occ. eigenvalues --   -0.40294  -0.40250  -0.40136  -0.39413  -0.39190
 Alpha  occ. eigenvalues --   -0.38455  -0.38174  -0.37765  -0.37548  -0.37307
 Alpha  occ. eigenvalues --   -0.37272  -0.37103  -0.37074  -0.36748  -0.36654
 Alpha  occ. eigenvalues --   -0.36203  -0.36063  -0.34284  -0.34119  -0.33825
 Alpha  occ. eigenvalues --   -0.33759  -0.33185  -0.33042  -0.31294  -0.31182
 Alpha  occ. eigenvalues --   -0.31029  -0.30844  -0.30040  -0.29839  -0.29432
 Alpha  occ. eigenvalues --   -0.29317  -0.29209  -0.29083  -0.24078  -0.23903
 Alpha  occ. eigenvalues --   -0.21120  -0.20984
 Alpha virt. eigenvalues --   -0.08763  -0.08665  -0.01739  -0.01550  -0.00034
 Alpha virt. eigenvalues --    0.00077   0.02202   0.02337   0.03064   0.03360
 Alpha virt. eigenvalues --    0.04712   0.04850   0.05047   0.05266   0.06153

 Mulliken charges:
               1
     1  Mg   0.837673
     2  C   -0.003550
     3  C   -0.094037
     4  C   -0.045594
     5  C   -0.063915
     6  N   -0.256822
     7  C   -0.052852
     8  C   -0.013866
     9  C   -0.086996
    10  C    0.046200
    11  C    0.104769
    12  C    0.053430
    13  C   -0.071751
    14  H    0.035563
    15  N   -0.433289
    16  C    0.168485
    17  C   -0.176789
    18  C   -0.003555
    19  C    0.148778
    20  C    0.110054
    21  C    0.012923
    22  O   -0.249342
    23  C    0.062128
    24  N   -0.341098
    25  C    0.041261
    26  C   -0.028272
    27  C   -0.023953
    28  C    0.074656
    29  C    0.076131
    30  C    0.035083
    31  C   -0.004528
    32  N   -0.310300
    33  C    0.079877
    34  C   -0.170034
    35  C    0.008212
    36  C    0.082310
    37  C    0.127399
    38  C    0.045615
    39  O   -0.188676
    40  C   -0.005113
    41  C    0.213132
    42  O   -0.258413
    43  O   -0.304499
    44  C    0.157791
    45  H   -0.017433
    46  H   -0.016489
    47  H   -0.041364
    48  H    0.000946
    49  H   -0.003918
    50  H    0.025495
    51  H    0.016588
    52  H    0.016768
    53  H    0.011176
    54  H    0.043157
    55  H    0.018127
    56  H    0.018285
    57  H    0.005781
    58  H    0.026908
    59  H    0.040623
    60  H    0.037013
    61  H    0.036071
    62  H    0.032824
    63  H    0.016924
    64  H    0.009516
    65  H    0.023425
    66  H    0.012497
    67  H    0.004811
    68  H    0.006666
    69  H    0.004784
    70  H    0.009318
    71  H    0.018395
    72  H    0.028199
    73  H    0.047277
    74  H    0.009268
    75  H    0.046093
    76  H    0.035305
    77  H    0.043214
    78  H    0.046511
    79  H    0.052999
    80  Mg   0.837688
    81  C   -0.017066
    82  C   -0.088120
    83  C   -0.045501
    84  C   -0.064814
    85  N   -0.254580
    86  C   -0.049882
    87  C   -0.015071
    88  C   -0.090453
    89  C    0.045678
    90  C    0.114473
    91  C    0.062572
    92  C   -0.077741
    93  H    0.034651
    94  N   -0.423386
    95  C    0.162773
    96  C   -0.174991
    97  C   -0.008128
    98  C    0.152065
    99  C    0.099504
   100  C    0.015417
   101  O   -0.253855
   102  C    0.061317
   103  N   -0.350120
   104  C    0.037524
   105  C   -0.019782
   106  C   -0.035676
   107  C    0.088816
   108  C    0.074128
   109  C    0.034873
   110  C   -0.008043
   111  N   -0.324170
   112  C    0.078620
   113  C   -0.162721
   114  C    0.002143
   115  C    0.096337
   116  C    0.131235
   117  C    0.042450
   118  O   -0.187912
   119  C    0.000900
   120  C    0.211204
   121  O   -0.251039
   122  O   -0.305659
   123  C    0.152099
   124  H   -0.020136
   125  H   -0.016087
   126  H   -0.038641
   127  H   -0.000817
   128  H   -0.004599
   129  H    0.022362
   130  H    0.014359
   131  H    0.015921
   132  H    0.013898
   133  H    0.037678
   134  H    0.020674
   135  H    0.019441
   136  H    0.008544
   137  H    0.025586
   138  H    0.039456
   139  H    0.037955
   140  H    0.035665
   141  H    0.034029
   142  H    0.014146
   143  H    0.013906
   144  H    0.024121
   145  H    0.010617
   146  H    0.006562
   147  H    0.008824
   148  H    0.006771
   149  H    0.009882
   150  H    0.018823
   151  H    0.028728
   152  H    0.046048
   153  H    0.010169
   154  H    0.046905
   155  H    0.034817
   156  H    0.043778
   157  H    0.049354
   158  H    0.053519
 Sum of Mulliken charges =  -0.00000

 Dipole moment (field-independent basis, Debye):
    X=              0.5535    Y=              6.6482    Z=             -4.3823  Tot=              7.9819
 Quadrupole moment (field-independent basis, Debye-Ang):
   XX=           -433.4256   YY=           -543.8928   ZZ=           -482.2567
   XY=            -29.1418   XZ=             -1.9437   YZ=             -7.5310

 Normal termination of Gaussian 16 at Sat Sep 11 03:28:13 2021.
