 Gaussian 16, Revision A.03,
 Gaussian 16:  ES64L-G16RevA.03 25-Dec-2016

 -----------------------------------
 #p cam-b3lyp/Def2SVP td=(nstates=5)
 -----------------------------------

 --------------------------------
 TDDFT excited states in gaussian
 --------------------------------
 Symbolic Z-matrix:
 Charge =  0 Multiplicity = 1

                         Standard orientation:
 ---------------------------------------------------------------------
 Center     Atomic      Atomic             Coordinates (Angstroms)
 Number     Number       Type             X           Y           Z
 ---------------------------------------------------------------------
      1         12           0        7.988392    0.789568    0.655560
      2          6           0        8.463609   -2.603701   -0.379867
      3          6           0        9.148727    1.731643   -2.411879
      4          6           0        8.008044    3.782834    1.702744
      5          6           0        7.959463   -0.372163    3.941166
      6          7           0        8.684921   -0.380567   -1.089798
      7          6           0        8.760983   -1.675565   -1.380256
      8          6           0        9.113871   -1.954478   -2.871916
      9          6           0        9.842945   -0.579811   -3.219396
     10          6           0        9.160681    0.320317   -2.204403
     11          6           0       11.341091   -0.595432   -2.933360
     12          6           0        7.838332   -2.165690   -3.755160
     13          6           0        8.095492   -2.761168   -5.142471
     14          1           0        7.115690   -3.679389   -5.703010
     15          7           0        8.032290    2.495092   -0.340488
     16          6           0        8.526353    2.692869   -1.586310
     17          6           0        8.328230    4.128513   -1.880173
     18          6           0        7.852353    4.787015   -0.631970
     19          6           0        7.971779    3.705747    0.312475
     20          6           0        8.538200    4.727265   -3.237066
     21          6           0        7.376921    6.174052   -0.334944
     22          8           0        7.230699    6.601420    0.861112
     23          6           0        7.168775    7.059651   -1.494871
     24          7           0        8.203824    1.628070    2.555070
     25          6           0        8.115785    2.949835    2.739928
     26          6           0        8.017463    3.292023    4.197041
     27          6           0        7.811220    1.906507    4.963567
     28          6           0        7.914636    0.948441    3.751261
     29          6           0        9.223268    4.030859    4.793839
     30          6           0        6.574733    1.792777    5.890166
     31          6           0        5.309202    1.818010    5.062584
     32          7           0        7.997700   -1.148962    1.631807
     33          6           0        8.005266   -1.397941    3.011889
     34          6           0        8.121039   -2.857402    3.186923
     35          6           0        8.189916   -3.357964    1.888255
     36          6           0        8.147934   -2.277508    0.961355
     37          6           0        8.208881   -3.543232    4.430449
     38          6           0        8.314019   -4.552419    1.068662
     39          8           0        8.298386   -5.763565    1.293102
     40          6           0        8.618850   -4.103396   -0.428430
     41          6           0        7.697164   -4.876840   -1.331529
     42          8           0        6.464510   -4.683984   -1.304378
     43          8           0        8.423058   -5.542233   -2.243051
     44          6           0        7.567564   -6.307149   -3.189195
     45          1           0        9.715305    2.147105   -3.247535
     46          1           0        7.905099    4.792436    2.105911
     47          1           0        7.871697   -0.813985    4.935421
     48          1           0        9.797889   -2.788698   -3.028822
     49          1           0        9.620011   -0.245673   -4.232497
     50          1           0       11.638414   -1.507476   -2.415966
     51          1           0       11.526620    0.276214   -2.305423
     52          1           0       11.911792   -0.432737   -3.848022
     53          1           0        7.434920   -1.194577   -4.041968
     54          1           0        7.103043   -2.777189   -3.230999
     55          1           0        9.098845   -3.181628   -5.215993
     56          1           0        8.088181   -1.948993   -5.869464
     57          1           0        9.045551    4.033865   -3.906646
     58          1           0        9.240962    5.551407   -3.116144
     59          1           0        7.608950    5.097147   -3.670673
     60          1           0        8.104602    7.157411   -2.045525
     61          1           0        6.743707    7.980682   -1.097545
     62          1           0        6.459929    6.588297   -2.176277
     63          1           0        7.161919    3.937905    4.390190
     64          1           0        8.653559    1.669554    5.613946
     65          1           0        8.967644    4.985090    5.255146
     66          1           0        9.961812    4.163816    4.003797
     67          1           0        9.791505    3.460148    5.527878
     68          1           0        6.530624    2.643228    6.569676
     69          1           0        6.571470    0.885259    6.494030
     70          1           0        5.136254    2.883398    4.914700
     71          1           0        4.485743    1.361487    5.612779
     72          1           0        5.467470    1.374053    4.079558
     73          1           0        7.556054   -4.411983    4.346439
     74          1           0        7.909472   -2.901356    5.258671
     75          1           0        9.271266   -3.785495    4.452833
     76          1           0        9.666619   -4.334536   -0.617840
     77          1           0        7.895052   -7.346112   -3.149925
     78          1           0        7.629875   -5.792901   -4.148398
     79          1           0        6.517710   -6.411724   -2.913135
     80         12           0       -7.777756    0.044708   -1.004712
     81          6           0       -9.135153   -1.085992    2.119081
     82          6           0       -9.600757    2.898106   -0.593082
     83          6           0       -6.957636    0.876008   -3.954929
     84          6           0       -6.996295   -3.277833   -1.708811
     85          7           0       -9.152041    0.704261    0.597978
     86          6           0       -9.543025    0.217240    1.766011
     87          6           0      -10.354601    1.212058    2.638489
     88          6           0      -10.904505    2.164760    1.468521
     89          6           0       -9.803244    1.941941    0.433983
     90          6           0      -12.220565    1.690522    0.874859
     91          6           0       -9.446702    2.003185    3.644400
     92          6           0      -10.205362    2.762237    4.735287
     93          1           0       -9.607287    2.853063    6.064391
     94          7           0       -7.809789    1.818033   -1.895134
     95          6           0       -8.596240    2.870066   -1.585300
     96          6           0       -8.251068    3.927680   -2.547839
     97          6           0       -7.314559    3.358292   -3.554543
     98          6           0       -7.341222    1.959230   -3.177715
     99          6           0       -8.734655    5.342167   -2.410691
    100          6           0       -6.535170    3.969513   -4.679338
    101          8           0       -5.969379    3.249185   -5.575909
    102          6           0       -6.532125    5.437864   -4.752851
    103          7           0       -7.271078   -1.059943   -2.691531
    104          6           0       -6.904539   -0.450462   -3.832626
    105          6           0       -6.322699   -1.437905   -4.815893
    106          6           0       -6.151213   -2.804023   -4.002319
    107          6           0       -6.773811   -2.376166   -2.655207
    108          6           0       -7.154986   -1.694944   -6.071929
    109          6           0       -4.736075   -3.444314   -3.992350
    110          6           0       -3.778260   -2.567382   -3.218433
    111          7           0       -7.839521   -1.828910    0.069440
    112          6           0       -7.491139   -3.105955   -0.422351
    113          6           0       -7.808972   -4.082902    0.639246
    114          6           0       -8.345877   -3.302819    1.674473
    115          6           0       -8.380245   -1.938668    1.277761
    116          6           0       -7.639259   -5.493323    0.549723
    117          6           0       -8.901202   -3.324534    3.008581
    118          8           0       -9.041586   -4.184497    3.877194
    119          6           0       -9.554033   -1.906456    3.307355
    120          6           0       -9.090401   -1.458744    4.666441
    121          8           0       -7.890866   -1.203398    4.872634
    122          8           0      -10.163973   -1.197740    5.434357
    123          6           0       -9.755339   -0.739508    6.788934
    124          1           0      -10.302705    3.728460   -0.674629
    125          1           0       -6.561814    1.121376   -4.943154
    126          1           0       -6.691383   -4.321270   -1.813370
    127          1           0      -11.183369    0.770716    3.178989
    128          1           0      -10.926820    3.204729    1.783700
    129          1           0      -12.510200    0.723410    1.258209
    130          1           0      -12.060220    1.641198   -0.194209
    131          1           0      -12.997163    2.445229    1.028635
    132          1           0       -8.980091    2.846213    3.118750
    133          1           0       -8.720763    1.353999    4.094062
    134          1           0      -11.252768    2.444649    4.806066
    135          1           0      -10.263326    3.815205    4.449085
    136          1           0       -9.539057    5.422151   -1.669117
    137          1           0       -9.212166    5.610235   -3.359366
    138          1           0       -7.924486    6.046826   -2.211305
    139          1           0       -7.554715    5.797184   -4.840350
    140          1           0       -5.850088    5.688254   -5.567723
    141          1           0       -6.138730    5.834540   -3.810247
    142          1           0       -5.350094   -1.110939   -5.162645
    143          1           0       -6.792316   -3.601649   -4.405578
    144          1           0       -6.603767   -1.492863   -7.009690
    145          1           0       -8.049596   -1.088849   -6.018545
    146          1           0       -7.562247   -2.700870   -6.158217
    147          1           0       -4.343170   -3.510501   -5.009891
    148          1           0       -4.717825   -4.445286   -3.574349
    149          1           0       -3.475160   -1.820286   -3.958070
    150          1           0       -2.925384   -3.146240   -2.869768
    151          1           0       -4.295005   -2.038981   -2.408853
    152          1           0       -7.209056   -5.815367    1.488724
    153          1           0       -7.006174   -5.764947   -0.292423
    154          1           0       -8.676418   -5.805527    0.401064
    155          1           0      -10.636969   -2.028664    3.263951
    156          1           0      -10.239896   -1.404242    7.510751
    157          1           0      -10.021625    0.333232    6.834370
    158          1           0       -8.713094   -0.853195    7.063250
 ---------------------------------------------------------------------

 SCF Done:  E(RCAM-B3LYP) =  -4069.81174796     A.U. after   19 cycles

 Excitation energies and oscillator strengths:

 Excited State   1:      Singlet-A      1.6698 eV  742.52 nm  f=0.0188  <S**2>=0.000
     309 -> 315       -0.10349
     310 -> 316        0.13788
     311 -> 313        0.54999
     312 -> 314       -0.41060
 This state for optimization and/or second-order correction.
 Total Energy, E(TD-HF/TD-DFT) =  -4069.75038492
 Copying the excited state density for this state as the 1-particle RhoCI density.

 Excited State   2:      Singlet-A      1.6850 eV  735.80 nm  f=0.7389  <S**2>=0.000
     309 -> 315        0.14173
     310 -> 316        0.10524
     311 -> 313        0.41009
     312 -> 314        0.54918

 Excited State   3:      Singlet-A      2.1854 eV  567.33 nm  f=0.0679  <S**2>=0.000
     309 -> 314        0.11728
     310 -> 313        0.63190
     311 -> 316       -0.26812

 Excited State   4:      Singlet-A      2.1926 eV  565.46 nm  f=0.1273  <S**2>=0.000
     309 -> 314        0.63001
     310 -> 313       -0.11643
     312 -> 315       -0.27367

 Excited State   5:      Singlet-A      2.8039 eV  442.19 nm  f=0.0000  <S**2>=0.000
     312 -> 313        0.70710

 The electronic state is 1-A.
 Alpha  occ. eigenvalues --  -46.87699 -46.87592 -19.26287 -19.26206 -19.19093
 Alpha  occ. eigenvalues --  -19.18936 -19.18728 -19.18667 -19.18076 -19.17983
 Alpha  occ. eigenvalues --  -14.42432 -14.42356 -14.41353 -14.41290 -14.39307
 Alpha  occ. eigenvalues --  -14.39286 -14.38530 -14.38489 -10.39024 -10.38996
 Alpha  occ. eigenvalues --  -10.35362 -10.35347 -10.34297 -10.34160 -10.31698
 Alpha  occ. eigenvalues --  -10.31610 -10.31311 -10.31241 -10.30963 -10.30818
 Alpha  occ. eigenvalues --  -10.30473 -10.30410 -10.30329 -10.30290 -10.30110
 Alpha  occ. eigenvalues --  -10.30073 -10.29823 -10.29823 -10.29535 -10.29372
 Alpha  occ. eigenvalues --  -10.29334 -10.29159 -10.28665 -10.28662 -10.28603
 Alpha  occ. eigenvalues --  -10.28464 -10.28340 -10.28271 -10.28084 -10.28031
 Alpha  occ. eigenvalues --  -10.27934 -10.27697 -10.27633 -10.27605 -10.27490
 Alpha  occ. eigenvalues --  -10.27436 -10.27418 -10.27417 -10.27403 -10.27398
 Alpha  occ. eigenvalues --  -10.27392 -10.27352 -10.27310 -10.27305 -10.27070
 Alpha  occ. eigenvalues --  -10.26986 -10.26636 -10.26622 -10.26384 -10.26330
 Alpha  occ. eigenvalues --  -10.26154 -10.26065 -10.26027 -10.25975 -10.25920
 Alpha  occ. eigenvalues --  -10.25860 -10.25763 -10.25737 -10.25348 -10.25343
 Alpha  occ. eigenvalues --  -10.24805 -10.24737 -10.24693 -10.24624 -10.24592
 Alpha  occ. eigenvalues --  -10.24553  -3.16442  -3.16341  -1.91324  -1.91224
 Alpha  occ. eigenvalues --   -1.90910  -1.90812  -1.90752  -1.90649  -1.16580
 Alpha  occ. eigenvalues --   -1.16554  -1.08590  -1.08534  -1.07130  -1.06921
 Alpha  occ. eigenvalues --   -1.06879  -1.06559  -1.04487  -1.04430  -1.03664
 Alpha  occ. eigenvalues --   -1.03596  -1.03137  -1.02970  -1.02315  -1.02043
 Alpha  occ. eigenvalues --   -0.91921  -0.91879  -0.89417  -0.89416  -0.89101
 Alpha  occ. eigenvalues --   -0.89092  -0.88187  -0.88143  -0.87771  -0.87720
 Alpha  occ. eigenvalues --   -0.87618  -0.87580  -0.87182  -0.87065  -0.84940
 Alpha  occ. eigenvalues --   -0.84894  -0.83834  -0.83794  -0.82877  -0.82876
 Alpha  occ. eigenvalues --   -0.82593  -0.82561  -0.81530  -0.81498  -0.80506
 Alpha  occ. eigenvalues --   -0.80379  -0.78703  -0.78573  -0.77123  -0.77078
 Alpha  occ. eigenvalues --   -0.76845  -0.76831  -0.75835  -0.75776  -0.74803
 Alpha  occ. eigenvalues --   -0.74733  -0.72677  -0.72629  -0.71581  -0.71518
 Alpha  occ. eigenvalues --   -0.69798  -0.69665  -0.68784  -0.68766  -0.67549
 Alpha  occ. eigenvalues --   -0.67538  -0.67144  -0.67134  -0.65209  -0.65197
 Alpha  occ. eigenvalues --   -0.64761  -0.64701  -0.64588  -0.64529  -0.64169
 Alpha  occ. eigenvalues --   -0.64126  -0.62211  -0.62211  -0.60349  -0.60279
 Alpha  occ. eigenvalues --   -0.59735  -0.59715  -0.58925  -0.58893  -0.58410
 Alpha  occ. eigenvalues --   -0.58358  -0.57494  -0.57487  -0.57214  -0.57168
 Alpha  occ. eigenvalues --   -0.56216  -0.56138  -0.55896  -0.55824  -0.55430
 Alpha  occ. eigenvalues --   -0.55394  -0.55243  -0.55173  -0.54430  -0.54412
 Alpha  occ. eigenvalues --   -0.53854  -0.53808  -0.53205  -0.53162  -0.53134
 Alpha  occ. eigenvalues --   -0.53081  -0.52837  -0.52824  -0.52669  -0.52619
 Alpha  occ. eigenvalues --   -0.52327  -0.52301  -0.51814  -0.51805  -0.51602
 Alpha  occ. eigenvalues --   -0.51530  -0.51129  -0.51101  -0.50484  -0.50424
 Alpha  occ. eigenvalues --   -0.49931  -0.49920  -0.49829  -0.49794  -0.49432
 Alpha  occ. eigenvalues --   -0.49427  -0.49142  -0.49123  -0.49042  -0.49009
 Alpha  occ. eigenvalues --   -0.48503  -0.48495  -0.48368  -0.48356  -0.48307
 Alpha  occ. eigenvalues --   -0.48286  -0.47604  -0.47532  -0.47206  -0.47058
 Alpha  occ. eigenvalues --   -0.46700  -0.46638  -0.46495  -0.46469  -0.46263
 Alpha  occ. eigenvalues --   -0.46201  -0.46068  -0.46016  -0.45752  -0.45730
 Alpha  occ. eigenvalues --   -0.45138  -0.45105  -0.44486  -0.44452  -0.44415
 Alpha  occ. eigenvalues --   -0.44409  -0.44065  -0.44047  -0.44001  -0.44000
 Alpha  occ. eigenvalues --   -0.43929  -0.43883  -0.43483  -0.43405  -0.43322
 Alpha  occ. eigenvalues --   -0.43294  -0.42934  -0.42865  -0.42833  -0.42612
 Alpha  occ. eigenvalues --   -0.42554  -0.42475  -0.41909  -0.41882  -0.41611
 Alpha  occ. eigenvalues --   -0.41602  -0.41445  -0.41392  -0.41050  -0.40927
 Alpha  occ. eigenvalues --   -0.40777  -0.40736  -0.40670  -0.40635  -0.40472
 Alpha  occ. eigenvalues --   -0.40415  -0.40173  -0.40150  -0.39329  -0.39328
 Alpha  occ. eigenvalues --   -0.38371  -0.38278  -0.37662  -0.37594  -0.37222
 Alpha  occ. eigenvalues --   -0.37193  -0.37174  -0.37137  -0.36704  -0.36626
 Alpha  occ. eigenvalues --   -0.36147  -0.36101  -0.34190  -0.34185  -0.33794
 Alpha  occ. eigenvalues --   -0.33684  -0.33108  -0.33091  -0.31258  -0.31226
 Alpha  occ. eigenvalues --   -0.30942  -0.30908  -0.29936  -0.29887  -0.29355
 Alpha  occ. eigenvalues --   -0.29265  -0.29225  -0.29142  -0.23985  -0.23968
 Alpha  occ. eigenvalues --   -0.21050  -0.21032
 Alpha virt. eigenvalues --   -0.08726  -0.08679  -0.01654  -0.01618   0.00028
 Alpha virt. eigenvalues --    0.00033   0.02276   0.02296   0.03234   0.03312
 Alpha virt. eigenvalues --    0.04792   0.04808   0.05183   0.05231   0.06238

 Mulliken charges:
               1
     1  Mg   0.838979
     2  C   -0.002997
     3  C   -0.094141
     4  C   -0.045836
     5  C   -0.063882
     6  N   -0.256756
     7  C   -0.052469
     8  C   -0.014032
     9  C   -0.087004
    10  C    0.046336
    11  C    0.104845
    12  C    0.053460
    13  C   -0.071688
    14  H    0.035860
    15  N   -0.433094
    16  C    0.168460
    17  C   -0.177192
    18  C   -0.004042
    19  C    0.148722
    20  C    0.110201
    21  C    0.012292
    22  O   -0.249778
    23  C    0.062466
    24  N   -0.341190
    25  C    0.041261
    26  C   -0.028117
    27  C   -0.024043
    28  C    0.074977
    29  C    0.076242
    30  C    0.035095
    31  C   -0.004555
    32  N   -0.310509
    33  C    0.080539
    34  C   -0.169468
    35  C    0.008341
    36  C    0.083124
    37  C    0.127251
    38  C    0.046211
    39  O   -0.188437
    40  C   -0.005377
    41  C    0.212869
    42  O   -0.257018
    43  O   -0.304818
    44  C    0.157759
    45  H   -0.017754
    46  H   -0.016954
    47  H   -0.041327
    48  H    0.000825
    49  H   -0.004081
    50  H    0.025406
    51  H    0.016422
    52  H    0.016514
    53  H    0.011358
    54  H    0.044133
    55  H    0.017777
    56  H    0.017980
    57  H    0.005813
    58  H    0.026619
    59  H    0.039627
    60  H    0.037235
    61  H    0.035391
    62  H    0.031671
    63  H    0.016570
    64  H    0.009355
    65  H    0.023055
    66  H    0.012408
    67  H    0.004671
    68  H    0.006226
    69  H    0.004908
    70  H    0.008616
    71  H    0.018854
    72  H    0.029046
    73  H    0.047840
    74  H    0.009330
    75  H    0.045850
    76  H    0.035029
    77  H    0.042848
    78  H    0.046309
    79  H    0.053578
    80  Mg   0.838074
    81  C   -0.016841
    82  C   -0.087855
    83  C   -0.045514
    84  C   -0.064724
    85  N   -0.254552
    86  C   -0.049810
    87  C   -0.015102
    88  C   -0.090520
    89  C    0.045737
    90  C    0.114422
    91  C    0.062550
    92  C   -0.077837
    93  H    0.034856
    94  N   -0.423401
    95  C    0.162870
    96  C   -0.174756
    97  C   -0.007956
    98  C    0.152127
    99  C    0.099421
   100  C    0.015495
   101  O   -0.253486
   102  C    0.061242
   103  N   -0.350119
   104  C    0.037545
   105  C   -0.019738
   106  C   -0.034897
   107  C    0.089096
   108  C    0.073774
   109  C    0.034688
   110  C   -0.007829
   111  N   -0.324200
   112  C    0.078690
   113  C   -0.162730
   114  C    0.002242
   115  C    0.096420
   116  C    0.131384
   117  C    0.042547
   118  O   -0.187737
   119  C    0.000850
   120  C    0.211267
   121  O   -0.250807
   122  O   -0.305713
   123  C    0.152041
   124  H   -0.019874
   125  H   -0.015809
   126  H   -0.040097
   127  H   -0.000726
   128  H   -0.004417
   129  H    0.022399
   130  H    0.014369
   131  H    0.016115
   132  H    0.013967
   133  H    0.037792
   134  H    0.020686
   135  H    0.019517
   136  H    0.008682
   137  H    0.025880
   138  H    0.039670
   139  H    0.038164
   140  H    0.035945
   141  H    0.033955
   142  H    0.014355
   143  H    0.012278
   144  H    0.024816
   145  H    0.011443
   146  H    0.005586
   147  H    0.006005
   148  H    0.004070
   149  H    0.010510
   150  H    0.019563
   151  H    0.030029
   152  H    0.046445
   153  H    0.008942
   154  H    0.046749
   155  H    0.034886
   156  H    0.043840
   157  H    0.049384
   158  H    0.053663
 Sum of Mulliken charges =  -0.00000

 Dipole moment (field-independent basis, Debye):
    X=             -0.2077    Y=              6.1151    Z=             -4.1581  Tot=              7.3978
 Quadrupole moment (field-independent basis, Debye-Ang):
   XX=           -434.6858   YY=           -525.1292   ZZ=           -483.7185
   XY=            -23.5337   XZ=            -24.0848   YZ=             28.5988

 Normal termination of Gaussian 16 at Sat Sep 11 21:25:06 2021.
