 Gaussian 16, Revision A.03,
 Gaussian 16:  ES64L-G16RevA.03 25-Dec-2016

 -----------------------------------
 #p cam-b3lyp/Def2SVP td=(nstates=5)
 -----------------------------------

 --------------------------------
 TDDFT excited states in gaussian
 --------------------------------
 Symbolic Z-matrix:
 Charge =  0 Multiplicity = 1

                         Standard orientation:
 ---------------------------------------------------------------------
 Center     Atomic      Atomic             Coordinates (Angstroms)
 Number     Number       Type             X           Y           Z
 ---------------------------------------------------------------------
      1         12           0       -6.587181   -0.647564   -0.457127
      2          6           0       -6.959968    1.926967    2.001538
      3          6           0       -7.302755    1.709722   -2.818106
      4          6           0       -6.711372   -2.984947   -2.596715
      5          6           0       -7.025029   -2.960637    2.112628
      6          7           0       -7.052593    1.511252   -0.303654
      7          6           0       -7.104953    2.390471    0.692038
      8          6           0       -7.253212    3.863933    0.207990
      9          6           0       -7.909616    3.594986   -1.219875
     10          6           0       -7.361537    2.203077   -1.480879
     11          6           0       -9.432927    3.524802   -1.186686
     12          6           0       -5.871309    4.588260    0.075979
     13          6           0       -5.943227    6.110720   -0.073350
     14          1           0       -4.907799    6.924726    0.545221
     15          7           0       -6.471552   -0.587486   -2.428388
     16          6           0       -6.787175    0.460641   -3.226572
     17          6           0       -6.531820    0.009653   -4.611521
     18          6           0       -6.223346   -1.446674   -4.566247
     19          6           0       -6.485491   -1.740659   -3.180523
     20          6           0       -6.545570    0.930879   -5.792581
     21          6           0       -5.775136   -2.421257   -5.609045
     22          8           0       -5.789020   -3.684175   -5.410500
     23          6           0       -5.398076   -1.856354   -6.917384
     24          7           0       -7.050516   -2.678136   -0.316662
     25          6           0       -6.971439   -3.479453   -1.384661
     26          6           0       -7.069738   -4.923801   -0.992059
     27          6           0       -6.988865   -4.954994    0.602381
     28          6           0       -6.937287   -3.429823    0.865939
     29          6           0       -8.336331   -5.657994   -1.453266
     30          6           0       -5.892973   -5.850040    1.233516
     31          6           0       -4.525538   -5.285798    0.919109
     32          7           0       -6.755833   -0.573208    1.705527
     33          6           0       -6.956151   -1.656462    2.573344
     34          6           0       -7.113933   -1.099989    3.929629
     35          6           0       -7.010304    0.278391    3.753069
     36          6           0       -6.827283    0.566345    2.370362
     37          6           0       -7.380711   -1.846773    5.110975
     38          6           0       -7.036248    1.576355    4.407648
     39          8           0       -7.067422    1.956333    5.579031
     40          6           0       -7.126652    2.702020    3.284914
     41          6           0       -6.099837    3.752226    3.610533
     42          8           0       -4.880184    3.495381    3.548558
     43          8           0       -6.702274    4.947051    3.710561
     44          6           0       -5.734995    6.038292    4.003337
     45          1           0       -7.743697    2.304902   -3.620149
     46          1           0       -6.651599   -3.829425   -3.286441
     47          1           0       -7.080450   -3.626613    2.975679
     48          1           0       -7.920036    4.476755    0.814800
     49          1           0       -7.545287    4.293122   -1.973262
     50          1           0       -9.810395    3.542727   -0.164376
     51          1           0       -9.691546    2.583247   -1.671539
     52          1           0       -9.870403    4.309813   -1.804059
     53          1           0       -5.419669    4.329052   -0.881566
     54          1           0       -5.223045    4.338688    0.916689
     55          1           0       -6.932378    6.490210    0.184481
     56          1           0       -5.825511    6.356314   -1.128824
     57          1           0       -6.965155    1.903148   -5.537263
     58          1           0       -7.247451    0.513127   -6.514077
     59          1           0       -5.560815    1.025981   -6.250341
     60          1           0       -6.248035   -1.315803   -7.334425
     61          1           0       -5.019616   -2.690429   -7.507247
     62          1           0       -4.608572   -1.118991   -6.769307
     63          1           0       -6.240468   -5.498079   -1.403084
     64          1           0       -7.915581   -5.312354    1.052010
     65          1           0       -8.134049   -6.544243   -2.055222
     66          1           0       -8.957551   -4.948189   -1.998749
     67          1           0       -9.007420   -5.960567   -0.649832
     68          1           0       -5.931510   -6.852753    0.809219
     69          1           0       -5.984548   -5.944079    2.315653
     70          1           0       -4.320008   -5.684620   -0.073630
     71          1           0       -3.791498   -5.642043    1.642633
     72          1           0       -4.553063   -4.199259    0.834485
     73          1           0       -6.733941   -1.434205    5.885214
     74          1           0       -7.189544   -2.908918    4.959626
     75          1           0       -8.439175   -1.629056    5.252780
     76          1           0       -8.141401    3.097349    3.318381
     77          1           0       -6.078322    6.536889    4.909847
     78          1           0       -5.658231    6.636276    3.095081
     79          1           0       -4.734470    5.727247    4.305891
     80         12           0        6.603674   -0.637030    0.453867
     81          6           0        6.899779    1.960788   -2.004337
     82          6           0        7.393610    1.703877    2.805627
     83          6           0        6.793258   -2.982959    2.581794
     84          6           0        6.967717   -2.939147   -2.137161
     85          7           0        7.064759    1.520557    0.297404
     86          6           0        7.086692    2.412685   -0.681353
     87          6           0        7.242319    3.882877   -0.208198
     88          6           0        7.950424    3.606556    1.206402
     89          6           0        7.412905    2.203144    1.478804
     90          6           0        9.465381    3.528568    1.116019
     91          6           0        5.859586    4.602221   -0.027614
     92          6           0        5.941313    6.121938    0.132228
     93          1           0        4.880081    6.940812   -0.447180
     94          7           0        6.546548   -0.579958    2.436800
     95          6           0        6.879855    0.459075    3.230894
     96          6           0        6.684288   -0.010585    4.611237
     97          6           0        6.366282   -1.463865    4.571635
     98          6           0        6.581532   -1.742588    3.165902
     99          6           0        6.725927    0.908801    5.797172
    100          6           0        5.951164   -2.443730    5.626972
    101          8           0        5.958653   -3.707421    5.412834
    102          6           0        5.625180   -1.885985    6.947628
    103          7           0        7.056230   -2.659284    0.286486
    104          6           0        7.016606   -3.467744    1.360151
    105          6           0        7.106599   -4.919295    0.953585
    106          6           0        6.970930   -4.928355   -0.639867
    107          6           0        6.912930   -3.406634   -0.897554
    108          6           0        8.389079   -5.645413    1.359032
    109          6           0        5.855855   -5.823719   -1.246171
    110          6           0        4.496170   -5.273731   -0.879936
    111          7           0        6.698772   -0.549249   -1.702830
    112          6           0        6.879842   -1.630115   -2.593344
    113          6           0        6.994053   -1.060656   -3.951693
    114          6           0        6.893762    0.324614   -3.753014
    115          6           0        6.748948    0.600320   -2.366476
    116          6           0        7.213783   -1.800101   -5.147956
    117          6           0        6.888130    1.616981   -4.399891
    118          8           0        6.889137    2.003835   -5.567836
    119          6           0        7.018702    2.741251   -3.283932
    120          6           0        5.980846    3.794014   -3.561520
    121          8           0        4.769615    3.526503   -3.472333
    122          8           0        6.585815    4.990694   -3.672598
    123          6           0        5.596301    6.068960   -3.937224
    124          1           0        7.853180    2.303068    3.592162
    125          1           0        6.756472   -3.836951    3.262104
    126          1           0        6.984588   -3.596816   -3.008867
    127          1           0        7.882978    4.495237   -0.831374
    128          1           0        7.601831    4.302309    1.965196
    129          1           0        9.809801    3.554367    0.092863
    130          1           0        9.740202    2.592459    1.584242
    131          1           0        9.920321    4.315078    1.724914
    132          1           0        5.440791    4.332682    0.950499
    133          1           0        5.195328    4.358890   -0.833942
    134          1           0        6.926240    6.513660   -0.149550
    135          1           0        5.850022    6.364626    1.193725
    136          1           0        7.143697    1.887998    5.532550
    137          1           0        7.449001    0.486913    6.503588
    138          1           0        5.757713    0.999238    6.294220
    139          1           0        6.486179   -1.345776    7.334032
    140          1           0        5.265564   -2.729337    7.540352
    141          1           0        4.820570   -1.151812    6.828431
    142          1           0        6.291141   -5.491304    1.378954
    143          1           0        7.887794   -5.294474   -1.124792
    144          1           0        8.204615   -6.547408    1.972589
    145          1           0        9.023163   -4.947680    1.889718
    146          1           0        9.026362   -5.953771    0.531998
    147          1           0        5.907333   -6.830470   -0.824332
    148          1           0        5.920110   -5.922766   -2.324622
    149          1           0        4.327737   -5.679161    0.122234
    150          1           0        3.740064   -5.624082   -1.579652
    151          1           0        4.523819   -4.181315   -0.793223
    152          1           0        6.549563   -1.387329   -5.895569
    153          1           0        7.033135   -2.862424   -4.997549
    154          1           0        8.271656   -1.583853   -5.319384
    155          1           0        8.032050    3.140914   -3.338547
    156          1           0        5.913926    6.576253   -4.853434
    157          1           0        5.560381    6.674993   -3.012456
    158          1           0        4.587988    5.770592   -4.199362
 ---------------------------------------------------------------------

 SCF Done:  E(RCAM-B3LYP) =  -4069.81193999     A.U. after   19 cycles

 Excitation energies and oscillator strengths:

 Excited State   1:      Singlet-A      1.6661 eV  744.14 nm  f=0.0102  <S**2>=0.000
     309 -> 316        0.13244
     310 -> 315        0.10917
     311 -> 313        0.53072
     312 -> 314        0.43562
 This state for optimization and/or second-order correction.
 Total Energy, E(TD-HF/TD-DFT) =  -4069.75071050
 Copying the excited state density for this state as the 1-particle RhoCI density.

 Excited State   2:      Singlet-A      1.6892 eV  733.96 nm  f=0.7350  <S**2>=0.000
     309 -> 316       -0.11244
     310 -> 315        0.13759
     311 -> 313       -0.43475
     312 -> 314        0.52957

 Excited State   3:      Singlet-A      2.1858 eV  567.22 nm  f=0.0431  <S**2>=0.000
     309 -> 313        0.61316
     310 -> 314       -0.19374
     311 -> 316       -0.25984

 Excited State   4:      Singlet-A      2.1937 eV  565.17 nm  f=0.1464  <S**2>=0.000
     309 -> 313        0.19225
     310 -> 314        0.61082
     312 -> 315       -0.26609

 Excited State   5:      Singlet-A      2.7058 eV  458.21 nm  f=0.0000  <S**2>=0.000
     312 -> 313        0.70710

 The electronic state is 1-A.
 Alpha  occ. eigenvalues --  -46.87655 -46.87568 -19.26327 -19.26213 -19.19128
 Alpha  occ. eigenvalues --  -19.18938 -19.18653 -19.18600 -19.18060 -19.17990
 Alpha  occ. eigenvalues --  -14.42407 -14.42312 -14.41312 -14.41271 -14.39258
 Alpha  occ. eigenvalues --  -14.39256 -14.38512 -14.38451 -10.39055 -10.38995
 Alpha  occ. eigenvalues --  -10.35284 -10.35275 -10.34281 -10.34169 -10.31756
 Alpha  occ. eigenvalues --  -10.31631 -10.31276 -10.31228 -10.30931 -10.30769
 Alpha  occ. eigenvalues --  -10.30436 -10.30371 -10.30310 -10.30276 -10.30064
 Alpha  occ. eigenvalues --  -10.30046 -10.29814 -10.29792 -10.29492 -10.29339
 Alpha  occ. eigenvalues --  -10.29310 -10.29109 -10.28640 -10.28623 -10.28586
 Alpha  occ. eigenvalues --  -10.28425 -10.28315 -10.28227 -10.28061 -10.27991
 Alpha  occ. eigenvalues --  -10.27914 -10.27658 -10.27589 -10.27579 -10.27438
 Alpha  occ. eigenvalues --  -10.27435 -10.27399 -10.27372 -10.27370 -10.27338
 Alpha  occ. eigenvalues --  -10.27324 -10.27305 -10.27297 -10.27272 -10.27053
 Alpha  occ. eigenvalues --  -10.26993 -10.26606 -10.26572 -10.26267 -10.26214
 Alpha  occ. eigenvalues --  -10.26121 -10.26054 -10.26052 -10.25958 -10.25883
 Alpha  occ. eigenvalues --  -10.25847 -10.25791 -10.25735 -10.25329 -10.25321
 Alpha  occ. eigenvalues --  -10.24790 -10.24702 -10.24652 -10.24633 -10.24603
 Alpha  occ. eigenvalues --  -10.24545  -3.16398  -3.16317  -1.91279  -1.91199
 Alpha  occ. eigenvalues --   -1.90866  -1.90788  -1.90708  -1.90625  -1.16618
 Alpha  occ. eigenvalues --   -1.16559  -1.08602  -1.08522  -1.07053  -1.06913
 Alpha  occ. eigenvalues --   -1.06851  -1.06561  -1.04444  -1.04406  -1.03623
 Alpha  occ. eigenvalues --   -1.03573  -1.03095  -1.02950  -1.02274  -1.02023
 Alpha  occ. eigenvalues --   -0.91909  -0.91846  -0.89409  -0.89387  -0.89071
 Alpha  occ. eigenvalues --   -0.89061  -0.88156  -0.88137  -0.87744  -0.87717
 Alpha  occ. eigenvalues --   -0.87597  -0.87538  -0.87116  -0.87009  -0.84917
 Alpha  occ. eigenvalues --   -0.84852  -0.83810  -0.83796  -0.82821  -0.82807
 Alpha  occ. eigenvalues --   -0.82564  -0.82517  -0.81539  -0.81481  -0.80470
 Alpha  occ. eigenvalues --   -0.80367  -0.78650  -0.78538  -0.77087  -0.77060
 Alpha  occ. eigenvalues --   -0.76829  -0.76818  -0.75806  -0.75768  -0.74775
 Alpha  occ. eigenvalues --   -0.74727  -0.72642  -0.72615  -0.71546  -0.71503
 Alpha  occ. eigenvalues --   -0.69775  -0.69672  -0.68744  -0.68742  -0.67518
 Alpha  occ. eigenvalues --   -0.67508  -0.67107  -0.67081  -0.65194  -0.65161
 Alpha  occ. eigenvalues --   -0.64731  -0.64692  -0.64580  -0.64497  -0.64139
 Alpha  occ. eigenvalues --   -0.64122  -0.62225  -0.62198  -0.60293  -0.60239
 Alpha  occ. eigenvalues --   -0.59714  -0.59674  -0.58912  -0.58859  -0.58376
 Alpha  occ. eigenvalues --   -0.58348  -0.57497  -0.57477  -0.57179  -0.57152
 Alpha  occ. eigenvalues --   -0.56179  -0.56122  -0.55881  -0.55830  -0.55380
 Alpha  occ. eigenvalues --   -0.55367  -0.55224  -0.55178  -0.54424  -0.54415
 Alpha  occ. eigenvalues --   -0.53832  -0.53768  -0.53163  -0.53141  -0.53085
 Alpha  occ. eigenvalues --   -0.53059  -0.52829  -0.52796  -0.52602  -0.52556
 Alpha  occ. eigenvalues --   -0.52316  -0.52307  -0.51818  -0.51798  -0.51570
 Alpha  occ. eigenvalues --   -0.51482  -0.51129  -0.51075  -0.50399  -0.50354
 Alpha  occ. eigenvalues --   -0.49896  -0.49887  -0.49779  -0.49771  -0.49393
 Alpha  occ. eigenvalues --   -0.49378  -0.49121  -0.49086  -0.49032  -0.48976
 Alpha  occ. eigenvalues --   -0.48491  -0.48479  -0.48339  -0.48304  -0.48300
 Alpha  occ. eigenvalues --   -0.48236  -0.47561  -0.47510  -0.47162  -0.47030
 Alpha  occ. eigenvalues --   -0.46667  -0.46628  -0.46471  -0.46428  -0.46228
 Alpha  occ. eigenvalues --   -0.46187  -0.46043  -0.46014  -0.45763  -0.45716
 Alpha  occ. eigenvalues --   -0.45129  -0.45074  -0.44463  -0.44445  -0.44392
 Alpha  occ. eigenvalues --   -0.44363  -0.44051  -0.44011  -0.43993  -0.43964
 Alpha  occ. eigenvalues --   -0.43886  -0.43844  -0.43499  -0.43389  -0.43309
 Alpha  occ. eigenvalues --   -0.43255  -0.42902  -0.42881  -0.42830  -0.42606
 Alpha  occ. eigenvalues --   -0.42530  -0.42464  -0.41883  -0.41882  -0.41595
 Alpha  occ. eigenvalues --   -0.41579  -0.41406  -0.41377  -0.41014  -0.40911
 Alpha  occ. eigenvalues --   -0.40739  -0.40665  -0.40632  -0.40598  -0.40444
 Alpha  occ. eigenvalues --   -0.40413  -0.40136  -0.40100  -0.39338  -0.39307
 Alpha  occ. eigenvalues --   -0.38340  -0.38268  -0.37622  -0.37575  -0.37188
 Alpha  occ. eigenvalues --   -0.37183  -0.37133  -0.37115  -0.36729  -0.36618
 Alpha  occ. eigenvalues --   -0.36145  -0.36078  -0.34169  -0.34152  -0.33819
 Alpha  occ. eigenvalues --   -0.33678  -0.33090  -0.33054  -0.31185  -0.31161
 Alpha  occ. eigenvalues --   -0.30901  -0.30886  -0.29922  -0.29897  -0.29304
 Alpha  occ. eigenvalues --   -0.29231  -0.29188  -0.29126  -0.23949  -0.23945
 Alpha  occ. eigenvalues --   -0.21027  -0.20990
 Alpha virt. eigenvalues --   -0.08702  -0.08635  -0.01610  -0.01592   0.00071
 Alpha virt. eigenvalues --    0.00090   0.02283   0.02325   0.03298   0.03354
 Alpha virt. eigenvalues --    0.04812   0.04848   0.05187   0.05205   0.06250

 Mulliken charges:
               1
     1  Mg   0.839479
     2  C   -0.002936
     3  C   -0.093734
     4  C   -0.045832
     5  C   -0.063994
     6  N   -0.256798
     7  C   -0.052484
     8  C   -0.014105
     9  C   -0.087100
    10  C    0.046545
    11  C    0.104846
    12  C    0.053345
    13  C   -0.071594
    14  H    0.035508
    15  N   -0.433194
    16  C    0.168820
    17  C   -0.176676
    18  C   -0.003670
    19  C    0.148953
    20  C    0.110099
    21  C    0.012698
    22  O   -0.249817
    23  C    0.062165
    24  N   -0.341183
    25  C    0.041333
    26  C   -0.028149
    27  C   -0.023886
    28  C    0.074782
    29  C    0.076250
    30  C    0.035164
    31  C   -0.004518
    32  N   -0.310365
    33  C    0.080286
    34  C   -0.169947
    35  C    0.008061
    36  C    0.082934
    37  C    0.127386
    38  C    0.045842
    39  O   -0.189269
    40  C   -0.005300
    41  C    0.212711
    42  O   -0.257154
    43  O   -0.304752
    44  C    0.157975
    45  H   -0.017619
    46  H   -0.016895
    47  H   -0.041748
    48  H    0.000546
    49  H   -0.003836
    50  H    0.025258
    51  H    0.016426
    52  H    0.016512
    53  H    0.012122
    54  H    0.044064
    55  H    0.017489
    56  H    0.018276
    57  H    0.005834
    58  H    0.026621
    59  H    0.040887
    60  H    0.037072
    61  H    0.035717
    62  H    0.032873
    63  H    0.016586
    64  H    0.009178
    65  H    0.023066
    66  H    0.012481
    67  H    0.004546
    68  H    0.006080
    69  H    0.004576
    70  H    0.008712
    71  H    0.018313
    72  H    0.029289
    73  H    0.047112
    74  H    0.009054
    75  H    0.045689
    76  H    0.034892
    77  H    0.042456
    78  H    0.046489
    79  H    0.053158
    80  Mg   0.838591
    81  C   -0.016845
    82  C   -0.087468
    83  C   -0.045437
    84  C   -0.064900
    85  N   -0.254605
    86  C   -0.049851
    87  C   -0.015198
    88  C   -0.090610
    89  C    0.045995
    90  C    0.114405
    91  C    0.062411
    92  C   -0.077704
    93  H    0.034309
    94  N   -0.423567
    95  C    0.163386
    96  C   -0.174231
    97  C   -0.007438
    98  C    0.152353
    99  C    0.099309
   100  C    0.015999
   101  O   -0.253309
   102  C    0.060877
   103  N   -0.350088
   104  C    0.037596
   105  C   -0.019812
   106  C   -0.034736
   107  C    0.088852
   108  C    0.073725
   109  C    0.034765
   110  C   -0.007713
   111  N   -0.323992
   112  C    0.078312
   113  C   -0.163368
   114  C    0.001931
   115  C    0.096154
   116  C    0.131566
   117  C    0.042093
   118  O   -0.188726
   119  C    0.000954
   120  C    0.211101
   121  O   -0.251093
   122  O   -0.305575
   123  C    0.152312
   124  H   -0.019646
   125  H   -0.015581
   126  H   -0.040674
   127  H   -0.001018
   128  H   -0.004116
   129  H    0.022252
   130  H    0.014408
   131  H    0.016171
   132  H    0.014818
   133  H    0.037608
   134  H    0.020419
   135  H    0.019936
   136  H    0.008733
   137  H    0.025988
   138  H    0.041068
   139  H    0.038008
   140  H    0.036523
   141  H    0.035191
   142  H    0.014470
   143  H    0.012153
   144  H    0.025041
   145  H    0.011572
   146  H    0.005491
   147  H    0.006023
   148  H    0.003516
   149  H    0.010891
   150  H    0.018143
   151  H    0.030376
   152  H    0.045536
   153  H    0.008486
   154  H    0.046638
   155  H    0.034787
   156  H    0.043426
   157  H    0.049615
   158  H    0.053017
 Sum of Mulliken charges =  -0.00000

 Dipole moment (field-independent basis, Debye):
    X=              0.0747    Y=              3.1137    Z=             -0.2215  Tot=              3.1224
 Quadrupole moment (field-independent basis, Debye-Ang):
   XX=           -470.9276   YY=           -460.7179   ZZ=           -538.8581
   XY=              0.9136   XZ=             50.9622   YZ=              0.4561

 Normal termination of Gaussian 16 at Sat Sep 11 06:53:04 2021.
