 Gaussian 16, Revision A.03,
 Gaussian 16:  ES64L-G16RevA.03 25-Dec-2016

 -----------------------------------
 #p cam-b3lyp/Def2SVP td=(nstates=5)
 -----------------------------------

 --------------------------------
 TDDFT excited states in gaussian
 --------------------------------
 Symbolic Z-matrix:
 Charge =  0 Multiplicity = 1

                         Standard orientation:
 ---------------------------------------------------------------------
 Center     Atomic      Atomic             Coordinates (Angstroms)
 Number     Number       Type             X           Y           Z
 ---------------------------------------------------------------------
      1         12           0       -3.880050    0.571168    0.475622
      2          6           0       -4.215819   -2.584410   -1.180216
      3          6           0       -4.285619   -1.100282    3.422626
      4          6           0       -4.041385    3.387098    1.925150
      5          6           0       -4.632280    2.083906   -2.572563
      6          7           0       -4.200195   -1.570907    0.933518
      7          6           0       -4.249521   -2.686511    0.212294
      8          6           0       -4.264310   -3.981745    1.078046
      9          6           0       -4.851912   -3.374206    2.429940
     10          6           0       -4.388909   -1.936677    2.271624
     11          6           0       -6.375645   -3.395065    2.495564
     12          6           0       -2.829317   -4.570987    1.290928
     13          6           0       -2.784553   -5.999170    1.841967
     14          1           0       -1.732897   -6.894122    1.383244
     15          7           0       -3.643347    1.048269    2.378041
     16          6           0       -3.836116    0.237722    3.446282
     17          6           0       -3.531262    1.056422    4.639378
     18          6           0       -3.329617    2.461247    4.187824
     19          6           0       -3.693874    2.358595    2.797804
     20          6           0       -3.409619    0.486413    6.019248
     21          6           0       -2.890061    3.701872    4.899000
     22          8           0       -3.004866    4.862715    4.375705
     23          6           0       -2.396860    3.529155    6.277391
     24          7           0       -4.493125    2.462573   -0.160271
     25          6           0       -4.407393    3.524034    0.649010
     26          6           0       -4.630610    4.802933   -0.102343
     27          6           0       -4.647185    4.409393   -1.649794
     28          6           0       -4.503837    2.874273   -1.504439
     29          6           0       -5.916176    5.566833    0.243762
     30          6           0       -3.656729    5.158207   -2.576452
     31          6           0       -2.236588    4.771134   -2.229361
     32          7           0       -4.171451   -0.089362   -1.571286
     33          6           0       -4.499043    0.709377   -2.676443
     34          6           0       -4.697588   -0.198010   -3.821561
     35          6           0       -4.486579   -1.471136   -3.295756
     36          6           0       -4.201713   -1.367620   -1.904200
     37          6           0       -5.086261    0.189487   -5.134274
     38          6           0       -4.459736   -2.896648   -3.580451
     39          8           0       -4.533669   -3.578049   -4.604033
     40          6           0       -4.403457   -3.682959   -2.196842
     41          6           0       -3.326265   -4.726973   -2.310872
     42          8           0       -2.126267   -4.399654   -2.412029
     43          8           0       -3.847727   -5.934569   -2.045673
     44          6           0       -2.824964   -7.012350   -2.112753
     45          1           0       -4.634920   -1.480629    4.384534
     46          1           0       -4.000435    4.387584    2.360796
     47          1           0       -4.785851    2.490092   -3.574003
     48          1           0       -4.921136   -4.768818    0.707211
     49          1           0       -4.395010   -3.824633    3.310892
     50          1           0       -6.811082   -3.706268    1.546107
     51          1           0       -6.670775   -2.372771    2.732853
     52          1           0       -6.719084   -4.007378    3.329770
     53          1           0       -2.340914   -4.041193    2.108755
     54          1           0       -2.251480   -4.522649    0.367297
     55          1           0       -3.758031   -6.484985    1.769629
     56          1           0       -2.587180   -5.946105    2.912681
     57          1           0       -3.773964   -0.539224    6.062442
     58          1           0       -4.095051    1.045211    6.656144
     59          1           0       -2.395111    0.569114    6.409462
     60          1           0       -3.180202    3.076730    6.885861
     61          1           0       -2.043795    4.509467    6.595484
     62          1           0       -1.567484    2.821325    6.269549
     63          1           0       -3.820964    5.508878    0.078044
     64          1           0       -5.621932    4.584175   -2.105856
     65          1           0       -5.741499    6.591386    0.573130
     66          1           0       -6.452163    4.997989    1.002989
     67          1           0       -6.653579    5.607328   -0.557496
     68          1           0       -3.740641    6.234565   -2.430304
     69          1           0       -3.818960    4.953568   -3.634778
     70          1           0       -2.001007    5.431830   -1.395806
     71          1           0       -1.573899    4.957997   -3.075018
     72          1           0       -2.182249    3.747231   -1.859015
     73          1           0       -4.459210   -0.381350   -5.819052
     74          1           0       -4.961891    1.261769   -5.283759
     75          1           0       -6.133272   -0.113202   -5.132486
     76          1           0       -5.387953   -4.125151   -2.047323
     77          1           0       -3.185578   -7.753076   -2.826557
     78          1           0       -2.652252   -7.339890   -1.087427
     79          1           0       -1.868682   -6.742123   -2.562019
     80         12           0        3.981049    0.836883   -0.644158
     81          6           0        4.083110   -2.471733    0.742111
     82          6           0        3.510947    1.991277    2.530901
     83          6           0        3.437500    3.710130   -1.875577
     84          6           0        3.316933   -0.628903   -3.735449
     85          7           0        3.834566   -0.203766    1.302087
     86          6           0        3.949859   -1.457555    1.713250
     87          6           0        4.001343   -1.626545    3.255447
     88          6           0        3.247311   -0.271017    3.671194
     89          6           0        3.576086    0.577621    2.444659
     90          6           0        1.737701   -0.423690    3.755658
     91          6           0        5.470852   -1.658024    3.804572
     92          6           0        5.605596   -2.128109    5.254610
     93          1           0        6.778528   -2.915202    5.624999
     94          7           0        4.026480    2.628759    0.207701
     95          6           0        3.837378    2.914220    1.513088
     96          6           0        3.950416    4.376659    1.625595
     97          6           0        4.057836    4.945675    0.254695
     98          6           0        3.818626    3.759421   -0.542585
     99          6           0        4.029071    5.087573    2.945380
    100          6           0        4.318397    6.330991   -0.254432
    101          8           0        4.132473    6.642652   -1.483716
    102          6           0        4.707898    7.334872    0.746564
    103          7           0        3.245786    1.466205   -2.484172
    104          6           0        3.159040    2.774238   -2.783258
    105          6           0        2.866490    2.980101   -4.250374
    106          6           0        3.014942    1.537551   -4.924607
    107          6           0        3.292307    0.694701   -3.660460
    108          6           0        1.489535    3.556233   -4.579682
    109          6           0        3.996447    1.418254   -6.122552
    110          6           0        5.417160    1.622829   -5.648096
    111          7           0        3.920414   -1.174431   -1.430939
    112          6           0        3.595403   -1.565583   -2.748301
    113          6           0        3.576936   -3.042579   -2.771876
    114          6           0        3.872230   -3.410997   -1.450674
    115          6           0        4.041478   -2.245762   -0.655009
    116          6           0        3.265415   -3.852733   -3.900024
    117          6           0        4.068772   -4.520643   -0.545823
    118          8           0        4.134392   -5.742800   -0.671382
    119          6           0        4.089367   -3.961908    0.942045
    120          6           0        5.269660   -4.568894    1.649852
    121          8           0        6.429319   -4.298831    1.290843
    122          8           0        4.843027   -5.191656    2.763631
    123          6           0        5.978998   -5.800283    3.505908
    124          1           0        3.134098    2.438091    3.451353
    125          1           0        3.345263    4.677029   -2.375662
    126          1           0        3.214707   -1.161902   -4.683154
    127          1           0        3.460844   -2.484629    3.636693
    128          1           0        3.684361    0.165790    4.565368
    129          1           0        1.410461   -1.391563    3.405978
    130          1           0        1.327393    0.361623    3.134393
    131          1           0        1.393939   -0.214080    4.772623
    132          1           0        5.837313   -0.628388    3.906032
    133          1           0        6.101315   -2.252186    3.172022
    134          1           0        4.689532   -2.608808    5.618895
    135          1           0        5.720320   -1.250050    5.894821
    136          1           0        3.758113    4.424495    3.776234
    137          1           0        3.246302    5.853812    2.942995
    138          1           0        4.995396    5.570033    3.106995
    139          1           0        3.929221    7.413060    1.501549
    140          1           0        4.937535    8.239122    0.179561
    141          1           0        5.610291    6.984923    1.260223
    142          1           0        3.587660    3.653028   -4.697797
    143          1           0        2.059918    1.180375   -5.337146
    144          1           0        1.537229    4.491347   -5.169065
    145          1           0        0.956541    3.718110   -3.652181
    146          1           0        0.822784    2.882124   -5.114675
    147          1           0        3.797533    2.204564   -6.854882
    148          1           0        3.929181    0.468812   -6.643163
    149          1           0        5.516181    2.712264   -5.628047
    150          1           0        6.122199    1.175196   -6.345658
    151          1           0        5.545060    1.261258   -4.621177
    152          1           0        3.989038   -4.656879   -3.915196
    153          1           0        3.290927   -3.276457   -4.822536
    154          1           0        2.251014   -4.167036   -3.640293
    155          1           0        3.144116   -4.240225    1.409617
    156          1           0        5.746037   -6.862144    3.631893
    157          1           0        6.092175   -5.196793    4.426096
    158          1           0        6.936822   -5.852273    3.001614
 ---------------------------------------------------------------------

 SCF Done:  E(RCAM-B3LYP) =  -4069.81224616     A.U. after   19 cycles

 Excitation energies and oscillator strengths:

 Excited State   1:      Singlet-A      1.6477 eV  752.45 nm  f=0.1218  <S**2>=0.000
     309 -> 315        0.11659
     310 -> 316       -0.11876
     311 -> 313       -0.48022
     312 -> 314        0.49157
 This state for optimization and/or second-order correction.
 Total Energy, E(TD-HF/TD-DFT) =  -4069.75169301
 Copying the excited state density for this state as the 1-particle RhoCI density.

 Excited State   2:      Singlet-A      1.6960 eV  731.03 nm  f=0.5318  <S**2>=0.000
     309 -> 315       -0.12795
     310 -> 316       -0.12564
     311 -> 313        0.48933
     312 -> 314        0.47837

 Excited State   3:      Singlet-A      2.1830 eV  567.95 nm  f=0.0434  <S**2>=0.000
     309 -> 313       -0.40471
     310 -> 314        0.50078
     311 -> 315       -0.16882
     312 -> 316        0.21071

 Excited State   4:      Singlet-A      2.1921 eV  565.61 nm  f=0.1436  <S**2>=0.000
     309 -> 313        0.49765
     310 -> 314        0.40116
     311 -> 315        0.21715
     312 -> 316        0.17633

 Excited State   5:      Singlet-A      2.2333 eV  555.17 nm  f=0.0000  <S**2>=0.000
     312 -> 313        0.70705

 The electronic state is 1-A.
 Alpha  occ. eigenvalues --  -46.87908 -46.87408 -19.26273 -19.26254 -19.19044
 Alpha  occ. eigenvalues --  -19.19037 -19.19033 -19.18475 -19.18280 -19.17809
 Alpha  occ. eigenvalues --  -14.42556 -14.42264 -14.41553 -14.41107 -14.39531
 Alpha  occ. eigenvalues --  -14.39098 -14.38700 -14.38323 -10.39098 -10.38967
 Alpha  occ. eigenvalues --  -10.35674 -10.35156 -10.34493 -10.33990 -10.31727
 Alpha  occ. eigenvalues --  -10.31561 -10.31501 -10.31073 -10.31017 -10.30829
 Alpha  occ. eigenvalues --  -10.30686 -10.30630 -10.30326 -10.30114 -10.30074
 Alpha  occ. eigenvalues --  -10.30016 -10.29883 -10.29771 -10.29622 -10.29395
 Alpha  occ. eigenvalues --  -10.29162 -10.29108 -10.28800 -10.28643 -10.28617
 Alpha  occ. eigenvalues --  -10.28488 -10.28461 -10.28186 -10.28157 -10.28041
 Alpha  occ. eigenvalues --  -10.27931 -10.27842 -10.27738 -10.27714 -10.27700
 Alpha  occ. eigenvalues --  -10.27567 -10.27517 -10.27507 -10.27432 -10.27259
 Alpha  occ. eigenvalues --  -10.27244 -10.27228 -10.27200 -10.27185 -10.27164
 Alpha  occ. eigenvalues --  -10.26855 -10.26731 -10.26716 -10.26618 -10.26299
 Alpha  occ. eigenvalues --  -10.26203 -10.26196 -10.26132 -10.26003 -10.25986
 Alpha  occ. eigenvalues --  -10.25899 -10.25641 -10.25504 -10.25312 -10.25247
 Alpha  occ. eigenvalues --  -10.24964 -10.24899 -10.24656 -10.24569 -10.24516
 Alpha  occ. eigenvalues --  -10.24442  -3.16650  -3.16159  -1.91531  -1.91118
 Alpha  occ. eigenvalues --   -1.91041  -1.90961  -1.90630  -1.90466  -1.16612
 Alpha  occ. eigenvalues --   -1.16556  -1.08730  -1.08424  -1.07439  -1.06828
 Alpha  occ. eigenvalues --   -1.06732  -1.06654  -1.04687  -1.04267  -1.03868
 Alpha  occ. eigenvalues --   -1.03412  -1.03354  -1.02771  -1.02525  -1.01847
 Alpha  occ. eigenvalues --   -0.92073  -0.91747  -0.89601  -0.89249  -0.89245
 Alpha  occ. eigenvalues --   -0.89028  -0.88363  -0.88002  -0.87988  -0.87772
 Alpha  occ. eigenvalues --   -0.87490  -0.87461  -0.87398  -0.86855  -0.85055
 Alpha  occ. eigenvalues --   -0.84842  -0.83997  -0.83655  -0.83170  -0.82725
 Alpha  occ. eigenvalues --   -0.82699  -0.82482  -0.81626  -0.81410  -0.80683
 Alpha  occ. eigenvalues --   -0.80232  -0.78957  -0.78351  -0.77305  -0.76972
 Alpha  occ. eigenvalues --   -0.76945  -0.76731  -0.75984  -0.75662  -0.74967
 Alpha  occ. eigenvalues --   -0.74602  -0.72887  -0.72419  -0.71761  -0.71380
 Alpha  occ. eigenvalues --   -0.69954  -0.69532  -0.68962  -0.68654  -0.67761
 Alpha  occ. eigenvalues --   -0.67371  -0.67299  -0.67032  -0.65352  -0.65113
 Alpha  occ. eigenvalues --   -0.64935  -0.64686  -0.64541  -0.64466  -0.64345
 Alpha  occ. eigenvalues --   -0.63971  -0.62321  -0.62110  -0.60596  -0.60086
 Alpha  occ. eigenvalues --   -0.59890  -0.59622  -0.59083  -0.58756  -0.58603
 Alpha  occ. eigenvalues --   -0.58198  -0.57658  -0.57403  -0.57349  -0.56995
 Alpha  occ. eigenvalues --   -0.56440  -0.55994  -0.55947  -0.55740  -0.55658
 Alpha  occ. eigenvalues --   -0.55394  -0.55236  -0.55036  -0.54561  -0.54308
 Alpha  occ. eigenvalues --   -0.53958  -0.53787  -0.53448  -0.53326  -0.53012
 Alpha  occ. eigenvalues --   -0.52983  -0.52948  -0.52888  -0.52728  -0.52480
 Alpha  occ. eigenvalues --   -0.52455  -0.52172  -0.52042  -0.51709  -0.51501
 Alpha  occ. eigenvalues --   -0.51435  -0.51272  -0.50973  -0.50801  -0.50245
 Alpha  occ. eigenvalues --   -0.50118  -0.50076  -0.49799  -0.49646  -0.49624
 Alpha  occ. eigenvalues --   -0.49334  -0.49285  -0.49168  -0.49016  -0.48892
 Alpha  occ. eigenvalues --   -0.48667  -0.48628  -0.48526  -0.48361  -0.48162
 Alpha  occ. eigenvalues --   -0.48112  -0.47797  -0.47411  -0.47398  -0.46893
 Alpha  occ. eigenvalues --   -0.46883  -0.46620  -0.46497  -0.46462  -0.46394
 Alpha  occ. eigenvalues --   -0.46243  -0.46017  -0.45889  -0.45825  -0.45583
 Alpha  occ. eigenvalues --   -0.45290  -0.45004  -0.44690  -0.44616  -0.44366
 Alpha  occ. eigenvalues --   -0.44244  -0.44240  -0.44161  -0.44119  -0.43937
 Alpha  occ. eigenvalues --   -0.43855  -0.43718  -0.43550  -0.43462  -0.43386
 Alpha  occ. eigenvalues --   -0.43199  -0.43119  -0.42769  -0.42746  -0.42673
 Alpha  occ. eigenvalues --   -0.42649  -0.42321  -0.42062  -0.41803  -0.41766
 Alpha  occ. eigenvalues --   -0.41592  -0.41454  -0.41291  -0.41230  -0.41022
 Alpha  occ. eigenvalues --   -0.40910  -0.40806  -0.40635  -0.40551  -0.40527
 Alpha  occ. eigenvalues --   -0.40275  -0.40272  -0.40108  -0.39470  -0.39189
 Alpha  occ. eigenvalues --   -0.38530  -0.38150  -0.37786  -0.37536  -0.37402
 Alpha  occ. eigenvalues --   -0.37323  -0.37034  -0.36996  -0.36741  -0.36642
 Alpha  occ. eigenvalues --   -0.36242  -0.36011  -0.34394  -0.34006  -0.33807
 Alpha  occ. eigenvalues --   -0.33717  -0.33293  -0.32916  -0.31557  -0.31143
 Alpha  occ. eigenvalues --   -0.31038  -0.30734  -0.30133  -0.29720  -0.29604
 Alpha  occ. eigenvalues --   -0.29452  -0.29052  -0.28898  -0.24189  -0.23779
 Alpha  occ. eigenvalues --   -0.21246  -0.20853
 Alpha virt. eigenvalues --   -0.08907  -0.08519  -0.01870  -0.01433  -0.00221
 Alpha virt. eigenvalues --    0.00210   0.02077   0.02382   0.02595   0.03588
 Alpha virt. eigenvalues --    0.04650   0.04936   0.05072   0.05303   0.06166

 Mulliken charges:
               1
     1  Mg   0.838725
     2  C   -0.002539
     3  C   -0.094680
     4  C   -0.045531
     5  C   -0.064324
     6  N   -0.256870
     7  C   -0.051993
     8  C   -0.013961
     9  C   -0.086828
    10  C    0.046245
    11  C    0.104816
    12  C    0.053645
    13  C   -0.073726
    14  H    0.041430
    15  N   -0.433134
    16  C    0.168130
    17  C   -0.178073
    18  C   -0.005132
    19  C    0.148881
    20  C    0.110153
    21  C    0.010880
    22  O   -0.249594
    23  C    0.063375
    24  N   -0.341333
    25  C    0.041472
    26  C   -0.028300
    27  C   -0.024393
    28  C    0.075791
    29  C    0.076124
    30  C    0.036029
    31  C   -0.010253
    32  N   -0.310636
    33  C    0.080945
    34  C   -0.170396
    35  C    0.008371
    36  C    0.083441
    37  C    0.127401
    38  C    0.045809
    39  O   -0.188023
    40  C   -0.005195
    41  C    0.212964
    42  O   -0.257530
    43  O   -0.305005
    44  C    0.157165
    45  H   -0.017697
    46  H   -0.016997
    47  H   -0.041463
    48  H    0.001435
    49  H   -0.004144
    50  H    0.025664
    51  H    0.016233
    52  H    0.016845
    53  H    0.009296
    54  H    0.045255
    55  H    0.017643
    56  H    0.017088
    57  H    0.006301
    58  H    0.027105
    59  H    0.036781
    60  H    0.038387
    61  H    0.034752
    62  H    0.027877
    63  H    0.017041
    64  H    0.009578
    65  H    0.023343
    66  H    0.012334
    67  H    0.004950
    68  H    0.006965
    69  H    0.003647
    70  H    0.010790
    71  H    0.024054
    72  H    0.028842
    73  H    0.046889
    74  H    0.009053
    75  H    0.046612
    76  H    0.035487
    77  H    0.043095
    78  H    0.047581
    79  H    0.055203
    80  Mg   0.837224
    81  C   -0.016715
    82  C   -0.087847
    83  C   -0.044736
    84  C   -0.060810
    85  N   -0.254446
    86  C   -0.050002
    87  C   -0.014788
    88  C   -0.090920
    89  C    0.045244
    90  C    0.114490
    91  C    0.062786
    92  C   -0.077305
    93  H    0.034489
    94  N   -0.423434
    95  C    0.162086
    96  C   -0.174012
    97  C   -0.008069
    98  C    0.151447
    99  C    0.099200
   100  C    0.015398
   101  O   -0.254320
   102  C    0.061141
   103  N   -0.349836
   104  C    0.035934
   105  C   -0.019182
   106  C   -0.035500
   107  C    0.088749
   108  C    0.069694
   109  C    0.034692
   110  C   -0.007543
   111  N   -0.324977
   112  C    0.078647
   113  C   -0.157326
   114  C    0.003220
   115  C    0.096704
   116  C    0.128618
   117  C    0.043951
   118  O   -0.189174
   119  C    0.000365
   120  C    0.210881
   121  O   -0.251063
   122  O   -0.306189
   123  C    0.152215
   124  H   -0.020984
   125  H   -0.016553
   126  H   -0.038300
   127  H   -0.002318
   128  H   -0.005636
   129  H    0.022308
   130  H    0.017618
   131  H    0.011052
   132  H    0.014182
   133  H    0.037862
   134  H    0.019269
   135  H    0.019102
   136  H    0.007538
   137  H    0.027974
   138  H    0.038629
   139  H    0.039040
   140  H    0.035506
   141  H    0.033401
   142  H    0.013642
   143  H    0.014952
   144  H    0.023205
   145  H    0.015333
   146  H    0.005837
   147  H    0.005459
   148  H    0.004661
   149  H    0.010330
   150  H    0.017584
   151  H    0.030163
   152  H    0.043436
   153  H    0.007958
   154  H    0.058716
   155  H    0.034367
   156  H    0.042975
   157  H    0.048888
   158  H    0.053655
 Sum of Mulliken charges =  -0.00000

 Dipole moment (field-independent basis, Debye):
    X=             -3.2190    Y=              1.6712    Z=              6.8787  Tot=              7.7763
 Quadrupole moment (field-independent basis, Debye-Ang):
   XX=           -519.6023   YY=           -531.2035   ZZ=           -468.0940
   XY=             13.8980   XZ=              3.4750   YZ=            -30.1351

 Normal termination of Gaussian 16 at Fri Sep  3 16:22:56 2021.
