 Gaussian 16, Revision A.03,
 Gaussian 16:  ES64L-G16RevA.03 25-Dec-2016

 -----------------------------------
 #p cam-b3lyp/Def2SVP td=(nstates=5)
 -----------------------------------

 --------------------------------
 TDDFT excited states in gaussian
 --------------------------------
 Symbolic Z-matrix:
 Charge =  0 Multiplicity = 1

                         Standard orientation:
 ---------------------------------------------------------------------
 Center     Atomic      Atomic             Coordinates (Angstroms)
 Number     Number       Type             X           Y           Z
 ---------------------------------------------------------------------
      1         12           0        4.220633   -0.196549   -0.030166
      2          6           0        3.664579   -3.543296   -1.171349
      3          6           0        5.041711    0.604232   -3.243832
      4          6           0        5.152599    2.643009    1.030482
      5          6           0        4.462233   -1.493819    3.195416
      6          7           0        4.302766   -1.403261   -1.884282
      7          6           0        4.007739   -2.660893   -2.198116
      8          6           0        4.023974   -2.935049   -3.731723
      9          6           0        4.999295   -1.758982   -4.187369
     10          6           0        4.740988   -0.777763   -3.057586
     11          6           0        6.473658   -2.149492   -4.171308
     12          6           0        2.605399   -2.785457   -4.377476
     13          6           0        2.470022   -3.349097   -5.794986
     14          1           0        1.214299   -3.973285   -6.183443
     15          7           0        4.513832    1.499953   -0.999066
     16          6           0        4.823598    1.640560   -2.310386
     17          6           0        4.938023    3.095527   -2.548413
     18          6           0        4.856655    3.780335   -1.228371
     19          6           0        4.864186    2.652436   -0.332175
     20          6           0        5.056515    3.699026   -3.914246
     21          6           0        4.794258    5.222742   -0.836328
     22          8           0        4.961859    5.607181    0.371435
     23          6           0        4.617516    6.193999   -1.931072
     24          7           0        4.953372    0.461329    1.810466
     25          6           0        5.225715    1.753508    2.022797
     26          6           0        5.462177    2.029721    3.478040
     27          6           0        5.053980    0.694820    4.253391
     28          6           0        4.712231   -0.192810    3.031266
     29          6           0        6.895602    2.423794    3.860153
     30          6           0        4.002369    0.831320    5.382948
     31          6           0        2.660911    1.204654    4.792853
     32          7           0        3.917555   -2.130588    0.907215
     33          6           0        4.096646   -2.448594    2.261273
     34          6           0        3.877693   -3.900418    2.396670
     35          6           0        3.600932   -4.331651    1.100797
     36          6           0        3.670080   -3.224092    0.208147
     37          6           0        4.002873   -4.653696    3.597227
     38          6           0        3.287111   -5.474666    0.258841
     39          8           0        3.012167   -6.656939    0.468911
     40          6           0        3.435629   -5.031465   -1.263441
     41          6           0        2.213126   -5.510707   -1.997690
     42          8           0        1.088660   -5.029183   -1.750554
     43          8           0        2.588296   -6.280514   -3.030738
     44          6           0        1.423796   -6.765054   -3.818974
     45          1           0        5.543521    0.916149   -4.161892
     46          1           0        5.370801    3.624375    1.456799
     47          1           0        4.437726   -1.954898    4.184486
     48          1           0        4.445112   -3.899368   -4.016603
     49          1           0        4.697586   -1.326620   -5.141180
     50          1           0        6.620474   -3.132938   -3.724990
     51          1           0        6.971222   -1.383320   -3.576410
     52          1           0        6.903880   -2.079263   -5.170685
     53          1           0        2.410808   -1.731788   -4.577419
     54          1           0        1.841724   -3.229949   -3.738294
     55          1           0        3.311812   -3.993624   -6.049709
     56          1           0        2.540033   -2.520733   -6.500047
     57          1           0        5.257078    2.941443   -4.670809
     58          1           0        5.950419    4.322428   -3.910434
     59          1           0        4.187349    4.304248   -4.172295
     60          1           0        5.441742    6.093842   -2.637592
     61          1           0        4.505497    7.167212   -1.454460
     62          1           0        3.709917    5.944393   -2.481443
     63          1           0        4.837120    2.850734    3.826848
     64          1           0        5.909512    0.227550    4.741651
     65          1           0        6.964281    3.385014    4.370100
     66          1           0        7.499754    2.418125    2.953368
     67          1           0        7.421549    1.694344    4.475537
     68          1           0        4.284254    1.629311    6.069022
     69          1           0        3.878012   -0.080231    5.967637
     70          1           0        2.732942    2.286800    4.689880
     71          1           0        1.855605    0.930130    5.475003
     72          1           0        2.536710    0.789687    3.792422
     73          1           0        3.151892   -5.334330    3.620400
     74          1           0        4.014902   -4.004603    4.472519
     75          1           0        4.961042   -5.144896    3.428433
     76          1           0        4.346809   -5.496882   -1.637955
     77          1           0        1.487419   -7.852816   -3.849959
     78          1           0        1.447746   -6.229567   -4.768228
     79          1           0        0.442680   -6.629215   -3.362578
     80         12           0       -3.547004    1.383869    0.542279
     81          6           0       -6.094395   -1.137481    0.361569
     82          6           0       -4.922296    2.762290   -2.258282
     83          6           0       -1.061142    3.351240    0.410351
     84          6           0       -1.738867   -0.786197    2.583638
     85          7           0       -5.283214    0.797058   -0.696066
     86          6           0       -6.213211   -0.143898   -0.632476
     87          6           0       -7.377608    0.033244   -1.643586
     88          6           0       -6.609245    0.916457   -2.742875
     89          6           0       -5.557738    1.564363   -1.844412
     90          6           0       -5.892789    0.082082   -3.791609
     91          6           0       -8.591557    0.812822   -1.026653
     92          6           0       -9.879606    0.753662   -1.850799
     93          1           0      -11.156702    0.709336   -1.144038
     94          7           0       -3.322101    3.106592   -0.417005
     95          6           0       -3.977930    3.513072   -1.524233
     96          6           0       -3.437564    4.842855   -1.846491
     97          6           0       -2.293314    5.117576   -0.935470
     98          6           0       -2.165178    3.832382   -0.278253
     99          6           0       -4.055155    5.744648   -2.875443
    100          6           0       -1.445439    6.331625   -0.704389
    101          8           0       -0.353787    6.273101   -0.035295
    102          6           0       -1.882265    7.571365   -1.362948
    103          7           0       -1.581267    1.218042    1.198564
    104          6           0       -0.718812    2.240749    1.063748
    105          6           0        0.546306    1.994779    1.850745
    106          6           0        0.253723    0.698357    2.740269
    107          6           0       -1.160315    0.351653    2.224822
    108          6           0        1.811317    1.768839    1.023044
    109          6           0        0.469499    0.832874    4.272592
    110          6           0       -0.556071    1.777205    4.857271
    111          7           0       -3.910125   -0.521714    1.493555
    112          6           0       -3.007380   -1.266272    2.283969
    113          6           0       -3.668435   -2.546297    2.611041
    114          6           0       -4.910760   -2.466564    1.963909
    115          6           0       -5.008403   -1.233072    1.265026
    116          6           0       -3.097964   -3.607251    3.369363
    117          6           0       -6.157499   -3.149919    1.704359
    118          8           0       -6.677123   -4.190971    2.104275
    119          6           0       -6.928612   -2.373886    0.551305
    120          6           0       -8.357240   -2.195150    0.986718
    121          8           0       -8.634921   -1.479922    1.965468
    122          8           0       -9.171518   -2.717760    0.051736
    123          6           0      -10.599716   -2.554918    0.433280
    124          1           0       -5.134059    3.143385   -3.257684
    125          1           0       -0.216670    4.039991    0.487557
    126          1           0       -1.280263   -1.474871    3.296443
    127          1           0       -7.735637   -0.886773   -2.089845
    128          1           0       -7.263463    1.671934   -3.170187
    129          1           0       -5.920418   -0.971442   -3.556108
    130          1           0       -4.871663    0.440091   -3.805103
    131          1           0       -6.299641    0.294148   -4.784508
    132          1           0       -8.387012    1.890124   -1.074793
    133          1           0       -8.787719    0.481818   -0.025360
    134          1           0       -9.840011   -0.025056   -2.622137
    135          1           0       -9.973854    1.684891   -2.414663
    136          1           0       -4.781482    5.207095   -3.497455
    137          1           0       -3.258454    6.028108   -3.571707
    138          1           0       -4.482489    6.650302   -2.439733
    139          1           0       -1.927209    7.412826   -2.437793
    140          1           0       -1.201359    8.346942   -1.006969
    141          1           0       -2.902559    7.800582   -1.035704
    142          1           0        0.762318    2.829386    2.506395
    143          1           0        0.905006   -0.142878    2.461007
    144          1           0        2.623829    2.479817    1.264727
    145          1           0        1.549519    1.832478   -0.024784
    146          1           0        2.237559    0.769622    1.094405
    147          1           0        1.448808    1.271098    4.480108
    148          1           0        0.421979   -0.113868    4.800232
    149          1           0       -0.118111    2.762581    4.672021
    150          1           0       -0.681225    1.594880    5.922700
    151          1           0       -1.499782    1.726219    4.301883
    152          1           0       -3.867154   -3.954807    4.046158
    153          1           0       -2.211762   -3.278854    3.908412
    154          1           0       -2.854184   -4.310326    2.568408
    155          1           0       -6.849249   -2.973034   -0.356599
    156          1           0      -11.049893   -3.552328    0.419196
    157          1           0      -11.012797   -1.805880   -0.268195
    158          1           0      -10.814719   -2.240143    1.447739
 ---------------------------------------------------------------------

 SCF Done:  E(RCAM-B3LYP) =  -4069.65842877     A.U. after   19 cycles

 Excitation energies and oscillator strengths:

 Excited State   1:      Singlet-A      1.6269 eV  762.09 nm  f=0.0003  <S**2>=0.000
     309 -> 315        0.11512
     310 -> 316       -0.11309
     311 -> 313        0.48759
     312 -> 314       -0.48612
 This state for optimization and/or second-order correction.
 Total Energy, E(TD-HF/TD-DFT) =  -4069.59864149
 Copying the excited state density for this state as the 1-particle RhoCI density.

 Excited State   2:      Singlet-A      1.7090 eV  725.47 nm  f=0.6661  <S**2>=0.000
     309 -> 315        0.13033
     310 -> 316        0.12833
     311 -> 313        0.48261
     312 -> 314        0.48414

 Excited State   3:      Singlet-A      2.1611 eV  573.71 nm  f=0.0080  <S**2>=0.000
     309 -> 313        0.19635
     310 -> 314       -0.10085
     312 -> 313        0.66297

 Excited State   4:      Singlet-A      2.1747 eV  570.13 nm  f=0.0543  <S**2>=0.000
     309 -> 313       -0.40614
     310 -> 314        0.45702
     311 -> 315        0.16890
     312 -> 313        0.22701
     312 -> 316       -0.18415

 Excited State   5:      Singlet-A      2.1884 eV  566.55 nm  f=0.1325  <S**2>=0.000
     309 -> 313        0.45549
     310 -> 314        0.44064
     311 -> 315       -0.20217
     312 -> 316       -0.19355

 The electronic state is 1-A.
 Alpha  occ. eigenvalues --  -46.87837 -46.87265 -19.26326 -19.26090 -19.19070
 Alpha  occ. eigenvalues --  -19.18886 -19.18705 -19.18415 -19.18265 -19.17719
 Alpha  occ. eigenvalues --  -14.42569 -14.42123 -14.41550 -14.40949 -14.39403
 Alpha  occ. eigenvalues --  -14.38974 -14.38723 -14.38201 -10.39134 -10.38806
 Alpha  occ. eigenvalues --  -10.35327 -10.35104 -10.34485 -10.33890 -10.31701
 Alpha  occ. eigenvalues --  -10.31553 -10.31532 -10.31002 -10.30901 -10.30725
 Alpha  occ. eigenvalues --  -10.30700 -10.30597 -10.30450 -10.30115 -10.29969
 Alpha  occ. eigenvalues --  -10.29913 -10.29717 -10.29668 -10.29511 -10.29408
 Alpha  occ. eigenvalues --  -10.29107 -10.28964 -10.28834 -10.28606 -10.28473
 Alpha  occ. eigenvalues --  -10.28449 -10.28437 -10.28215 -10.28081 -10.27917
 Alpha  occ. eigenvalues --  -10.27898 -10.27858 -10.27856 -10.27838 -10.27666
 Alpha  occ. eigenvalues --  -10.27647 -10.27522 -10.27489 -10.27294 -10.27271
 Alpha  occ. eigenvalues --  -10.27243 -10.27208 -10.27119 -10.27073 -10.26807
 Alpha  occ. eigenvalues --  -10.26771 -10.26718 -10.26448 -10.26331 -10.26325
 Alpha  occ. eigenvalues --  -10.26277 -10.26233 -10.26127 -10.26112 -10.26012
 Alpha  occ. eigenvalues --  -10.25893 -10.25743 -10.25693 -10.25457 -10.25316
 Alpha  occ. eigenvalues --  -10.24959 -10.24951 -10.24522 -10.24339 -10.23978
 Alpha  occ. eigenvalues --  -10.21632  -3.16567  -3.16015  -1.91449  -1.91038
 Alpha  occ. eigenvalues --   -1.90897  -1.90878  -1.90485  -1.90323  -1.16677
 Alpha  occ. eigenvalues --   -1.16380  -1.08719  -1.08323  -1.07085  -1.06692
 Alpha  occ. eigenvalues --   -1.06680  -1.06670  -1.04696  -1.04129  -1.03914
 Alpha  occ. eigenvalues --   -1.03352  -1.03272  -1.02643  -1.02553  -1.01735
 Alpha  occ. eigenvalues --   -0.92177  -0.91881  -0.91603  -0.89385  -0.89255
 Alpha  occ. eigenvalues --   -0.88884  -0.88668  -0.88129  -0.88016  -0.87810
 Alpha  occ. eigenvalues --   -0.87401  -0.87320  -0.87267  -0.86805  -0.86009
 Alpha  occ. eigenvalues --   -0.85063  -0.84664  -0.83587  -0.83045  -0.82687
 Alpha  occ. eigenvalues --   -0.82629  -0.82369  -0.81712  -0.81296  -0.80739
 Alpha  occ. eigenvalues --   -0.80141  -0.79056  -0.78566  -0.78248  -0.77152
 Alpha  occ. eigenvalues --   -0.76796  -0.76612  -0.76202  -0.75653  -0.75510
 Alpha  occ. eigenvalues --   -0.74750  -0.73648  -0.72542  -0.72238  -0.71815
 Alpha  occ. eigenvalues --   -0.71356  -0.69057  -0.68855  -0.68308  -0.67751
 Alpha  occ. eigenvalues --   -0.67306  -0.67259  -0.66914  -0.66305  -0.65279
 Alpha  occ. eigenvalues --   -0.64929  -0.64900  -0.64615  -0.64376  -0.64223
 Alpha  occ. eigenvalues --   -0.63100  -0.62411  -0.61976  -0.60554  -0.60092
 Alpha  occ. eigenvalues --   -0.59913  -0.59496  -0.59186  -0.58790  -0.58661
 Alpha  occ. eigenvalues --   -0.58292  -0.57750  -0.57595  -0.57501  -0.57213
 Alpha  occ. eigenvalues --   -0.56569  -0.56368  -0.56063  -0.55788  -0.55571
 Alpha  occ. eigenvalues --   -0.55523  -0.55281  -0.55145  -0.54837  -0.54548
 Alpha  occ. eigenvalues --   -0.54083  -0.53871  -0.53619  -0.53325  -0.53210
 Alpha  occ. eigenvalues --   -0.52992  -0.52883  -0.52846  -0.52698  -0.52607
 Alpha  occ. eigenvalues --   -0.52402  -0.52115  -0.51787  -0.51689  -0.51652
 Alpha  occ. eigenvalues --   -0.51413  -0.51364  -0.51266  -0.50678  -0.50434
 Alpha  occ. eigenvalues --   -0.50152  -0.49950  -0.49757  -0.49651  -0.49402
 Alpha  occ. eigenvalues --   -0.49322  -0.49209  -0.49133  -0.48965  -0.48890
 Alpha  occ. eigenvalues --   -0.48754  -0.48640  -0.48627  -0.48397  -0.48225
 Alpha  occ. eigenvalues --   -0.48051  -0.47684  -0.47472  -0.47453  -0.47195
 Alpha  occ. eigenvalues --   -0.46925  -0.46637  -0.46589  -0.46510  -0.46354
 Alpha  occ. eigenvalues --   -0.46231  -0.46119  -0.45973  -0.45887  -0.45625
 Alpha  occ. eigenvalues --   -0.45504  -0.45338  -0.45216  -0.44716  -0.44639
 Alpha  occ. eigenvalues --   -0.44401  -0.44223  -0.44189  -0.44175  -0.43996
 Alpha  occ. eigenvalues --   -0.43811  -0.43637  -0.43634  -0.43520  -0.43504
 Alpha  occ. eigenvalues --   -0.43176  -0.43112  -0.42950  -0.42758  -0.42625
 Alpha  occ. eigenvalues --   -0.42557  -0.42407  -0.42006  -0.41919  -0.41709
 Alpha  occ. eigenvalues --   -0.41485  -0.41411  -0.41282  -0.41106  -0.41048
 Alpha  occ. eigenvalues --   -0.40840  -0.40690  -0.40650  -0.40493  -0.40444
 Alpha  occ. eigenvalues --   -0.40263  -0.40148  -0.39960  -0.38897  -0.38808
 Alpha  occ. eigenvalues --   -0.38164  -0.37820  -0.37531  -0.37427  -0.37342
 Alpha  occ. eigenvalues --   -0.37290  -0.36989  -0.36862  -0.36509  -0.36410
 Alpha  occ. eigenvalues --   -0.35947  -0.34410  -0.34037  -0.33824  -0.33572
 Alpha  occ. eigenvalues --   -0.33368  -0.32794  -0.31372  -0.31170  -0.30975
 Alpha  occ. eigenvalues --   -0.30616  -0.30127  -0.29618  -0.29562  -0.29398
 Alpha  occ. eigenvalues --   -0.29035  -0.28892  -0.28754  -0.24203  -0.23642
 Alpha  occ. eigenvalues --   -0.21268  -0.20721
 Alpha virt. eigenvalues --   -0.08909  -0.08411  -0.01948  -0.01336  -0.00069
 Alpha virt. eigenvalues --    0.00291   0.02017   0.02601   0.03516   0.04506
 Alpha virt. eigenvalues --    0.04582   0.05043   0.05099   0.05453   0.06206

 Mulliken charges:
               1
     1  Mg   0.727481
     2  C   -0.000740
     3  C   -0.092447
     4  C   -0.043096
     5  C   -0.065612
     6  N   -0.253275
     7  C   -0.052413
     8  C   -0.013918
     9  C   -0.086537
    10  C    0.046467
    11  C    0.104879
    12  C    0.053278
    13  C   -0.071786
    14  H    0.036158
    15  N   -0.425222
    16  C    0.170352
    17  C   -0.176700
    18  C   -0.003869
    19  C    0.142729
    20  C    0.110643
    21  C    0.019230
    22  O   -0.248635
    23  C    0.061550
    24  N   -0.327579
    25  C    0.030992
    26  C   -0.028618
    27  C   -0.036856
    28  C    0.074859
    29  C    0.079209
    30  C    0.185764
    31  C    0.128160
    32  N   -0.304274
    33  C    0.074513
    34  C   -0.171582
    35  C    0.008342
    36  C    0.082511
    37  C    0.127895
    38  C    0.046226
    39  O   -0.187613
    40  C   -0.006923
    41  C    0.212864
    42  O   -0.256512
    43  O   -0.304876
    44  C    0.157433
    45  H   -0.017611
    46  H   -0.016408
    47  H   -0.043961
    48  H    0.001068
    49  H   -0.003982
    50  H    0.025734
    51  H    0.016657
    52  H    0.016887
    53  H    0.011617
    54  H    0.044773
    55  H    0.017978
    56  H    0.017740
    57  H    0.005267
    58  H    0.027141
    59  H    0.040991
    60  H    0.034556
    61  H    0.038651
    62  H    0.035449
    63  H    0.011627
    64  H    0.012267
    65  H    0.023836
    66  H    0.014389
    67  H    0.005254
    68  H   -0.005972
    69  H   -0.001903
    70  H    0.037250
    71  H    0.051811
    72  H    0.042297
    73  H    0.047280
    74  H    0.007575
    75  H    0.046716
    76  H    0.035519
    77  H    0.043382
    78  H    0.046199
    79  H    0.054316
    80  Mg   0.838900
    81  C   -0.017497
    82  C   -0.088576
    83  C   -0.048912
    84  C   -0.067323
    85  N   -0.254571
    86  C   -0.048857
    87  C   -0.015214
    88  C   -0.090438
    89  C    0.045420
    90  C    0.114784
    91  C    0.062671
    92  C   -0.077361
    93  H    0.034054
    94  N   -0.422593
    95  C    0.161858
    96  C   -0.176859
    97  C   -0.009313
    98  C    0.150263
    99  C    0.100387
   100  C    0.012843
   101  O   -0.253301
   102  C    0.061445
   103  N   -0.349976
   104  C    0.037287
   105  C    0.026960
   106  C   -0.042968
   107  C    0.109336
   108  C    0.012804
   109  C    0.046149
   110  C    0.020290
   111  N   -0.325050
   112  C    0.079450
   113  C   -0.159476
   114  C    0.002408
   115  C    0.097771
   116  C    0.131789
   117  C    0.043339
   118  O   -0.187584
   119  C    0.000697
   120  C    0.210986
   121  O   -0.251443
   122  O   -0.305550
   123  C    0.152265
   124  H   -0.021658
   125  H   -0.015637
   126  H   -0.038261
   127  H   -0.000984
   128  H   -0.005425
   129  H    0.022873
   130  H    0.014215
   131  H    0.014516
   132  H    0.013840
   133  H    0.037571
   134  H    0.020471
   135  H    0.019071
   136  H    0.007756
   137  H    0.023017
   138  H    0.038523
   139  H    0.036028
   140  H    0.035432
   141  H    0.034091
   142  H    0.010759
   143  H    0.021675
   144  H    0.060491
   145  H    0.045252
   146  H    0.038043
   147  H   -0.316999
   148  H   -0.020922
   149  H    0.005787
   150  H    0.006097
   151  H    0.018569
   152  H    0.044267
   153  H    0.007878
   154  H    0.054288
   155  H    0.035441
   156  H    0.043511
   157  H    0.049047
   158  H    0.053230
 Sum of Mulliken charges =  -0.00000

 Dipole moment (field-independent basis, Debye):
    X=              2.9965    Y=              4.2975    Z=             -6.9932  Tot=              8.7380
 Quadrupole moment (field-independent basis, Debye-Ang):
   XX=           -488.7562   YY=           -552.6342   ZZ=           -456.8327
   XY=            -26.9638   XZ=             27.9233   YZ=             -3.3723

 Normal termination of Gaussian 16 at Thu Sep  9 09:29:47 2021.
