 Gaussian 16, Revision A.03,
 Gaussian 16:  ES64L-G16RevA.03 25-Dec-2016

 -----------------------------------
 #p cam-b3lyp/Def2SVP td=(nstates=5)
 -----------------------------------

 --------------------------------
 TDDFT excited states in gaussian
 --------------------------------
 Symbolic Z-matrix:
 Charge =  0 Multiplicity = 1

                         Standard orientation:
 ---------------------------------------------------------------------
 Center     Atomic      Atomic             Coordinates (Angstroms)
 Number     Number       Type             X           Y           Z
 ---------------------------------------------------------------------
      1         12           0       -5.018803   -1.173751    0.367905
      2          6           0       -5.514671    2.370972    0.403596
      3          6           0       -6.072136   -1.138679   -2.877449
      4          6           0       -5.023999   -4.343922    0.449185
      5          6           0       -5.106135   -1.072554    3.850403
      6          7           0       -5.680549    0.470379   -0.958585
      7          6           0       -5.767689    1.791721   -0.841834
      8          6           0       -6.079946    2.511617   -2.187799
      9          6           0       -6.777148    1.305198   -2.962693
     10          6           0       -6.111907    0.141456   -2.249193
     11          6           0       -8.283257    1.224470   -2.735487
     12          6           0       -4.781895    2.989771   -2.921394
     13          6           0       -5.006452    3.979653   -4.068155
     14          1           0       -4.024464    5.030610   -4.288467
     15          7           0       -5.006717   -2.493073   -1.102500
     16          6           0       -5.460138   -2.302974   -2.364862
     17          6           0       -5.231343   -3.578828   -3.076570
     18          6           0       -4.783059   -4.584980   -2.074176
     19          6           0       -4.947273   -3.845084   -0.849037
     20          6           0       -5.391364   -3.734967   -4.557707
     21          6           0       -4.295562   -5.993796   -2.199533
     22          8           0       -4.178722   -6.765729   -1.187090
     23          6           0       -4.039216   -6.481014   -3.566994
     24          7           0       -5.278198   -2.554234    1.912125
     25          6           0       -5.175514   -3.868694    1.687106
     26          6           0       -5.115674   -4.639642    2.972406
     27          6           0       -4.953729   -3.553900    4.132014
     28          6           0       -5.035426   -2.271512    3.267679
     29          6           0       -6.327369   -5.532128    3.274525
     30          6           0       -3.747452   -3.722357    5.089582
     31          6           0       -2.457451   -3.486392    4.336378
     32          7           0       -5.087039    0.373176    1.888894
     33          6           0       -5.139769    0.188041    3.278001
     34          6           0       -5.283066    1.523364    3.886645
     35          6           0       -5.320649    2.396787    2.801488
     36          6           0       -5.234373    1.651877    1.590721
     37          6           0       -5.418622    1.795470    5.276615
     38          6           0       -5.438408    3.783997    2.382398
     39          8           0       -5.448051    4.868510    2.966549
     40          6           0       -5.691329    3.812779    0.810447
     41          6           0       -4.754942    4.830366    0.217990
     42          8           0       -3.520848    4.645124    0.225841
     43          8           0       -5.463296    5.738743   -0.470218
     44          6           0       -4.591644    6.761019   -1.108440
     45          1           0       -6.606990   -1.281680   -3.818418
     46          1           0       -4.917738   -5.427882    0.527782
     47          1           0       -5.054979   -0.955559    4.934446
     48          1           0       -6.771647    3.350133   -2.104939
     49          1           0       -6.518866    1.298171   -4.021448
     50          1           0       -8.609879    1.932918   -1.974343
     51          1           0       -8.474154    0.201539   -2.410428
     52          1           0       -8.823734    1.346261   -3.674544
     53          1           0       -4.355250    2.155128   -3.477637
     54          1           0       -4.072092    3.415602   -2.211343
     55          1           0       -6.013470    4.397013   -4.042976
     56          1           0       -4.964926    3.428828   -5.007872
     57          1           0       -5.888978   -2.872749   -4.999867
     58          1           0       -6.084735   -4.560387   -4.717788
     59          1           0       -4.443985   -3.949456   -5.052477
     60          1           0       -4.956515   -6.410720   -4.151947
     61          1           0       -3.612195   -7.477120   -3.456194
     62          1           0       -3.317568   -5.819996   -4.047857
     63          1           0       -4.256514   -5.309008    2.987278
     64          1           0       -5.818709   -3.531803    4.795336
     65          1           0       -6.071106   -6.580329    3.430437
     66          1           0       -7.039784   -5.421052    2.457568
     67          1           0       -6.926019   -5.216381    4.128538
     68          1           0       -3.710711   -4.739641    5.477820
     69          1           0       -3.776180   -3.043040    5.941612
     70          1           0       -2.263859   -4.454530    3.875876
     71          1           0       -1.657936   -3.215591    5.026780
     72          1           0       -2.592968   -2.763892    3.531323
     73          1           0       -4.776947    2.651799    5.483793
     74          1           0       -5.134375    0.932655    5.878575
     75          1           0       -6.484786    2.013522    5.336652
     76          1           0       -6.736367    4.085102    0.666027
     77          1           0       -4.936029    7.736385   -0.764502
     78          1           0       -4.617302    6.564488   -2.180411
     79          1           0       -3.552258    6.781822   -0.778920
     80         12           0        5.517885   -0.295171   -0.195971
     81          6           0        4.247070    3.054513    0.013029
     82          6           0        3.810252   -0.600343   -3.132883
     83          6           0        6.248849   -3.382733   -0.185251
     84          6           0        6.157970   -0.117554    3.225209
     85          7           0        4.230948    1.115133   -1.312700
     86          6           0        3.870004    2.381234   -1.167628
     87          6           0        3.127597    2.982631   -2.391027
     88          6           0        2.564629    1.618775   -3.024943
     89          6           0        3.616096    0.648517   -2.490438
     90          6           0        1.210900    1.210230   -2.468322
     91          6           0        4.100699    3.716576   -3.379149
     92          6           0        3.411769    4.589340   -4.430540
     93          1           0        4.064469    5.829098   -4.842165
     94          7           0        5.510898   -1.621709   -1.672049
     95          6           0        4.773375   -1.578540   -2.801414
     96          6           0        5.115993   -2.796191   -3.552477
     97          6           0        5.992283   -3.643154   -2.698375
     98          6           0        5.933097   -2.908997   -1.450335
     99          6           0        4.686393   -3.024164   -4.972648
    100          6           0        6.747021   -4.911714   -2.957799
    101          8           0        7.252330   -5.601817   -2.003197
    102          6           0        6.796922   -5.371144   -4.353480
    103          7           0        5.919998   -1.643617    1.334507
    104          6           0        6.261741   -2.915446    1.063264
    105          6           0        6.770603   -3.618902    2.298820
    106          6           0        6.927621   -2.478237    3.408677
    107          6           0        6.373425   -1.274823    2.614908
    108          6           0        5.881252   -4.737462    2.841298
    109          6           0        8.319542   -2.340327    4.084127
    110          6           0        9.336271   -1.854159    3.076504
    111          7           0        5.435032    1.237721    1.324361
    112          6           0        5.720307    1.091404    2.699614
    113          6           0        5.411614    2.382403    3.348037
    114          6           0        4.942654    3.189515    2.300590
    115          6           0        4.938928    2.447203    1.088789
    116          6           0        5.529784    2.664343    4.738240
    117          6           0        4.439895    4.497375    1.946425
    118          8           0        4.304787    5.566252    2.540539
    119          6           0        3.847772    4.429162    0.472942
    120          6           0        4.379482    5.607305   -0.296313
    121          8           0        5.594177    5.703669   -0.545005
    122          8           0        3.346466    6.309660   -0.796252
    123          6           0        3.823437    7.482280   -1.576831
    124          1           0        3.134172   -0.878241   -3.941945
    125          1           0        6.613515   -4.411728   -0.144554
    126          1           0        6.422994    0.048857    4.271506
    127          1           0        2.306283    3.644476   -2.143648
    128          1           0        2.590000    1.648099   -4.111152
    129          1           0        0.903979    1.844028   -1.649628
    130          1           0        1.327236    0.188114   -2.132476
    131          1           0        0.466972    1.181350   -3.269617
    132          1           0        4.574541    2.973297   -4.033172
    133          1           0        4.821384    4.300687   -2.840576
    134          1           0        2.357802    4.772012   -4.188218
    135          1           0        3.378282    4.036562   -5.372526
    136          1           0        3.915001   -2.307131   -5.279598
    137          1           0        4.181237   -3.995674   -5.001876
    138          1           0        5.527193   -3.041933   -5.669365
    139          1           0        5.784441   -5.520841   -4.720808
    140          1           0        7.454420   -6.242680   -4.350915
    141          1           0        7.240359   -4.578916   -4.966943
    142          1           0        7.739305   -4.067913    2.116870
    143          1           0        6.244465   -2.637298    4.255937
    144          1           0        6.401624   -5.710874    2.917125
    145          1           0        5.010480   -4.820367    2.204565
    146          1           0        5.437053   -4.542671    3.815949
    147          1           0        8.669584   -3.315081    4.432678
    148          1           0        8.320308   -1.673115    4.939584
    149          1           0        9.635139   -2.773580    2.564230
    150          1           0       10.182110   -1.389690    3.579368
    151          1           0        8.870017   -1.198562    2.331893
    152          1           0        5.985476    3.642170    4.819979
    153          1           0        6.119633    1.906033    5.248963
    154          1           0        4.477595    2.633768    5.033573
    155          1           0        2.760446    4.451115    0.555490
    156          1           0        3.345444    8.368002   -1.147053
    157          1           0        3.595645    7.250011   -2.634143
    158          1           0        4.871227    7.746496   -1.494571
 ---------------------------------------------------------------------

 SCF Done:  E(RCAM-B3LYP) =  -4069.81141980     A.U. after   19 cycles

 Excitation energies and oscillator strengths:

 Excited State   1:      Singlet-A      1.6562 eV  748.62 nm  f=0.0021  <S**2>=0.000
     309 -> 315       -0.11453
     310 -> 316        0.12409
     311 -> 313       -0.46376
     312 -> 314        0.50712
 This state for optimization and/or second-order correction.
 Total Energy, E(TD-HF/TD-DFT) =  -4069.75055707
 Copying the excited state density for this state as the 1-particle RhoCI density.

 Excited State   2:      Singlet-A      1.6970 eV  730.61 nm  f=0.7162  <S**2>=0.000
     309 -> 315        0.13306
     310 -> 316        0.12056
     311 -> 313        0.50514
     312 -> 314        0.46204

 Excited State   3:      Singlet-A      2.1825 eV  568.07 nm  f=0.0301  <S**2>=0.000
     309 -> 313       -0.26278
     310 -> 314        0.58805
     311 -> 315        0.10964
     312 -> 316       -0.24662

 Excited State   4:      Singlet-A      2.1945 eV  564.98 nm  f=0.1537  <S**2>=0.000
     309 -> 313        0.58428
     310 -> 314        0.25970
     311 -> 315       -0.25626
     312 -> 316       -0.11470

 Excited State   5:      Singlet-A      2.4558 eV  504.87 nm  f=0.0000  <S**2>=0.000
     312 -> 313        0.70700

 The electronic state is 1-A.
 Alpha  occ. eigenvalues --  -46.87940 -46.87468 -19.26401 -19.26081 -19.19144
 Alpha  occ. eigenvalues --  -19.18951 -19.18911 -19.18562 -19.18267 -19.17793
 Alpha  occ. eigenvalues --  -14.42600 -14.42301 -14.41584 -14.41170 -14.39546
 Alpha  occ. eigenvalues --  -14.39164 -14.38722 -14.38399 -10.39204 -10.38832
 Alpha  occ. eigenvalues --  -10.35586 -10.35244 -10.34490 -10.33963 -10.31788
 Alpha  occ. eigenvalues --  -10.31549 -10.31531 -10.31097 -10.31069 -10.30822
 Alpha  occ. eigenvalues --  -10.30705 -10.30635 -10.30342 -10.30202 -10.30158
 Alpha  occ. eigenvalues --  -10.30039 -10.29977 -10.29762 -10.29701 -10.29395
 Alpha  occ. eigenvalues --  -10.29261 -10.29212 -10.28939 -10.28800 -10.28515
 Alpha  occ. eigenvalues --  -10.28506 -10.28480 -10.28289 -10.28200 -10.27921
 Alpha  occ. eigenvalues --  -10.27916 -10.27874 -10.27803 -10.27723 -10.27660
 Alpha  occ. eigenvalues --  -10.27606 -10.27551 -10.27544 -10.27485 -10.27372
 Alpha  occ. eigenvalues --  -10.27360 -10.27284 -10.27277 -10.27273 -10.27222
 Alpha  occ. eigenvalues --  -10.26962 -10.26746 -10.26572 -10.26514 -10.26381
 Alpha  occ. eigenvalues --  -10.26307 -10.26274 -10.26148 -10.26011 -10.25915
 Alpha  occ. eigenvalues --  -10.25754 -10.25730 -10.25645 -10.25525 -10.25254
 Alpha  occ. eigenvalues --  -10.24957 -10.24917 -10.24776 -10.24664 -10.24608
 Alpha  occ. eigenvalues --  -10.24499  -3.16684  -3.16218  -1.91565  -1.91152
 Alpha  occ. eigenvalues --   -1.91100  -1.90994  -1.90689  -1.90526  -1.16751
 Alpha  occ. eigenvalues --   -1.16380  -1.08722  -1.08390  -1.07351  -1.06817
 Alpha  occ. eigenvalues --   -1.06764  -1.06693  -1.04730  -1.04293  -1.03897
 Alpha  occ. eigenvalues --   -1.03470  -1.03369  -1.02849  -1.02546  -1.01917
 Alpha  occ. eigenvalues --   -0.92104  -0.91761  -0.89637  -0.89367  -0.89318
 Alpha  occ. eigenvalues --   -0.88933  -0.88403  -0.88055  -0.87985  -0.87825
 Alpha  occ. eigenvalues --   -0.87592  -0.87496  -0.87423  -0.86965  -0.85154
 Alpha  occ. eigenvalues --   -0.84802  -0.84044  -0.83711  -0.83109  -0.82803
 Alpha  occ. eigenvalues --   -0.82790  -0.82460  -0.81713  -0.81378  -0.80734
 Alpha  occ. eigenvalues --   -0.80241  -0.78938  -0.78463  -0.77361  -0.77081
 Alpha  occ. eigenvalues --   -0.76961  -0.76698  -0.76064  -0.75620  -0.75012
 Alpha  occ. eigenvalues --   -0.74626  -0.72903  -0.72507  -0.71805  -0.71378
 Alpha  occ. eigenvalues --   -0.70013  -0.69606  -0.69034  -0.68634  -0.67776
 Alpha  occ. eigenvalues --   -0.67411  -0.67409  -0.67029  -0.65452  -0.65060
 Alpha  occ. eigenvalues --   -0.64985  -0.64759  -0.64574  -0.64450  -0.64389
 Alpha  occ. eigenvalues --   -0.64029  -0.62418  -0.62054  -0.60580  -0.60175
 Alpha  occ. eigenvalues --   -0.59966  -0.59584  -0.59119  -0.58796  -0.58633
 Alpha  occ. eigenvalues --   -0.58222  -0.57704  -0.57432  -0.57303  -0.57046
 Alpha  occ. eigenvalues --   -0.56441  -0.56114  -0.56015  -0.55668  -0.55658
 Alpha  occ. eigenvalues --   -0.55450  -0.55265  -0.55057  -0.54637  -0.54289
 Alpha  occ. eigenvalues --   -0.54073  -0.53703  -0.53434  -0.53378  -0.53049
 Alpha  occ. eigenvalues --   -0.53048  -0.52947  -0.52918  -0.52702  -0.52541
 Alpha  occ. eigenvalues --   -0.52508  -0.52250  -0.52013  -0.51788  -0.51677
 Alpha  occ. eigenvalues --   -0.51470  -0.51320  -0.50995  -0.50733  -0.50342
 Alpha  occ. eigenvalues --   -0.50156  -0.50064  -0.49801  -0.49703  -0.49669
 Alpha  occ. eigenvalues --   -0.49349  -0.49304  -0.49245  -0.48994  -0.48877
 Alpha  occ. eigenvalues --   -0.48721  -0.48591  -0.48561  -0.48348  -0.48208
 Alpha  occ. eigenvalues --   -0.48157  -0.47838  -0.47432  -0.47409  -0.46950
 Alpha  occ. eigenvalues --   -0.46931  -0.46728  -0.46526  -0.46487  -0.46362
 Alpha  occ. eigenvalues --   -0.46279  -0.46093  -0.45937  -0.45890  -0.45603
 Alpha  occ. eigenvalues --   -0.45316  -0.45035  -0.44703  -0.44655  -0.44306
 Alpha  occ. eigenvalues --   -0.44289  -0.44273  -0.44248  -0.44147  -0.43922
 Alpha  occ. eigenvalues --   -0.43910  -0.43746  -0.43615  -0.43535  -0.43344
 Alpha  occ. eigenvalues --   -0.43186  -0.43155  -0.42816  -0.42766  -0.42720
 Alpha  occ. eigenvalues --   -0.42668  -0.42393  -0.42139  -0.41833  -0.41789
 Alpha  occ. eigenvalues --   -0.41702  -0.41448  -0.41278  -0.41270  -0.41030
 Alpha  occ. eigenvalues --   -0.40980  -0.40787  -0.40691  -0.40563  -0.40519
 Alpha  occ. eigenvalues --   -0.40451  -0.40315  -0.40045  -0.39547  -0.39279
 Alpha  occ. eigenvalues --   -0.38598  -0.38184  -0.37946  -0.37477  -0.37447
 Alpha  occ. eigenvalues --   -0.37432  -0.37089  -0.37003  -0.36833  -0.36542
 Alpha  occ. eigenvalues --   -0.36321  -0.36021  -0.34422  -0.34056  -0.33897
 Alpha  occ. eigenvalues --   -0.33622  -0.33321  -0.32981  -0.31480  -0.31173
 Alpha  occ. eigenvalues --   -0.31120  -0.30773  -0.30126  -0.29691  -0.29588
 Alpha  occ. eigenvalues --   -0.29446  -0.29146  -0.29003  -0.24219  -0.23835
 Alpha  occ. eigenvalues --   -0.21265  -0.20925
 Alpha virt. eigenvalues --   -0.08910  -0.08598  -0.01888  -0.01497  -0.00201
 Alpha virt. eigenvalues --    0.00153   0.02086   0.02430   0.02902   0.03402
 Alpha virt. eigenvalues --    0.04553   0.04917   0.04975   0.05420   0.05967

 Mulliken charges:
               1
     1  Mg   0.837781
     2  C   -0.003497
     3  C   -0.095113
     4  C   -0.045567
     5  C   -0.063599
     6  N   -0.256713
     7  C   -0.052882
     8  C   -0.013712
     9  C   -0.086813
    10  C    0.045763
    11  C    0.104765
    12  C    0.053782
    13  C   -0.071450
    14  H    0.034916
    15  N   -0.433118
    16  C    0.167874
    17  C   -0.177855
    18  C   -0.004151
    19  C    0.148537
    20  C    0.110263
    21  C    0.012202
    22  O   -0.249073
    23  C    0.062737
    24  N   -0.341089
    25  C    0.041132
    26  C   -0.028228
    27  C   -0.024096
    28  C    0.074934
    29  C    0.076061
    30  C    0.035006
    31  C   -0.004482
    32  N   -0.310648
    33  C    0.080606
    34  C   -0.169017
    35  C    0.008854
    36  C    0.082997
    37  C    0.127095
    38  C    0.046675
    39  O   -0.187019
    40  C   -0.005538
    41  C    0.213434
    42  O   -0.257605
    43  O   -0.304744
    44  C    0.157206
    45  H   -0.017706
    46  H   -0.016515
    47  H   -0.040907
    48  H    0.001468
    49  H   -0.004716
    50  H    0.025797
    51  H    0.016754
    52  H    0.016733
    53  H    0.009328
    54  H    0.043348
    55  H    0.018979
    56  H    0.017365
    57  H    0.005561
    58  H    0.027211
    59  H    0.038054
    60  H    0.037484
    61  H    0.036053
    62  H    0.030125
    63  H    0.016808
    64  H    0.009778
    65  H    0.023486
    66  H    0.012544
    67  H    0.004982
    68  H    0.006626
    69  H    0.005009
    70  H    0.008970
    71  H    0.018269
    72  H    0.028799
    73  H    0.048728
    74  H    0.009379
    75  H    0.046294
    76  H    0.035423
    77  H    0.043858
    78  H    0.045546
    79  H    0.054406
    80  Mg   0.837683
    81  C   -0.016497
    82  C   -0.087897
    83  C   -0.045629
    84  C   -0.065277
    85  N   -0.254592
    86  C   -0.048851
    87  C   -0.015566
    88  C   -0.090927
    89  C    0.045992
    90  C    0.113423
    91  C    0.062610
    92  C   -0.077296
    93  H    0.033859
    94  N   -0.423413
    95  C    0.162794
    96  C   -0.175114
    97  C   -0.008099
    98  C    0.151950
    99  C    0.099721
   100  C    0.015337
   101  O   -0.253519
   102  C    0.061344
   103  N   -0.350040
   104  C    0.037399
   105  C   -0.019725
   106  C   -0.034793
   107  C    0.089157
   108  C    0.073778
   109  C    0.034826
   110  C   -0.007584
   111  N   -0.324355
   112  C    0.078901
   113  C   -0.163107
   114  C    0.003197
   115  C    0.095958
   116  C    0.131322
   117  C    0.043436
   118  O   -0.186605
   119  C    0.000171
   120  C    0.210709
   121  O   -0.252048
   122  O   -0.304070
   123  C    0.152476
   124  H   -0.021006
   125  H   -0.015989
   126  H   -0.040779
   127  H    0.002671
   128  H   -0.005973
   129  H    0.029154
   130  H    0.013162
   131  H    0.014083
   132  H    0.013201
   133  H    0.037604
   134  H    0.021171
   135  H    0.018422
   136  H    0.007701
   137  H    0.025127
   138  H    0.039111
   139  H    0.037776
   140  H    0.035953
   141  H    0.033551
   142  H    0.014034
   143  H    0.012083
   144  H    0.024734
   145  H    0.012058
   146  H    0.005120
   147  H    0.005873
   148  H    0.003481
   149  H    0.010755
   150  H    0.017625
   151  H    0.030329
   152  H    0.045934
   153  H    0.007851
   154  H    0.048091
   155  H    0.040725
   156  H    0.043978
   157  H    0.048547
   158  H    0.052875
 Sum of Mulliken charges =  -0.00000

 Dipole moment (field-independent basis, Debye):
    X=             -4.7037    Y=             -3.3881    Z=             -6.4463  Tot=              8.6695
 Quadrupole moment (field-independent basis, Debye-Ang):
   XX=           -515.5248   YY=           -558.7617   ZZ=           -447.6760
   XY=             -5.1207   XZ=             22.0627   YZ=            -38.4215

 Normal termination of Gaussian 16 at Fri Sep 10 22:26:50 2021.
