 Gaussian 16, Revision A.03,
 Gaussian 16:  ES64L-G16RevA.03 25-Dec-2016

 -----------------------------------
 #p cam-b3lyp/Def2SVP td=(nstates=5)
 -----------------------------------

 --------------------------------
 TDDFT excited states in gaussian
 --------------------------------
 Symbolic Z-matrix:
 Charge =  0 Multiplicity = 1

                         Standard orientation:
 ---------------------------------------------------------------------
 Center     Atomic      Atomic             Coordinates (Angstroms)
 Number     Number       Type             X           Y           Z
 ---------------------------------------------------------------------
      1         12           0        3.350046   -1.641834    0.608446
      2          6           0        4.605178    1.387933   -0.825909
      3          6           0        4.148050   -0.350485    3.664370
      4          6           0        2.672488   -4.475013    1.861693
      5          6           0        3.709180   -3.104723   -2.534266
      6          7           0        4.255251    0.285732    1.213211
      7          6           0        4.635501    1.385456    0.570415
      8          6           0        4.998362    2.563649    1.523078
      9          6           0        5.358932    1.727329    2.831725
     10          6           0        4.510273    0.494781    2.573796
     11          6           0        6.823959    1.308845    2.902915
     12          6           0        3.785515    3.522209    1.771869
     13          6           0        4.136064    4.864973    2.419523
     14          1           0        3.392453    6.050325    2.020361
     15          7           0        2.945288   -2.154322    2.472951
     16          6           0        3.336555   -1.503529    3.594853
     17          6           0        2.785214   -2.277175    4.728069
     18          6           0        2.202895   -3.533857    4.180576
     19          6           0        2.612143   -3.449122    2.801912
     20          6           0        2.799837   -1.787088    6.143467
     21          6           0        1.413300   -4.641299    4.803667
     22          8           0        1.205217   -5.750156    4.202242
     23          6           0        0.958939   -4.425191    6.189270
     24          7           0        3.414543   -3.584012   -0.154061
     25          6           0        3.012818   -4.627307    0.580199
     26          6           0        2.880191   -5.865131   -0.256545
     27          6           0        3.042309   -5.392908   -1.773277
     28          6           0        3.337766   -3.893415   -1.523284
     29          6           0        3.887749   -6.984482    0.039920
     30          6           0        1.900812   -5.766576   -2.751937
     31          6           0        0.641784   -5.014315   -2.383092
     32          7           0        3.862558   -0.960118   -1.387460
     33          6           0        3.974255   -1.745489   -2.543916
     34          6           0        4.447821   -0.859855   -3.623479
     35          6           0        4.595529    0.383631   -3.012112
     36          6           0        4.262101    0.275348   -1.631752
     37          6           0        4.739511   -1.255851   -4.958596
     38          6           0        4.981093    1.773060   -3.198350
     39          8           0        5.268311    2.470181   -4.172528
     40          6           0        5.119734    2.451137   -1.764190
     41          6           0        4.386322    3.763913   -1.809312
     42          8           0        3.145339    3.799383   -1.936078
     43          8           0        5.223318    4.752963   -1.460373
     44          6           0        4.550625    6.079470   -1.456185
     45          1           0        4.569514   -0.148799    4.651098
     46          1           0        2.339324   -5.448469    2.227513
     47          1           0        3.763279   -3.471836   -3.560791
     48          1           0        5.859801    3.153310    1.209000
     49          1           0        5.029326    2.231015    3.740231
     50          1           0        7.350878    1.544107    1.978291
     51          1           0        6.811161    0.231667    3.070294
     52          1           0        7.308543    1.742340    3.778150
     53          1           0        3.148658    3.101548    2.550019
     54          1           0        3.238455    3.700666    0.845476
     55          1           0        5.208804    5.056900    2.383446
     56          1           0        3.907974    4.800864    3.483508
     57          1           0        3.439480   -0.912853    6.257992
     58          1           0        3.283938   -2.558193    6.742426
     59          1           0        1.795212   -1.602473    6.524226
     60          1           0        1.824791   -4.255274    6.829564
     61          1           0        0.334945   -5.282779    6.438320
     62          1           0        0.365201   -3.511436    6.227703
     63          1           0        1.899551   -6.321284   -0.127325
     64          1           0        3.937142   -5.808154   -2.237516
     65          1           0        3.421930   -7.935941    0.297685
     66          1           0        4.546218   -6.642548    0.837912
     67          1           0        4.600907   -7.181237   -0.760149
     68          1           0        1.672221   -6.829349   -2.679789
     69          1           0        2.138002   -5.548303   -3.793258
     70          1           0        0.209730   -5.633223   -1.597525
     71          1           0       -0.027698   -4.949225   -3.241444
     72          1           0        0.872327   -4.043706   -1.943484
     73          1           0        4.315857   -0.486754   -5.604334
     74          1           0        4.319009   -2.236162   -5.181689
     75          1           0        5.829063   -1.264825   -4.933087
     76          1           0        6.185706    2.583786   -1.581898
     77          1           0        5.122597    6.731504   -2.116438
     78          1           0        4.455305    6.375273   -0.411283
     79          1           0        3.567219    6.122725   -1.925632
     80         12           0       -4.231353    0.424988   -0.558664
     81          6           0       -1.318309    2.505120   -0.301168
     82          6           0       -5.722201    2.488503    1.711560
     83          6           0       -6.642820   -1.632494   -0.420768
     84          6           0       -2.172589   -2.055434   -1.883319
     85          7           0       -3.511169    2.230971    0.495868
     86          6           0       -2.408258    2.963862    0.467601
     87          6           0       -2.505601    4.302801    1.246929
     88          6           0       -3.677602    3.901570    2.268834
     89          6           0       -4.374787    2.830319    1.432754
     90          6           0       -3.167398    3.254117    3.545490
     91          6           0       -2.930908    5.500442    0.326714
     92          6           0       -2.746869    6.886368    0.948877
     93          1           0       -2.347876    7.991303    0.081472
     94          7           0       -6.089682    0.666331    0.094736
     95          6           0       -6.523027    1.567668    1.000870
     96          6           0       -7.965822    1.323777    1.152665
     97          6           0       -8.317561    0.097877    0.385746
     98          6           0       -6.997774   -0.358686   -0.001275
     99          6           0       -8.874784    2.257014    1.898510
    100          6           0       -9.624537   -0.562189    0.065842
    101          8           0       -9.679657   -1.749763   -0.413171
    102          6           0      -10.840260    0.186332    0.416901
    103          7           0       -4.354970   -1.625813   -0.876912
    104          6           0       -5.534693   -2.266821   -0.804180
    105          6           0       -5.424196   -3.674993   -1.338260
    106          6           0       -3.976299   -3.766891   -2.011127
    107          6           0       -3.442356   -2.361957   -1.655525
    108          6           0       -5.577206   -4.791884   -0.306021
    109          6           0       -3.917089   -4.226728   -3.493605
    110          6           0       -4.543695   -3.178429   -4.384552
    111          7           0       -2.170053    0.288487   -1.191497
    112          6           0       -1.505166   -0.852394   -1.691876
    113          6           0       -0.086321   -0.484007   -1.875164
    114          6           0       -0.019026    0.849292   -1.443566
    115          6           0       -1.300976    1.275061   -1.002167
    116          6           0        0.945143   -1.349964   -2.335938
    117          6           0        0.847198    1.990029   -1.251047
    118          8           0        2.017891    2.248302   -1.527662
    119          6           0        0.071292    3.073189   -0.384374
    120          6           0        0.242671    4.410758   -1.050757
    121          8           0       -0.248268    4.625281   -2.173056
    122          8           0        0.766632    5.279474   -0.166913
    123          6           0        0.945170    6.623559   -0.777966
    124          1           0       -6.201286    2.935783    2.582932
    125          1           0       -7.463357   -2.349782   -0.496282
    126          1           0       -1.486942   -2.742467   -2.383851
    127          1           0       -1.611662    4.575474    1.794913
    128          1           0       -4.346661    4.738585    2.450840
    129          1           0       -2.105479    3.062551    3.503521
    130          1           0       -3.715605    2.326331    3.644199
    131          1           0       -3.443636    3.861103    4.412429
    132          1           0       -4.022064    5.491049    0.208275
    133          1           0       -2.420495    5.456748   -0.615721
    134          1           0       -2.116601    6.855091    1.845944
    135          1           0       -3.716145    7.234183    1.314327
    136          1           0       -8.306192    2.982159    2.493719
    137          1           0       -9.410182    1.656062    2.641518
    138          1           0       -9.603149    2.745333    1.247593
    139          1           0      -10.840360    0.394946    1.484109
    140          1           0      -11.670864   -0.407516    0.030489
    141          1           0      -10.813829    1.155683   -0.093256
    142          1           0       -6.175994   -3.861582   -2.095279
    143          1           0       -3.330399   -4.489472   -1.491011
    144          1           0       -6.388184   -5.503764   -0.550190
    145          1           0       -5.746225   -4.340604    0.662646
    146          1           0       -4.681292   -5.385190   -0.131327
    147          1           0       -4.501449   -5.139932   -3.630476
    148          1           0       -2.910594   -4.433219   -3.841909
    149          1           0       -5.612045   -3.405084   -4.318600
    150          1           0       -4.181502   -3.277501   -5.405846
    151          1           0       -4.394128   -2.172903   -3.974427
    152          1           0        1.534360   -0.782956   -3.044340
    153          1           0        0.535507   -2.250359   -2.788989
    154          1           0        1.457804   -1.561279   -1.393715
    155          1           0        0.499149    3.057757    0.618768
    156          1           0        1.997424    6.895593   -0.649729
    157          1           0        0.193851    7.274534   -0.292684
    158          1           0        0.835458    6.703905   -1.853120
 ---------------------------------------------------------------------

 SCF Done:  E(RCAM-B3LYP) =  -4069.75752123     A.U. after   19 cycles

 Excitation energies and oscillator strengths:

 Excited State   1:      Singlet-A      1.6125 eV  768.91 nm  f=0.2719  <S**2>=0.000
     311 -> 313        0.23372
     311 -> 314       -0.38229
     312 -> 313        0.46944
     312 -> 314        0.23125
 This state for optimization and/or second-order correction.
 Total Energy, E(TD-HF/TD-DFT) =  -4069.69826412
 Copying the excited state density for this state as the 1-particle RhoCI density.

 Excited State   2:      Singlet-A      1.7002 eV  729.22 nm  f=0.5125  <S**2>=0.000
     309 -> 315        0.10279
     310 -> 316        0.10150
     311 -> 313        0.49215
     312 -> 314       -0.46882

 Excited State   3:      Singlet-A      2.1264 eV  583.07 nm  f=0.0380  <S**2>=0.000
     309 -> 313        0.10151
     310 -> 313        0.34742
     310 -> 314        0.45484
     311 -> 314        0.20787
     312 -> 313        0.19901
     312 -> 315        0.10044
     312 -> 316        0.18386

 Excited State   4:      Singlet-A      2.1712 eV  571.04 nm  f=0.0131  <S**2>=0.000
     309 -> 313       -0.30793
     309 -> 314        0.19435
     311 -> 313       -0.25324
     311 -> 314        0.12610
     311 -> 315        0.11430
     312 -> 313        0.37833
     312 -> 314       -0.31688

 Excited State   5:      Singlet-A      2.1957 eV  564.67 nm  f=0.1039  <S**2>=0.000
     309 -> 313        0.43955
     309 -> 314       -0.25562
     310 -> 313       -0.10506
     310 -> 314       -0.17287
     311 -> 313       -0.17359
     311 -> 315       -0.14534
     311 -> 316        0.14122
     312 -> 313        0.21811
     312 -> 314       -0.22645
     312 -> 315       -0.12425

 The electronic state is 1-A.
 Alpha  occ. eigenvalues --  -46.87402 -46.87346 -19.26030 -19.25033 -19.18557
 Alpha  occ. eigenvalues --  -19.18480 -19.18424 -19.17498 -19.16922 -19.16843
 Alpha  occ. eigenvalues --  -14.42216 -14.42003 -14.41083 -14.41041 -14.39032
 Alpha  occ. eigenvalues --  -14.38984 -14.38257 -14.37990 -10.38600 -10.37319
 Alpha  occ. eigenvalues --  -10.35123 -10.35108 -10.33674 -10.33152 -10.31627
 Alpha  occ. eigenvalues --  -10.31266 -10.30986 -10.30907 -10.30768 -10.30297
 Alpha  occ. eigenvalues --  -10.30085 -10.30067 -10.30041 -10.29991 -10.29884
 Alpha  occ. eigenvalues --  -10.29873 -10.29545 -10.29535 -10.29184 -10.29151
 Alpha  occ. eigenvalues --  -10.29037 -10.28741 -10.28546 -10.28530 -10.28260
 Alpha  occ. eigenvalues --  -10.28222 -10.28050 -10.27951 -10.27719 -10.27684
 Alpha  occ. eigenvalues --  -10.27519 -10.27386 -10.27379 -10.27311 -10.27286
 Alpha  occ. eigenvalues --  -10.27276 -10.27241 -10.27209 -10.27181 -10.27170
 Alpha  occ. eigenvalues --  -10.27153 -10.27119 -10.27086 -10.26849 -10.26611
 Alpha  occ. eigenvalues --  -10.26506 -10.26331 -10.26313 -10.26214 -10.26185
 Alpha  occ. eigenvalues --  -10.26161 -10.25955 -10.25925 -10.25853 -10.25637
 Alpha  occ. eigenvalues --  -10.25591 -10.25494 -10.25257 -10.25176 -10.25096
 Alpha  occ. eigenvalues --  -10.25053 -10.24544 -10.24490 -10.24372 -10.24360
 Alpha  occ. eigenvalues --  -10.24266  -3.16158  -3.16097  -1.91046  -1.90980
 Alpha  occ. eigenvalues --   -1.90622  -1.90569  -1.90465  -1.90404  -1.16204
 Alpha  occ. eigenvalues --   -1.15430  -1.08518  -1.07864  -1.06890  -1.06683
 Alpha  occ. eigenvalues --   -1.06412  -1.04997  -1.04194  -1.04097  -1.03361
 Alpha  occ. eigenvalues --   -1.03346  -1.02789  -1.02708  -1.01948  -1.01779
 Alpha  occ. eigenvalues --   -0.91619  -0.91347  -0.89306  -0.89191  -0.88946
 Alpha  occ. eigenvalues --   -0.88731  -0.88028  -0.87931  -0.87487  -0.87411
 Alpha  occ. eigenvalues --   -0.87381  -0.87219  -0.86901  -0.86816  -0.84760
 Alpha  occ. eigenvalues --   -0.84566  -0.83787  -0.83596  -0.82681  -0.82659
 Alpha  occ. eigenvalues --   -0.82406  -0.82225  -0.81314  -0.81026  -0.80229
 Alpha  occ. eigenvalues --   -0.80035  -0.78390  -0.78319  -0.76999  -0.76843
 Alpha  occ. eigenvalues --   -0.76663  -0.76523  -0.75601  -0.75432  -0.74623
 Alpha  occ. eigenvalues --   -0.74503  -0.72422  -0.72335  -0.71319  -0.71228
 Alpha  occ. eigenvalues --   -0.69894  -0.69500  -0.68582  -0.68466  -0.67327
 Alpha  occ. eigenvalues --   -0.67201  -0.66965  -0.66806  -0.65092  -0.64848
 Alpha  occ. eigenvalues --   -0.64519  -0.64461  -0.64360  -0.64225  -0.63949
 Alpha  occ. eigenvalues --   -0.63925  -0.62007  -0.61731  -0.60103  -0.60052
 Alpha  occ. eigenvalues --   -0.59603  -0.59349  -0.58712  -0.58584  -0.58226
 Alpha  occ. eigenvalues --   -0.58017  -0.57640  -0.57044  -0.56974  -0.56718
 Alpha  occ. eigenvalues --   -0.56043  -0.55986  -0.55815  -0.55397  -0.55246
 Alpha  occ. eigenvalues --   -0.55084  -0.55029  -0.55017  -0.54339  -0.54175
 Alpha  occ. eigenvalues --   -0.53677  -0.53548  -0.53285  -0.53072  -0.52930
 Alpha  occ. eigenvalues --   -0.52859  -0.52711  -0.52595  -0.52497  -0.52404
 Alpha  occ. eigenvalues --   -0.52385  -0.52107  -0.51692  -0.51409  -0.51361
 Alpha  occ. eigenvalues --   -0.51190  -0.50936  -0.50743  -0.50306  -0.50219
 Alpha  occ. eigenvalues --   -0.50000  -0.49877  -0.49706  -0.49561  -0.49476
 Alpha  occ. eigenvalues --   -0.49227  -0.49045  -0.48955  -0.48752  -0.48637
 Alpha  occ. eigenvalues --   -0.48488  -0.48260  -0.48149  -0.48097  -0.47957
 Alpha  occ. eigenvalues --   -0.47459  -0.47399  -0.47130  -0.46913  -0.46856
 Alpha  occ. eigenvalues --   -0.46508  -0.46391  -0.46343  -0.46217  -0.46065
 Alpha  occ. eigenvalues --   -0.45866  -0.45834  -0.45619  -0.45336  -0.45183
 Alpha  occ. eigenvalues --   -0.44978  -0.44883  -0.44333  -0.44283  -0.44134
 Alpha  occ. eigenvalues --   -0.43996  -0.43888  -0.43796  -0.43761  -0.43684
 Alpha  occ. eigenvalues --   -0.43511  -0.43398  -0.43214  -0.43080  -0.42931
 Alpha  occ. eigenvalues --   -0.42876  -0.42655  -0.42607  -0.42460  -0.42371
 Alpha  occ. eigenvalues --   -0.42240  -0.41804  -0.41712  -0.41511  -0.41274
 Alpha  occ. eigenvalues --   -0.41145  -0.41100  -0.40862  -0.40743  -0.40639
 Alpha  occ. eigenvalues --   -0.40508  -0.40467  -0.40410  -0.40233  -0.40205
 Alpha  occ. eigenvalues --   -0.40034  -0.39911  -0.39820  -0.39440  -0.39174
 Alpha  occ. eigenvalues --   -0.38243  -0.38086  -0.37447  -0.37340  -0.37035
 Alpha  occ. eigenvalues --   -0.36937  -0.36910  -0.36781  -0.36340  -0.36062
 Alpha  occ. eigenvalues --   -0.35868  -0.35360  -0.33943  -0.33834  -0.33388
 Alpha  occ. eigenvalues --   -0.32941  -0.32736  -0.31661  -0.30988  -0.30984
 Alpha  occ. eigenvalues --   -0.30660  -0.29946  -0.29385  -0.29092  -0.29015
 Alpha  occ. eigenvalues --   -0.28970  -0.28527  -0.26968  -0.23721  -0.23455
 Alpha  occ. eigenvalues --   -0.20820  -0.20621
 Alpha virt. eigenvalues --   -0.08540  -0.08243  -0.01452  -0.01299   0.00199
 Alpha virt. eigenvalues --    0.00466   0.02468   0.02710   0.03398   0.03888
 Alpha virt. eigenvalues --    0.04928   0.05125   0.05700   0.06049   0.06507

 Mulliken charges:
               1
     1  Mg   0.794736
     2  C    0.026793
     3  C   -0.094222
     4  C   -0.049017
     5  C   -0.042078
     6  N   -0.253311
     7  C   -0.061569
     8  C   -0.011203
     9  C   -0.086478
    10  C    0.044847
    11  C    0.105565
    12  C    0.041185
    13  C   -0.068347
    14  H    0.032239
    15  N   -0.429447
    16  C    0.165976
    17  C   -0.179240
    18  C   -0.005316
    19  C    0.151278
    20  C    0.110625
    21  C    0.011619
    22  O   -0.251479
    23  C    0.062968
    24  N   -0.335864
    25  C    0.040558
    26  C   -0.026918
    27  C   -0.024148
    28  C    0.057890
    29  C    0.077249
    30  C    0.051027
    31  C   -0.022418
    32  N   -0.308557
    33  C    0.052523
    34  C   -0.173026
    35  C    0.011883
    36  C    0.102123
    37  C    0.128781
    38  C    0.048694
    39  O   -0.186475
    40  C   -0.015500
    41  C    0.219486
    42  O   -0.217919
    43  O   -0.310432
    44  C    0.155133
    45  H   -0.019556
    46  H   -0.018916
    47  H   -0.045877
    48  H   -0.000007
    49  H   -0.006322
    50  H    0.025460
    51  H    0.015828
    52  H    0.014840
    53  H    0.007732
    54  H    0.054141
    55  H    0.016782
    56  H    0.014761
    57  H    0.004747
    58  H    0.025650
    59  H    0.037352
    60  H    0.036834
    61  H    0.034348
    62  H    0.030592
    63  H    0.014186
    64  H    0.009665
    65  H    0.022000
    66  H    0.013249
    67  H    0.004024
    68  H    0.005349
    69  H    0.002248
    70  H    0.008568
    71  H    0.022662
    72  H    0.021270
    73  H    0.046727
    74  H    0.005854
    75  H    0.045282
    76  H    0.030872
    77  H    0.038565
    78  H    0.047833
    79  H    0.045476
    80  Mg   0.836460
    81  C   -0.017816
    82  C   -0.088223
    83  C   -0.045902
    84  C   -0.062913
    85  N   -0.253956
    86  C   -0.051537
    87  C   -0.013933
    88  C   -0.090287
    89  C    0.044941
    90  C    0.114879
    91  C    0.062874
    92  C   -0.076968
    93  H    0.034089
    94  N   -0.423174
    95  C    0.161963
    96  C   -0.175626
    97  C   -0.008520
    98  C    0.151464
    99  C    0.099766
   100  C    0.014957
   101  O   -0.254085
   102  C    0.061461
   103  N   -0.350007
   104  C    0.037623
   105  C   -0.020164
   106  C   -0.033614
   107  C    0.087486
   108  C    0.073550
   109  C    0.033324
   110  C   -0.007409
   111  N   -0.323824
   112  C    0.081482
   113  C   -0.182313
   114  C    0.006823
   115  C    0.097682
   116  C    0.173544
   117  C    0.062208
   118  O   -0.145186
   119  C   -0.011532
   120  C    0.233570
   121  O   -0.250537
   122  O   -0.312109
   123  C    0.161752
   124  H   -0.021177
   125  H   -0.016301
   126  H   -0.047130
   127  H   -0.002736
   128  H   -0.005131
   129  H    0.020350
   130  H    0.014395
   131  H    0.014599
   132  H    0.013957
   133  H    0.038729
   134  H    0.019053
   135  H    0.019146
   136  H    0.007687
   137  H    0.024992
   138  H    0.038809
   139  H    0.037733
   140  H    0.035545
   141  H    0.033505
   142  H    0.013525
   143  H    0.014467
   144  H    0.024106
   145  H    0.011789
   146  H    0.006668
   147  H    0.005444
   148  H    0.002777
   149  H    0.010868
   150  H    0.016453
   151  H    0.030855
   152  H    0.047515
   153  H    0.003776
   154  H    0.050874
   155  H    0.028702
   156  H    0.017857
   157  H    0.045643
   158  H    0.057959
 Sum of Mulliken charges =  -0.00000

 Dipole moment (field-independent basis, Debye):
    X=             -0.3857    Y=              2.0407    Z=              6.4810  Tot=              6.8056
 Quadrupole moment (field-independent basis, Debye-Ang):
   XX=           -513.3454   YY=           -487.9334   ZZ=           -499.8119
   XY=            -26.9470   XZ=              9.1027   YZ=             50.1850

 Normal termination of Gaussian 16 at Thu Sep  9 03:17:18 2021.
