 Gaussian 16, Revision A.03,
 Gaussian 16:  ES64L-G16RevA.03 25-Dec-2016

 -----------------------------------
 #p cam-b3lyp/Def2SVP td=(nstates=5)
 -----------------------------------

 --------------------------------
 TDDFT excited states in gaussian
 --------------------------------
 Symbolic Z-matrix:
 Charge =  0 Multiplicity = 1

                         Standard orientation:
 ---------------------------------------------------------------------
 Center     Atomic      Atomic             Coordinates (Angstroms)
 Number     Number       Type             X           Y           Z
 ---------------------------------------------------------------------
      1         12           0        5.087873    1.101565    0.383571
      2          6           0        6.027425   -2.106191   -0.896958
      3          6           0        5.741679    2.365605   -2.717687
      4          6           0        4.702975    4.003044    1.604182
      5          6           0        5.602913   -0.187724    3.580152
      6          7           0        5.788305    0.149576   -1.488262
      7          6           0        6.054686   -1.097772   -1.862874
      8          6           0        6.292079   -1.245186   -3.395612
      9          6           0        6.733932    0.250478   -3.726902
     10          6           0        6.017357    0.971032   -2.598520
     11          6           0        8.234113    0.487801   -3.586773
     12          6           0        4.986372   -1.640385   -4.164169
     13          6           0        5.195253   -2.120511   -5.603335
     14          1           0        4.334382   -3.172512   -6.122513
     15          7           0        4.733853    2.829345   -0.506539
     16          6           0        5.053453    3.165010   -1.779516
     17          6           0        4.582190    4.554289   -1.965251
     18          6           0        4.133677    5.063699   -0.639570
     19          6           0        4.535133    3.980860    0.221632
     20          6           0        4.543045    5.238761   -3.297060
     21          6           0        3.460971    6.330612   -0.214683
     22          8           0        3.369594    6.673324    1.013639
     23          6           0        2.983632    7.214664   -1.293405
     24          7           0        5.353842    1.882143    2.301277
     25          6           0        5.060080    3.158250    2.573741
     26          6           0        5.057576    3.414409    4.051684
     27          6           0        5.173610    1.982476    4.748718
     28          6           0        5.312445    1.111069    3.476066
     29          6           0        6.174421    4.328439    4.574386
     30          6           0        4.078900    1.611895    5.780561
     31          6           0        2.748239    1.448556    5.080732
     32          7           0        5.531935   -0.845058    1.234755
     33          6           0        5.726564   -1.148124    2.590094
     34          6           0        6.108807   -2.570260    2.664183
     35          6           0        6.126238   -2.994194    1.336847
     36          6           0        5.802620   -1.899208    0.485630
     37          6           0        6.442760   -3.282774    3.849608
     38          6           0        6.367025   -4.111334    0.438028
     39          8           0        6.583096   -5.314687    0.588860
     40          6           0        6.431828   -3.551251   -1.051245
     41          6           0        5.567174   -4.435823   -1.907525
     42          8           0        4.329430   -4.465431   -1.751066
     43          8           0        6.297029   -4.922318   -2.922994
     44          6           0        5.491245   -5.784935   -3.827846
     45          1           0        6.137891    2.910434   -3.576826
     46          1           0        4.471047    4.960146    2.075990
     47          1           0        5.696866   -0.680615    4.549526
     48          1           0        7.088893   -1.937676   -3.667587
     49          1           0        6.352135    0.583333   -4.691868
     50          1           0        8.736079   -0.378734   -3.156578
     51          1           0        8.331980    1.350582   -2.927588
     52          1           0        8.669478    0.788231   -4.540175
     53          1           0        4.394484   -0.744491   -4.351534
     54          1           0        4.425933   -2.394370   -3.610327
     55          1           0        6.242590   -2.353265   -5.797805
     56          1           0        4.972576   -1.291820   -6.275560
     57          1           0        5.088956    4.675621   -4.052970
     58          1           0        5.102657    6.168228   -3.193928
     59          1           0        3.523887    5.456790   -3.616612
     60          1           0        3.825921    7.500121   -1.923970
     61          1           0        2.450750    8.027942   -0.802014
     62          1           0        2.298830    6.655213   -1.931378
     63          1           0        4.128860    3.889800    4.364600
     64          1           0        6.107509    1.870420    5.300035
     65          1           0        5.808523    5.201576    5.115178
     66          1           0        6.792353    4.623940    3.726960
     67          1           0        6.905862    3.836103    5.214711
     68          1           0        3.960854    2.410984    6.511634
     69          1           0        4.294693    0.692901    6.325660
     70          1           0        2.380472    2.471920    5.015114
     71          1           0        2.077555    0.830234    5.678287
     72          1           0        2.876564    1.082466    4.061911
     73          1           0        5.943586   -4.248862    3.775668
     74          1           0        6.125997   -2.740359    4.740141
     75          1           0        7.527379   -3.334009    3.755626
     76          1           0        7.478047   -3.584989   -1.353586
     77          1           0        5.994490   -6.750287   -3.883300
     78          1           0        5.363596   -5.226846   -4.755557
     79          1           0        4.509680   -6.085409   -3.459630
     80         12           0       -5.249103   -1.199691    0.258558
     81          6           0       -5.716602    1.936514   -1.422142
     82          6           0       -4.783647    0.579478    3.131278
     83          6           0       -4.389606   -3.904601    1.677067
     84          6           0       -4.619057   -2.619357   -2.861261
     85          7           0       -5.272111    0.972729    0.673710
     86          6           0       -5.521428    2.065986   -0.031248
     87          6           0       -5.643558    3.362306    0.813853
     88          6           0       -4.778450    2.902297    2.086196
     89          6           0       -4.980721    1.391760    1.986091
     90          6           0       -3.294358    3.195993    1.942877
     91          6           0       -7.127906    3.678380    1.212405
     92          6           0       -7.358420    5.084438    1.770632
     93          1           0       -8.613726    5.761024    1.456127
     94          7           0       -5.152992   -1.665147    2.185397
     95          6           0       -4.983882   -0.815630    3.220286
     96          6           0       -4.960306   -1.653748    4.429066
     97          6           0       -4.964024   -3.081697    4.009941
     98          6           0       -4.811338   -2.935983    2.576219
     99          6           0       -5.017349   -1.082910    5.816265
    100          6           0       -5.072524   -4.366228    4.774405
    101          8           0       -4.814097   -5.497549    4.230209
    102          6           0       -5.399415   -4.253119    6.203338
    103          7           0       -4.392123   -2.954841   -0.453733
    104          6           0       -4.169982   -3.997702    0.365421
    105          6           0       -3.807176   -5.237740   -0.416290
    106          6           0       -4.069020   -4.870341   -1.950575
    107          6           0       -4.470503   -3.387551   -1.790758
    108          6           0       -2.370559   -5.732516   -0.249749
    109          6           0       -5.014299   -5.810244   -2.747886
    110          6           0       -6.424846   -5.695492   -2.216301
    111          7           0       -5.353420   -0.545131   -1.797830
    112          6           0       -5.020795   -1.292579   -2.948804
    113          6           0       -5.142995   -0.384740   -4.107828
    114          6           0       -5.518912    0.843727   -3.543860
    115          6           0       -5.603970    0.716076   -2.131072
    116          6           0       -4.870615   -0.724496   -5.462997
    117          6           0       -5.852783    2.222190   -3.821489
    118          8           0       -6.030613    2.884093   -4.843243
    119          6           0       -5.872592    3.023627   -2.449009
    120          6           0       -7.129957    3.848304   -2.410796
    121          8           0       -8.244947    3.299145   -2.368071
    122          8           0       -6.804713    5.138696   -2.212117
    123          6           0       -8.019357    5.995004   -2.155728
    124          1           0       -4.398664    1.046199    4.038396
    125          1           0       -4.187526   -4.889214    2.105053
    126          1           0       -4.534761   -3.011140   -3.877171
    127          1           0       -5.201575    4.242333    0.362211
    128          1           0       -5.203142    3.283391    3.011265
    129          1           0       -3.049071    3.559590    0.956070
    130          1           0       -2.788955    2.259081    2.137316
    131          1           0       -2.968417    3.883065    2.729020
    132          1           0       -7.397476    3.080326    2.092406
    133          1           0       -7.789505    3.504691    0.386116
    134          1           0       -6.506096    5.748122    1.580856
    135          1           0       -7.411204    5.020872    2.860217
    136          1           0       -4.840768   -0.000223    5.813288
    137          1           0       -4.165215   -1.495577    6.367132
    138          1           0       -5.938158   -1.344591    6.341899
    139          1           0       -4.644123   -3.648559    6.699825
    140          1           0       -5.521150   -5.278665    6.557329
    141          1           0       -6.348824   -3.715341    6.303528
    142          1           0       -4.444265   -6.069048   -0.140335
    143          1           0       -3.138543   -4.882517   -2.536996
    144          1           0       -2.307568   -6.778738    0.104557
    145          1           0       -1.857778   -5.068258    0.433143
    146          1           0       -1.752843   -5.666547   -1.143773
    147          1           0       -4.715148   -6.852420   -2.611782
    148          1           0       -5.019795   -5.613483   -3.814780
    149          1           0       -6.419746   -6.370563   -1.355292
    150          1           0       -7.144281   -6.017829   -2.966331
    151          1           0       -6.623139   -4.684644   -1.841451
    152          1           0       -5.666909   -0.296519   -6.057363
    153          1           0       -4.808076   -1.802307   -5.597808
    154          1           0       -3.900832   -0.237332   -5.595081
    155          1           0       -4.975528    3.643244   -2.418492
    156          1           0       -7.893755    6.777750   -2.910188
    157          1           0       -8.106831    6.320387   -1.102054
    158          1           0       -8.959261    5.552581   -2.464430
 ---------------------------------------------------------------------

 SCF Done:  E(RCAM-B3LYP) =  -4069.81197865     A.U. after   19 cycles

 Excitation energies and oscillator strengths:

 Excited State   1:      Singlet-A      1.6629 eV  745.57 nm  f=0.1183  <S**2>=0.000
     309 -> 315       -0.10666
     310 -> 316       -0.13349
     311 -> 313       -0.42893
     312 -> 314        0.53635
 This state for optimization and/or second-order correction.
 Total Energy, E(TD-HF/TD-DFT) =  -4069.75086669
 Copying the excited state density for this state as the 1-particle RhoCI density.

 Excited State   2:      Singlet-A      1.6890 eV  734.06 nm  f=0.5924  <S**2>=0.000
     309 -> 315        0.13876
     310 -> 316       -0.11051
     311 -> 313        0.53493
     312 -> 314        0.42783

 Excited State   3:      Singlet-A      2.1835 eV  567.83 nm  f=0.0568  <S**2>=0.000
     309 -> 313        0.22749
     310 -> 314        0.60221
     312 -> 316        0.25313

 Excited State   4:      Singlet-A      2.1941 eV  565.07 nm  f=0.1329  <S**2>=0.000
     309 -> 313        0.59882
     310 -> 314       -0.22529
     311 -> 315       -0.26149

 Excited State   5:      Singlet-A      2.4852 eV  498.89 nm  f=0.0000  <S**2>=0.000
     312 -> 313        0.70709

 The electronic state is 1-A.
 Alpha  occ. eigenvalues --  -46.87885 -46.87493 -19.26369 -19.26284 -19.19110
 Alpha  occ. eigenvalues --  -19.19082 -19.18912 -19.18557 -19.18243 -19.17950
 Alpha  occ. eigenvalues --  -14.42533 -14.42333 -14.41547 -14.41175 -14.39490
 Alpha  occ. eigenvalues --  -14.39189 -14.38672 -14.38444 -10.39168 -10.39009
 Alpha  occ. eigenvalues --  -10.35543 -10.35234 -10.34464 -10.34128 -10.31767
 Alpha  occ. eigenvalues --  -10.31707 -10.31482 -10.31162 -10.30987 -10.30866
 Alpha  occ. eigenvalues --  -10.30650 -10.30601 -10.30309 -10.30238 -10.30219
 Alpha  occ. eigenvalues --  -10.30026 -10.29942 -10.29714 -10.29701 -10.29339
 Alpha  occ. eigenvalues --  -10.29268 -10.29259 -10.28814 -10.28593 -10.28580
 Alpha  occ. eigenvalues --  -10.28551 -10.28445 -10.28254 -10.28177 -10.27985
 Alpha  occ. eigenvalues --  -10.27871 -10.27857 -10.27805 -10.27666 -10.27643
 Alpha  occ. eigenvalues --  -10.27591 -10.27518 -10.27509 -10.27488 -10.27344
 Alpha  occ. eigenvalues --  -10.27329 -10.27321 -10.27263 -10.27237 -10.27083
 Alpha  occ. eigenvalues --  -10.26950 -10.26767 -10.26574 -10.26480 -10.26375
 Alpha  occ. eigenvalues --  -10.26288 -10.26277 -10.26116 -10.25931 -10.25913
 Alpha  occ. eigenvalues --  -10.25839 -10.25767 -10.25758 -10.25565 -10.24943
 Alpha  occ. eigenvalues --  -10.24926 -10.24911 -10.24887 -10.24735 -10.24551
 Alpha  occ. eigenvalues --  -10.24504  -3.16628  -3.16243  -1.91510  -1.91125
 Alpha  occ. eigenvalues --   -1.91096  -1.90938  -1.90714  -1.90551  -1.16718
 Alpha  occ. eigenvalues --   -1.16575  -1.08701  -1.08565  -1.07316  -1.06868
 Alpha  occ. eigenvalues --   -1.06807  -1.06731  -1.04663  -1.04337  -1.03854
 Alpha  occ. eigenvalues --   -1.03496  -1.03322  -1.02864  -1.02501  -1.01943
 Alpha  occ. eigenvalues --   -0.92055  -0.91846  -0.89645  -0.89308  -0.89255
 Alpha  occ. eigenvalues --   -0.89000  -0.88412  -0.87994  -0.87947  -0.87755
 Alpha  occ. eigenvalues --   -0.87665  -0.87518  -0.87347  -0.86977  -0.85057
 Alpha  occ. eigenvalues --   -0.84849  -0.84076  -0.83652  -0.83059  -0.82765
 Alpha  occ. eigenvalues --   -0.82730  -0.82502  -0.81672  -0.81481  -0.80682
 Alpha  occ. eigenvalues --   -0.80307  -0.78871  -0.78494  -0.77315  -0.77021
 Alpha  occ. eigenvalues --   -0.76991  -0.76736  -0.76001  -0.75701  -0.75012
 Alpha  occ. eigenvalues --   -0.74556  -0.72862  -0.72543  -0.71761  -0.71387
 Alpha  occ. eigenvalues --   -0.70063  -0.69537  -0.68950  -0.68680  -0.67728
 Alpha  occ. eigenvalues --   -0.67445  -0.67291  -0.67065  -0.65365  -0.65132
 Alpha  occ. eigenvalues --   -0.64946  -0.64717  -0.64618  -0.64506  -0.64387
 Alpha  occ. eigenvalues --   -0.64003  -0.62390  -0.62157  -0.60530  -0.60172
 Alpha  occ. eigenvalues --   -0.59876  -0.59649  -0.59080  -0.58826  -0.58594
 Alpha  occ. eigenvalues --   -0.58271  -0.57668  -0.57448  -0.57411  -0.57062
 Alpha  occ. eigenvalues --   -0.56388  -0.56069  -0.56062  -0.55774  -0.55603
 Alpha  occ. eigenvalues --   -0.55458  -0.55325  -0.55065  -0.54637  -0.54312
 Alpha  occ. eigenvalues --   -0.53964  -0.53764  -0.53390  -0.53298  -0.53073
 Alpha  occ. eigenvalues --   -0.53010  -0.53003  -0.52830  -0.52766  -0.52598
 Alpha  occ. eigenvalues --   -0.52527  -0.52208  -0.51991  -0.51776  -0.51686
 Alpha  occ. eigenvalues --   -0.51526  -0.51290  -0.51063  -0.50642  -0.50326
 Alpha  occ. eigenvalues --   -0.50157  -0.49997  -0.49822  -0.49634  -0.49592
 Alpha  occ. eigenvalues --   -0.49343  -0.49293  -0.49167  -0.49071  -0.48963
 Alpha  occ. eigenvalues --   -0.48677  -0.48569  -0.48530  -0.48427  -0.48203
 Alpha  occ. eigenvalues --   -0.48139  -0.47782  -0.47439  -0.47381  -0.46942
 Alpha  occ. eigenvalues --   -0.46896  -0.46627  -0.46542  -0.46452  -0.46399
 Alpha  occ. eigenvalues --   -0.46259  -0.46111  -0.45903  -0.45903  -0.45692
 Alpha  occ. eigenvalues --   -0.45320  -0.44951  -0.44663  -0.44597  -0.44377
 Alpha  occ. eigenvalues --   -0.44323  -0.44254  -0.44164  -0.44097  -0.43984
 Alpha  occ. eigenvalues --   -0.43906  -0.43808  -0.43583  -0.43475  -0.43431
 Alpha  occ. eigenvalues --   -0.43217  -0.43118  -0.42828  -0.42821  -0.42768
 Alpha  occ. eigenvalues --   -0.42739  -0.42354  -0.42128  -0.41795  -0.41792
 Alpha  occ. eigenvalues --   -0.41612  -0.41518  -0.41301  -0.41227  -0.40966
 Alpha  occ. eigenvalues --   -0.40913  -0.40807  -0.40688  -0.40571  -0.40541
 Alpha  occ. eigenvalues --   -0.40301  -0.40278  -0.40094  -0.39610  -0.39213
 Alpha  occ. eigenvalues --   -0.38590  -0.38121  -0.37822  -0.37515  -0.37433
 Alpha  occ. eigenvalues --   -0.37338  -0.37083  -0.37044  -0.36812  -0.36660
 Alpha  occ. eigenvalues --   -0.36294  -0.36031  -0.34374  -0.34092  -0.33861
 Alpha  occ. eigenvalues --   -0.33767  -0.33276  -0.33014  -0.31443  -0.31126
 Alpha  occ. eigenvalues --   -0.31112  -0.30808  -0.30103  -0.29857  -0.29531
 Alpha  occ. eigenvalues --   -0.29401  -0.29180  -0.29073  -0.24169  -0.23872
 Alpha  occ. eigenvalues --   -0.21214  -0.20953
 Alpha virt. eigenvalues --   -0.08858  -0.08638  -0.01843  -0.01508  -0.00140
 Alpha virt. eigenvalues --    0.00119   0.02115   0.02341   0.03009   0.03384
 Alpha virt. eigenvalues --    0.04636   0.04892   0.05012   0.05251   0.06105

 Mulliken charges:
               1
     1  Mg   0.838612
     2  C   -0.002914
     3  C   -0.093536
     4  C   -0.046370
     5  C   -0.064037
     6  N   -0.256768
     7  C   -0.052387
     8  C   -0.014072
     9  C   -0.087087
    10  C    0.046285
    11  C    0.104728
    12  C    0.053382
    13  C   -0.071832
    14  H    0.035691
    15  N   -0.433146
    16  C    0.168360
    17  C   -0.176669
    18  C   -0.004097
    19  C    0.148608
    20  C    0.109943
    21  C    0.011792
    22  O   -0.250515
    23  C    0.062488
    24  N   -0.341015
    25  C    0.041257
    26  C   -0.028106
    27  C   -0.023844
    28  C    0.074471
    29  C    0.076171
    30  C    0.035313
    31  C   -0.004330
    32  N   -0.310491
    33  C    0.080330
    34  C   -0.169555
    35  C    0.008502
    36  C    0.082960
    37  C    0.127296
    38  C    0.046186
    39  O   -0.188182
    40  C   -0.005412
    41  C    0.213096
    42  O   -0.257555
    43  O   -0.304607
    44  C    0.157818
    45  H   -0.017142
    46  H   -0.017323
    47  H   -0.041657
    48  H    0.001053
    49  H   -0.003576
    50  H    0.025500
    51  H    0.016439
    52  H    0.017007
    53  H    0.011602
    54  H    0.043689
    55  H    0.018039
    56  H    0.018516
    57  H    0.006304
    58  H    0.026969
    59  H    0.040601
    60  H    0.037848
    61  H    0.035273
    62  H    0.032154
    63  H    0.015502
    64  H    0.009700
    65  H    0.022863
    66  H    0.012975
    67  H    0.004914
    68  H    0.005829
    69  H    0.005054
    70  H    0.007302
    71  H    0.016847
    72  H    0.029854
    73  H    0.047950
    74  H    0.008905
    75  H    0.046109
    76  H    0.035375
    77  H    0.043182
    78  H    0.046543
    79  H    0.053040
    80  Mg   0.838010
    81  C   -0.017220
    82  C   -0.088050
    83  C   -0.044889
    84  C   -0.064231
    85  N   -0.254684
    86  C   -0.049980
    87  C   -0.015083
    88  C   -0.090500
    89  C    0.045983
    90  C    0.114529
    91  C    0.062558
    92  C   -0.077729
    93  H    0.034228
    94  N   -0.423614
    95  C    0.163342
    96  C   -0.174659
    97  C   -0.007406
    98  C    0.152285
    99  C    0.099431
   100  C    0.015637
   101  O   -0.252391
   102  C    0.061256
   103  N   -0.350018
   104  C    0.038521
   105  C   -0.020587
   106  C   -0.034404
   107  C    0.089053
   108  C    0.072351
   109  C    0.034629
   110  C   -0.007529
   111  N   -0.323909
   112  C    0.078283
   113  C   -0.163548
   114  C    0.001660
   115  C    0.096231
   116  C    0.131668
   117  C    0.041656
   118  O   -0.189323
   119  C    0.001200
   120  C    0.211140
   121  O   -0.251037
   122  O   -0.305802
   123  C    0.152167
   124  H   -0.019830
   125  H   -0.014632
   126  H   -0.040830
   127  H   -0.001006
   128  H   -0.004604
   129  H    0.022103
   130  H    0.014701
   131  H    0.017305
   132  H    0.013831
   133  H    0.037394
   134  H    0.020933
   135  H    0.019580
   136  H    0.008541
   137  H    0.025877
   138  H    0.039535
   139  H    0.038020
   140  H    0.036397
   141  H    0.033541
   142  H    0.013807
   143  H    0.013561
   144  H    0.025253
   145  H    0.014482
   146  H    0.009403
   147  H    0.006576
   148  H    0.002843
   149  H    0.011003
   150  H    0.017182
   151  H    0.029737
   152  H    0.045367
   153  H    0.008468
   154  H    0.045828
   155  H    0.034016
   156  H    0.043276
   157  H    0.049677
   158  H    0.053441
 Sum of Mulliken charges =  -0.00000

 Dipole moment (field-independent basis, Debye):
    X=              3.3867    Y=              3.8999    Z=              0.9729  Tot=              5.2560
 Quadrupole moment (field-independent basis, Debye-Ang):
   XX=           -523.0305   YY=           -530.7144   ZZ=           -465.9702
   XY=             15.1515   XZ=            -48.6908   YZ=             26.9989

 Normal termination of Gaussian 16 at Fri Sep 10 16:12:02 2021.
