 Gaussian 16, Revision A.03,
 Gaussian 16:  ES64L-G16RevA.03 25-Dec-2016

 -----------------------------------
 #p cam-b3lyp/Def2SVP td=(nstates=5)
 -----------------------------------

 --------------------------------
 TDDFT excited states in gaussian
 --------------------------------
 Symbolic Z-matrix:
 Charge =  0 Multiplicity = 1

                         Standard orientation:
 ---------------------------------------------------------------------
 Center     Atomic      Atomic             Coordinates (Angstroms)
 Number     Number       Type             X           Y           Z
 ---------------------------------------------------------------------
      1         12           0       -3.723184   -0.668430   -0.527106
      2          6           0       -4.216288    2.869100   -0.761505
      3          6           0       -4.375149   -0.830927   -3.872491
      4          6           0       -3.741269   -3.828297   -0.259648
      5          6           0       -4.232092   -0.363039    2.907047
      6          7           0       -4.217592    0.890653   -2.018905
      7          6           0       -4.316967    2.216009   -1.991945
      8          6           0       -4.462999    2.853504   -3.406034
      9          6           0       -5.062254    1.599271   -4.186925
     10          6           0       -4.489574    0.483685   -3.330519
     11          6           0       -6.584877    1.522693   -4.139426
     12          6           0       -3.085103    3.295722   -4.004012
     13          6           0       -3.167978    4.214998   -5.226067
     14          1           0       -2.165504    5.257253   -5.387612
     15          7           0       -3.534151   -2.071887   -1.904577
     16          6           0       -3.830956   -1.959218   -3.221580
     17          6           0       -3.518777   -3.273293   -3.823603
     18          6           0       -3.196336   -4.215913   -2.716539
     19          6           0       -3.507192   -3.406245   -1.566241
     20          6           0       -3.498153   -3.517304   -5.301366
     21          6           0       -2.698599   -5.626608   -2.698363
     22          8           0       -2.706147   -6.336889   -1.635340
     23          6           0       -2.278787   -6.191842   -3.993473
     24          7           0       -4.169267   -1.957243    1.053276
     25          6           0       -4.041326   -3.282003    0.920511
     26          6           0       -4.138541   -3.975600    2.246939
     27          6           0       -4.117365   -2.822521    3.351345
     28          6           0       -4.092399   -1.593745    2.409136
     29          6           0       -5.378795   -4.856275    2.452348
     30          6           0       -3.036277   -2.926841    4.456236
     31          6           0       -1.664228   -2.727592    3.852183
     32          7           0       -3.973867    0.964859    0.880221
     33          6           0       -4.194842    0.861457    2.261218
     34          6           0       -4.409597    2.229364    2.767953
     35          6           0       -4.314462    3.037171    1.636475
     36          6           0       -4.082716    2.222859    0.491276
     37          6           0       -4.712450    2.581938    4.112723
     38          6           0       -4.379185    4.396559    1.124879
     39          8           0       -4.458547    5.513484    1.638372
     40          6           0       -4.439583    4.331223   -0.465061
     41          6           0       -3.437276    5.317986   -0.998904
     42          8           0       -2.213422    5.141199   -0.830700
     43          8           0       -4.056064    6.179874   -1.820362
     44          6           0       -3.112459    7.168222   -2.407670
     45          1           0       -4.792084   -1.032370   -4.861191
     46          1           0       -3.646374   -4.905073   -0.104771
     47          1           0       -4.312660   -0.182145    3.980472
     48          1           0       -5.158831    3.691128   -3.457312
     49          1           0       -4.677490    1.531563   -5.204321
     50          1           0       -7.000706    2.272657   -3.466698
     51          1           0       -6.814776    0.519495   -3.779937
     52          1           0       -7.007369    1.585656   -5.142577
     53          1           0       -2.594960    2.432463   -4.454128
     54          1           0       -2.466234    3.766999   -3.239666
     55          1           0       -4.170213    4.626849   -5.347771
     56          1           0       -3.013333    3.610102   -6.119591
     57          1           0       -3.937639   -2.685706   -5.850768
     58          1           0       -4.167793   -4.355007   -5.495130
     59          1           0       -2.497974   -3.754643   -5.664192
     60          1           0       -3.118311   -6.161791   -4.688344
     61          1           0       -1.869319   -7.177029   -3.773036
     62          1           0       -1.503512   -5.555792   -4.421654
     63          1           0       -3.288174   -4.637578    2.405330
     64          1           0       -5.056379   -2.766807    3.902546
     65          1           0       -5.144345   -5.891873    2.699886
     66          1           0       -5.986773   -4.797892    1.549993
     67          1           0       -6.076285   -4.494551    3.207384
     68          1           0       -3.047873   -3.919270    4.905564
     69          1           0       -3.167459   -2.198758    5.256822
     70          1           0       -1.417158   -3.719927    3.476605
     71          1           0       -0.954076   -2.411673    4.617095
     72          1           0       -1.700417   -2.054570    2.995317
     73          1           0       -4.099806    3.452946    4.345065
     74          1           0       -4.504135    1.757821    4.794661
     75          1           0       -5.777814    2.796514    4.030185
     76          1           0       -5.459131    4.588076   -0.750841
     77          1           0       -3.495067    8.159977   -2.166283
     78          1           0       -3.008122    6.908799   -3.461339
     79          1           0       -2.120685    7.214837   -1.956505
     80         12           0        4.159894    0.005884   -0.023051
     81          6           0        2.781835    0.172624    3.286367
     82          6           0        3.972004   -3.390385    0.231184
     83          6           0        5.782626   -0.188115   -2.742706
     84          6           0        5.282630    3.273927    0.429868
     85          7           0        3.449726   -1.319424    1.599130
     86          6           0        2.890442   -1.141858    2.786571
     87          6           0        2.348084   -2.439910    3.442669
     88          6           0        3.279912   -3.502351    2.679904
     89          6           0        3.561475   -2.709648    1.405138
     90          6           0        4.601623   -3.758738    3.384654
     91          6           0        0.829302   -2.678611    3.129071
     92          6           0        0.157288   -3.754529    3.984971
     93          1           0       -1.237723   -3.564694    4.372739
     94          7           0        4.345921   -1.499357   -1.302965
     95          6           0        4.214549   -2.815645   -1.035766
     96          6           0        4.466680   -3.511393   -2.307196
     97          6           0        4.919411   -2.508365   -3.309033
     98          6           0        5.056495   -1.337418   -2.466318
     99          6           0        4.198211   -4.975602   -2.500700
    100          6           0        5.196944   -2.592622   -4.779432
    101          8           0        5.809421   -1.655704   -5.403839
    102          6           0        4.813812   -3.844597   -5.448214
    103          7           0        5.539807    1.265804   -0.934524
    104          6           0        6.054574    0.970011   -2.140949
    105          6           0        6.806300    2.146417   -2.716574
    106          6           0        6.483170    3.377931   -1.748824
    107          6           0        5.635281    2.647589   -0.684364
    108          6           0        8.320696    1.975302   -2.833752
    109          6           0        5.899344    4.657160   -2.408641
    110          6           0        4.509953    4.378187   -2.935107
    111          7           0        3.910496    1.542619    1.475059
    112          6           0        4.489614    2.830509    1.480537
    113          6           0        4.120761    3.468289    2.761010
    114          6           0        3.365877    2.490845    3.426780
    115          6           0        3.287948    1.318802    2.626933
    116          6           0        4.520863    4.765189    3.190054
    117          6           0        2.626171    2.180218    4.628880
    118          8           0        2.277593    2.815794    5.622999
    119          6           0        2.321528    0.620318    4.645886
    120          6           0        0.869145    0.434428    4.990203
    121          8           0       -0.019701    0.829964    4.215543
    122          8           0        0.770460   -0.368221    6.065553
    123          6           0       -0.651691   -0.591400    6.439038
    124          1           0        4.168370   -4.461062    0.294133
    125          1           0        6.270408   -0.162152   -3.719884
    126          1           0        5.511440    4.327351    0.604822
    127          1           0        2.505252   -2.508086    4.512447
    128          1           0        2.733507   -4.413264    2.449602
    129          1           0        4.747021   -3.093455    4.222743
    130          1           0        5.368725   -3.599989    2.638066
    131          1           0        4.676364   -4.810727    3.674603
    132          1           0        0.736756   -3.141768    2.138275
    133          1           0        0.276721   -1.762070    3.201288
    134          1           0        0.764795   -4.026849    4.856590
    135          1           0        0.098475   -4.676092    3.400776
    136          1           0        4.028355   -5.483386   -1.543250
    137          1           0        5.121806   -5.422007   -2.884812
    138          1           0        3.391492   -5.165535   -3.211902
    139          1           0        5.329657   -4.678061   -4.977352
    140          1           0        5.008743   -3.680354   -6.509774
    141          1           0        3.741769   -4.010051   -5.293437
    142          1           0        6.453228    2.380716   -3.713345
    143          1           0        7.386060    3.741221   -1.236327
    144          1           0        8.697516    2.117062   -3.864286
    145          1           0        8.582712    0.992540   -2.464883
    146          1           0        8.910202    2.627728   -2.191869
    147          1           0        6.504903    4.949001   -3.270200
    148          1           0        5.860671    5.509566   -1.738625
    149          1           0        4.702785    3.919244   -3.909412
    150          1           0        3.946782    5.303416   -3.039158
    151          1           0        3.996575    3.633520   -2.315780
    152          1           0        3.646657    5.233588    3.622350
    153          1           0        4.919899    5.351427    2.364912
    154          1           0        5.293473    4.500462    3.916860
    155          1           0        2.979514    0.166096    5.387726
    156          1           0       -0.756755   -0.296190    7.487610
    157          1           0       -0.863809   -1.648054    6.189544
    158          1           0       -1.398340    0.036255    5.966790
 ---------------------------------------------------------------------

 SCF Done:  E(RCAM-B3LYP) =  -4069.50477836     A.U. after   22 cycles

 Excitation energies and oscillator strengths:

 Excited State   1:      Singlet-A      1.3223 eV  937.67 nm  f=0.0180  <S**2>=0.000
     312 -> 313        0.70289
 This state for optimization and/or second-order correction.
 Total Energy, E(TD-HF/TD-DFT) =  -4069.45618632
 Copying the excited state density for this state as the 1-particle RhoCI density.

 Excited State   2:      Singlet-A      1.5935 eV  778.06 nm  f=0.0103  <S**2>=0.000
     311 -> 314        0.12526
     312 -> 314        0.68853

 Excited State   3:      Singlet-A      1.6389 eV  756.51 nm  f=0.0207  <S**2>=0.000
     309 -> 316        0.12502
     310 -> 313       -0.39318
     311 -> 314        0.54551
     312 -> 314       -0.14864

 Excited State   4:      Singlet-A      1.7151 eV  722.90 nm  f=0.6459  <S**2>=0.000
     308 -> 315        0.14677
     309 -> 316        0.10393
     310 -> 313        0.55588
     311 -> 314        0.39731

 Excited State   5:      Singlet-A      2.1145 eV  586.36 nm  f=0.0000  <S**2>=0.000
     311 -> 313        0.70637

 The electronic state is 1-A.
 Alpha  occ. eigenvalues --  -46.88145 -46.87024 -19.26828 -19.26306 -19.19386
 Alpha  occ. eigenvalues --  -19.19147 -19.19025 -19.18322 -19.18270 -19.17630
 Alpha  occ. eigenvalues --  -14.42756 -14.41989 -14.41657 -14.40779 -14.39741
 Alpha  occ. eigenvalues --  -14.38852 -14.38759 -14.37995 -10.39253 -10.39107
 Alpha  occ. eigenvalues --  -10.35780 -10.35011 -10.34490 -10.33819 -10.32885
 Alpha  occ. eigenvalues --  -10.31688 -10.31667 -10.31197 -10.30873 -10.30854
 Alpha  occ. eigenvalues --  -10.30848 -10.30475 -10.30447 -10.30116 -10.29916
 Alpha  occ. eigenvalues --  -10.29824 -10.29728 -10.29595 -10.29569 -10.29333
 Alpha  occ. eigenvalues --  -10.28985 -10.28927 -10.28866 -10.28828 -10.28639
 Alpha  occ. eigenvalues --  -10.28624 -10.28617 -10.28598 -10.28310 -10.28031
 Alpha  occ. eigenvalues --  -10.28026 -10.27883 -10.27830 -10.27722 -10.27686
 Alpha  occ. eigenvalues --  -10.27459 -10.27327 -10.27290 -10.27071 -10.27066
 Alpha  occ. eigenvalues --  -10.26975 -10.26934 -10.26930 -10.26907 -10.26829
 Alpha  occ. eigenvalues --  -10.26809 -10.26735 -10.26723 -10.26655 -10.26601
 Alpha  occ. eigenvalues --  -10.26417 -10.26259 -10.26169 -10.25901 -10.25733
 Alpha  occ. eigenvalues --  -10.25363 -10.25329 -10.25245 -10.25012 -10.25003
 Alpha  occ. eigenvalues --  -10.24865 -10.24824 -10.24329 -10.24321 -10.24132
 Alpha  occ. eigenvalues --  -10.16858  -3.16886  -3.15777  -1.91766  -1.91357
 Alpha  occ. eigenvalues --   -1.91194  -1.90660  -1.90245  -1.90086  -1.17064
 Alpha  occ. eigenvalues --   -1.16655  -1.08707  -1.08309  -1.07553  -1.07150
 Alpha  occ. eigenvalues --   -1.06651  -1.06586  -1.04899  -1.04260  -1.03729
 Alpha  occ. eigenvalues --   -1.03588  -1.02981  -1.02767  -1.02462  -1.01503
 Alpha  occ. eigenvalues --   -0.97281  -0.92220  -0.91451  -0.89571  -0.89369
 Alpha  occ. eigenvalues --   -0.88994  -0.88462  -0.88032  -0.87998  -0.87846
 Alpha  occ. eigenvalues --   -0.87618  -0.87546  -0.87180  -0.86644  -0.86566
 Alpha  occ. eigenvalues --   -0.85201  -0.83923  -0.83530  -0.83512  -0.83007
 Alpha  occ. eigenvalues --   -0.82569  -0.82353  -0.81964  -0.81493  -0.80903
 Alpha  occ. eigenvalues --   -0.80370  -0.79492  -0.79005  -0.78084  -0.77231
 Alpha  occ. eigenvalues --   -0.76730  -0.76516  -0.76002  -0.75745  -0.74897
 Alpha  occ. eigenvalues --   -0.74355  -0.73271  -0.72520  -0.72038  -0.71746
 Alpha  occ. eigenvalues --   -0.70927  -0.69299  -0.69186  -0.68024  -0.67901
 Alpha  occ. eigenvalues --   -0.67462  -0.67150  -0.66837  -0.65836  -0.65365
 Alpha  occ. eigenvalues --   -0.65058  -0.64907  -0.64793  -0.64409  -0.64028
 Alpha  occ. eigenvalues --   -0.63652  -0.62594  -0.62204  -0.61186  -0.60439
 Alpha  occ. eigenvalues --   -0.60141  -0.59932  -0.59825  -0.59196  -0.58738
 Alpha  occ. eigenvalues --   -0.58634  -0.58281  -0.57873  -0.57797  -0.57590
 Alpha  occ. eigenvalues --   -0.57276  -0.56745  -0.56618  -0.56133  -0.55801
 Alpha  occ. eigenvalues --   -0.55684  -0.55483  -0.55169  -0.55143  -0.54791
 Alpha  occ. eigenvalues --   -0.54255  -0.54131  -0.53791  -0.53473  -0.53379
 Alpha  occ. eigenvalues --   -0.52998  -0.52907  -0.52842  -0.52737  -0.52575
 Alpha  occ. eigenvalues --   -0.52304  -0.52025  -0.51967  -0.51876  -0.51799
 Alpha  occ. eigenvalues --   -0.51458  -0.51367  -0.50978  -0.50949  -0.50733
 Alpha  occ. eigenvalues --   -0.50254  -0.50121  -0.50047  -0.49742  -0.49521
 Alpha  occ. eigenvalues --   -0.49415  -0.49368  -0.49261  -0.49069  -0.48906
 Alpha  occ. eigenvalues --   -0.48738  -0.48707  -0.48498  -0.48339  -0.48211
 Alpha  occ. eigenvalues --   -0.47949  -0.47902  -0.47652  -0.47599  -0.47293
 Alpha  occ. eigenvalues --   -0.47143  -0.46812  -0.46722  -0.46670  -0.46345
 Alpha  occ. eigenvalues --   -0.46252  -0.45996  -0.45914  -0.45791  -0.45659
 Alpha  occ. eigenvalues --   -0.45525  -0.45196  -0.44876  -0.44768  -0.44620
 Alpha  occ. eigenvalues --   -0.44459  -0.44346  -0.44228  -0.44117  -0.43934
 Alpha  occ. eigenvalues --   -0.43861  -0.43666  -0.43648  -0.43485  -0.43383
 Alpha  occ. eigenvalues --   -0.43325  -0.43170  -0.42903  -0.42759  -0.42743
 Alpha  occ. eigenvalues --   -0.42510  -0.42345  -0.42167  -0.41992  -0.41879
 Alpha  occ. eigenvalues --   -0.41703  -0.41468  -0.41318  -0.41172  -0.41125
 Alpha  occ. eigenvalues --   -0.41007  -0.40962  -0.40368  -0.40329  -0.40164
 Alpha  occ. eigenvalues --   -0.40105  -0.39548  -0.39027  -0.38851  -0.38371
 Alpha  occ. eigenvalues --   -0.38059  -0.37958  -0.37614  -0.37474  -0.37166
 Alpha  occ. eigenvalues --   -0.37158  -0.36873  -0.36644  -0.36438  -0.36250
 Alpha  occ. eigenvalues --   -0.35671  -0.34625  -0.33999  -0.33849  -0.33555
 Alpha  occ. eigenvalues --   -0.33497  -0.32587  -0.31691  -0.31408  -0.30880
 Alpha  occ. eigenvalues --   -0.30351  -0.30126  -0.29736  -0.29544  -0.29488
 Alpha  occ. eigenvalues --   -0.28799  -0.28662  -0.24443  -0.23431  -0.21525
 Alpha  occ. eigenvalues --   -0.20469  -0.18940
 Alpha virt. eigenvalues --   -0.09088  -0.08220  -0.02203  -0.01085  -0.00328
 Alpha virt. eigenvalues --    0.00550   0.01799   0.02274   0.02716   0.04202
 Alpha virt. eigenvalues --    0.04302   0.05012   0.05042   0.05447   0.05806

 Mulliken charges:
               1
     1  Mg   0.842282
     2  C   -0.001160
     3  C   -0.092114
     4  C   -0.047415
     5  C   -0.058749
     6  N   -0.256256
     7  C   -0.051481
     8  C   -0.014187
     9  C   -0.087214
    10  C    0.046191
    11  C    0.104635
    12  C    0.053085
    13  C   -0.072262
    14  H    0.037480
    15  N   -0.433217
    16  C    0.168131
    17  C   -0.176549
    18  C   -0.004217
    19  C    0.149141
    20  C    0.110029
    21  C    0.012278
    22  O   -0.250719
    23  C    0.062481
    24  N   -0.337888
    25  C    0.037983
    26  C   -0.040824
    27  C   -0.012209
    28  C    0.060400
    29  C    0.077993
    30  C    0.006477
    31  C    0.278007
    32  N   -0.312865
    33  C    0.088887
    34  C   -0.158067
    35  C    0.008525
    36  C    0.087132
    37  C    0.128032
    38  C    0.049501
    39  O   -0.185435
    40  C   -0.006919
    41  C    0.212960
    42  O   -0.254082
    43  O   -0.305259
    44  C    0.157535
    45  H   -0.016516
    46  H   -0.017958
    47  H   -0.045259
    48  H    0.001734
    49  H   -0.003009
    50  H    0.025817
    51  H    0.016013
    52  H    0.017448
    53  H    0.011895
    54  H    0.045329
    55  H    0.017795
    56  H    0.018474
    57  H    0.006811
    58  H    0.027070
    59  H    0.039935
    60  H    0.038353
    61  H    0.035405
    62  H    0.030754
    63  H    0.022636
    64  H    0.012744
    65  H    0.025151
    66  H    0.017058
    67  H    0.006787
    68  H    0.014536
    69  H    0.005125
    70  H    0.081446
    71  H    0.058582
    72  H    0.111470
    73  H    0.055009
    74  H    0.005797
    75  H    0.045038
    76  H    0.035513
    77  H    0.043225
    78  H    0.046139
    79  H    0.054412
    80  Mg   0.834178
    81  C   -0.021588
    82  C   -0.087320
    83  C   -0.046922
    84  C   -0.065242
    85  N   -0.257161
    86  C   -0.047487
    87  C    0.022484
    88  C   -0.080534
    89  C    0.044848
    90  C    0.117754
    91  C    0.043932
    92  C   -0.350555
    93  H   -0.060203
    94  N   -0.423198
    95  C    0.162295
    96  C   -0.175713
    97  C   -0.009792
    98  C    0.151830
    99  C    0.099835
   100  C    0.013650
   101  O   -0.255018
   102  C    0.062560
   103  N   -0.350108
   104  C    0.037155
   105  C   -0.019342
   106  C   -0.034620
   107  C    0.088762
   108  C    0.074237
   109  C    0.035094
   110  C   -0.007203
   111  N   -0.324454
   112  C    0.079864
   113  C   -0.161324
   114  C    0.002115
   115  C    0.097609
   116  C    0.131206
   117  C    0.043316
   118  O   -0.190433
   119  C   -0.000067
   120  C    0.215024
   121  O   -0.252202
   122  O   -0.302785
   123  C    0.152016
   124  H   -0.019004
   125  H   -0.017610
   126  H   -0.041545
   127  H   -0.008458
   128  H   -0.001334
   129  H    0.018471
   130  H    0.008339
   131  H    0.015903
   132  H    0.002552
   133  H    0.013478
   134  H   -0.029979
   135  H   -0.032958
   136  H    0.011585
   137  H    0.024641
   138  H    0.036162
   139  H    0.038652
   140  H    0.034000
   141  H    0.030597
   142  H    0.012731
   143  H    0.011392
   144  H    0.023456
   145  H    0.011561
   146  H    0.004776
   147  H    0.004323
   148  H    0.003485
   149  H    0.008660
   150  H    0.017302
   151  H    0.032651
   152  H    0.047035
   153  H    0.008179
   154  H    0.045443
   155  H    0.036116
   156  H    0.046523
   157  H    0.053645
   158  H    0.051898
 Sum of Mulliken charges =  -0.00000

 Dipole moment (field-independent basis, Debye):
    X=             -3.9906    Y=             -3.9804    Z=             -4.5885  Tot=              7.2680
 Quadrupole moment (field-independent basis, Debye-Ang):
   XX=           -493.2155   YY=           -515.8341   ZZ=           -492.6308
   XY=             16.2356   XZ=             12.3060   YZ=            -29.6517

 Normal termination of Gaussian 16 at Wed Sep  8 20:34:32 2021.
