 Gaussian 16, Revision A.03,
 Gaussian 16:  ES64L-G16RevA.03 25-Dec-2016

 -----------------------------------
 #p cam-b3lyp/Def2SVP td=(nstates=5)
 -----------------------------------

 --------------------------------
 TDDFT excited states in gaussian
 --------------------------------
 Symbolic Z-matrix:
 Charge =  0 Multiplicity = 1

                         Standard orientation:
 ---------------------------------------------------------------------
 Center     Atomic      Atomic             Coordinates (Angstroms)
 Number     Number       Type             X           Y           Z
 ---------------------------------------------------------------------
      1         12           0        7.528203    0.838350    0.459967
      2          6           0        7.926871   -2.352786   -1.111634
      3          6           0        8.469613    2.248053   -2.501375
      4          6           0        7.623736    3.637385    1.947548
      5          6           0        7.730638   -0.810190    3.523788
      6          7           0        8.098952   -0.045370   -1.487834
      7          6           0        8.153457   -1.280230   -1.977039
      8          6           0        8.399927   -1.325254   -3.514765
      9          6           0        9.103543    0.093596   -3.698578
     10          6           0        8.495262    0.821785   -2.512973
     11          6           0       10.618139    0.049789   -3.523703
     12          6           0        7.065053   -1.412469   -4.328543
     13          6           0        7.223196   -1.787205   -5.804997
     14          1           0        6.205647   -2.619279   -6.429173
     15          7           0        7.502765    2.675968   -0.264851
     16          6           0        7.907734    3.066064   -1.497374
     17          6           0        7.690296    4.527628   -1.554216
     18          6           0        7.304199    4.983611   -0.189993
     19          6           0        7.489319    3.772451    0.567767
     20          6           0        7.804300    5.328035   -2.815208
     21          6           0        6.851845    6.304389    0.347644
     22          8           0        6.790744    6.543219    1.602157
     23          6           0        6.562877    7.354071   -0.646190
     24          7           0        7.877807    1.380089    2.445397
     25          6           0        7.803914    2.657353    2.835421
     26          6           0        7.808976    2.772749    4.330947
     27          6           0        7.656474    1.284686    4.889662
     28          6           0        7.673379    0.523410    3.541165
     29          6           0        9.054406    3.424306    4.947703
     30          6           0        6.488445    1.018726    5.872206
     31          6           0        5.167641    1.156818    5.148670
     32          7           0        7.605163   -1.225995    1.126002
     33          6           0        7.710019   -1.682050    2.448006
     34          6           0        7.836905   -3.149900    2.389827
     35          6           0        7.813558   -3.446231    1.028398
     36          6           0        7.706926   -2.237759    0.282397
     37          6           0        8.011904   -4.016094    3.504958
     38          6           0        7.878679   -4.500696    0.029539
     39          8           0        7.878140   -5.731988    0.067131
     40          6           0        8.077308   -3.825965   -1.399136
     41          6           0        7.093631   -4.462225   -2.342990
     42          8           0        5.866100   -4.288240   -2.200640
     43          8           0        7.752895   -4.973734   -3.393833
     44          6           0        6.832210   -5.594344   -4.383448
     45          1           0        8.976029    2.791587   -3.301409
     46          1           0        7.550188    4.572761    2.506207
     47          1           0        7.713023   -1.399068    4.442681
     48          1           0        9.070606   -2.118901   -3.844518
     49          1           0        8.809832    0.575774   -4.630759
     50          1           0       10.950662   -0.927323   -3.173560
     51          1           0       10.848129    0.817531   -2.784670
     52          1           0       11.122921    0.355583   -4.440471
     53          1           0        6.643031   -0.413150   -4.434943
     54          1           0        6.368219   -2.104040   -3.853699
     55          1           0        8.218574   -2.181394   -6.011754
     56          1           0        7.165092   -0.873953   -6.397276
     57          1           0        8.262637    4.749808   -3.616536
     58          1           0        8.514390    6.131242   -2.619403
     59          1           0        6.846990    5.750181   -3.121286
     60          1           0        7.457540    7.543980   -1.239538
     61          1           0        6.167540    8.199541   -0.084282
     62          1           0        5.807366    6.984776   -1.340288
     63          1           0        6.969635    3.373009    4.679689
     64          1           0        8.542489    0.960039    5.435791
     65          1           0        8.832630    4.294564    5.565904
     66          1           0        9.735394    3.683440    4.137520
     67          1           0        9.672692    2.754299    5.544552
     68          1           0        6.492998    1.755346    6.674899
     69          1           0        6.527242    0.029881    6.329296
     70          1           0        4.985381    2.230495    5.177495
     71          1           0        4.384798    0.613553    5.678983
     72          1           0        5.255792    0.869290    4.100795
     73          1           0        7.354202   -4.868500    3.335246
     74          1           0        7.772161   -3.510829    4.440283
     75          1           0        9.073058   -4.248171    3.415805
     76          1           0        9.108930   -4.014959   -1.694361
     77          1           0        7.160970   -6.623808   -4.526119
     78          1           0        6.826957   -4.939480   -5.254959
     79          1           0        5.804406   -5.750345   -4.053868
     80         12           0       -8.313902    0.189706   -0.204131
     81          6           0       -5.671769   -2.078666    0.663431
     82          6           0       -5.961295    2.657607   -0.300655
     83          6           0      -10.671949    2.288305   -0.524977
     84          6           0      -10.557227   -2.158531    1.060371
     85          7           0       -6.131210    0.168010    0.153118
     86          6           0       -5.226794   -0.763354    0.415703
     87          6           0       -3.756229   -0.273187    0.333540
     88          6           0       -4.008872    1.290551    0.597641
     89          6           0       -5.444699    1.395713    0.087734
     90          6           0       -3.996954    1.661642    2.071246
     91          6           0       -3.121378   -0.521829   -1.079664
     92          6           0       -1.601665   -0.352948   -1.140689
     93          1           0       -0.838862   -1.229787   -2.024869
     94          7           0       -8.285823    2.062778   -0.859410
     95          6           0       -7.239394    2.914840   -0.843464
     96          6           0       -7.737420    4.174442   -1.417498
     97          6           0       -9.206182    4.048587   -1.621514
     98          6           0       -9.453702    2.774724   -0.976461
     99          6           0       -6.832525    5.312771   -1.790060
    100          6           0      -10.222159    4.934854   -2.276108
    101          8           0      -11.480397    4.739731   -2.129086
    102          6           0       -9.701489    6.092727   -3.017552
    103          7           0      -10.303905    0.177448    0.397604
    104          6           0      -11.127065    1.193493    0.084598
    105          6           0      -12.565508    0.840794    0.379321
    106          6           0      -12.561958   -0.719323    0.730904
    107          6           0      -11.043048   -0.990667    0.662601
    108          6           0      -13.220543    1.617990    1.520932
    109          6           0      -13.513123   -1.628847   -0.094158
    110          6           0      -13.048364   -1.692628   -1.531283
    111          7           0       -8.192947   -1.838347    0.531007
    112          6           0       -9.249813   -2.626999    1.036121
    113          6           0       -8.657191   -3.890698    1.520148
    114          6           0       -7.282837   -3.738966    1.282212
    115          6           0       -7.033947   -2.462123    0.710164
    116          6           0       -9.367056   -4.961033    2.133825
    117          6           0       -5.984778   -4.364345    1.394690
    118          8           0       -5.583528   -5.479663    1.724510
    119          6           0       -4.869270   -3.266996    1.115632
    120          6           0       -3.875525   -3.850289    0.148801
    121          8           0       -4.214543   -4.129067   -1.014793
    122          8           0       -2.644176   -3.780178    0.686614
    123          6           0       -1.622307   -4.336658   -0.239634
    124          1           0       -5.346440    3.542893   -0.136040
    125          1           0      -11.535322    2.930420   -0.714044
    126          1           0      -11.201498   -2.981033    1.378318
    127          1           0       -3.099474   -0.677433    1.094485
    128          1           0       -3.344529    1.905172   -0.004234
    129          1           0       -3.937868    0.789857    2.705778
    130          1           0       -4.921334    2.195951    2.247528
    131          1           0       -3.193089    2.375156    2.273803
    132          1           0       -3.427520    0.285886   -1.756862
    133          1           0       -3.392734   -1.489625   -1.454323
    134          1           0       -1.149415   -0.326697   -0.141838
    135          1           0       -1.378422    0.630288   -1.561907
    136          1           0       -5.827243    5.181204   -1.371152
    137          1           0       -7.220469    6.206608   -1.289642
    138          1           0       -6.805285    5.494230   -2.866626
    139          1           0       -9.116873    6.717867   -2.346834
    140          1           0      -10.572000    6.553920   -3.488078
    141          1           0       -9.014162    5.732499   -3.791139
    142          1           0      -13.189665    1.003518   -0.490765
    143          1           0      -12.867549   -0.903211    1.771399
    144          1           0      -14.139614    2.152190    1.214316
    145          1           0      -12.493815    2.311437    1.922842
    146          1           0      -13.480413    1.023300    2.395012
    147          1           0      -14.520496   -1.205720   -0.112239
    148          1           0      -13.594348   -2.637177    0.297855
    149          1           0      -13.475826   -0.785742   -1.969362
    150          1           0      -13.433293   -2.585890   -2.019087
    151          1           0      -11.957411   -1.607472   -1.596244
    152          1           0       -8.984232   -5.876346    1.702368
    153          1           0      -10.439969   -4.866409    1.979957
    154          1           0       -9.087116   -4.806637    3.179320
    155          1           0       -4.410358   -3.015639    2.072594
    156          1           0       -1.085541   -5.117143    0.308457
    157          1           0       -1.031384   -3.469033   -0.588622
    158          1           0       -1.975742   -4.889048   -1.102422
 ---------------------------------------------------------------------

 SCF Done:  E(RCAM-B3LYP) =  -4069.81194629     A.U. after   19 cycles

 Excitation energies and oscillator strengths:

 Excited State   1:      Singlet-A      1.6689 eV  742.93 nm  f=0.0123  <S**2>=0.000
     309 -> 315       -0.10778
     310 -> 316        0.13403
     311 -> 313       -0.42838
     312 -> 314        0.53635
 This state for optimization and/or second-order correction.
 Total Energy, E(TD-HF/TD-DFT) =  -4069.75061691
 Copying the excited state density for this state as the 1-particle RhoCI density.

 Excited State   2:      Singlet-A      1.6857 eV  735.49 nm  f=0.7401  <S**2>=0.000
     309 -> 315        0.13824
     310 -> 316        0.10975
     311 -> 313        0.53544
     312 -> 314        0.42775

 Excited State   3:      Singlet-A      2.1853 eV  567.36 nm  f=0.1059  <S**2>=0.000
     310 -> 314        0.64260
     312 -> 316       -0.27241

 Excited State   4:      Singlet-A      2.1925 eV  565.50 nm  f=0.0965  <S**2>=0.000
     309 -> 313        0.64066
     311 -> 315       -0.27816

 Excited State   5:      Singlet-A      2.7161 eV  456.48 nm  f=0.0000  <S**2>=0.000
     312 -> 313        0.70693

 The electronic state is 1-A.
 Alpha  occ. eigenvalues --  -46.87952 -46.87555 -19.26401 -19.26053 -19.19156
 Alpha  occ. eigenvalues --  -19.18985 -19.18919 -19.18634 -19.18299 -19.17912
 Alpha  occ. eigenvalues --  -14.42598 -14.42385 -14.41601 -14.41256 -14.39559
 Alpha  occ. eigenvalues --  -14.39248 -14.38738 -14.38491 -10.39214 -10.38853
 Alpha  occ. eigenvalues --  -10.35620 -10.35313 -10.34519 -10.34084 -10.31774
 Alpha  occ. eigenvalues --  -10.31545 -10.31351 -10.31187 -10.31058 -10.30902
 Alpha  occ. eigenvalues --  -10.30715 -10.30659 -10.30360 -10.30293 -10.30248
 Alpha  occ. eigenvalues --  -10.30068 -10.30050 -10.29792 -10.29780 -10.29407
 Alpha  occ. eigenvalues --  -10.29341 -10.29297 -10.28881 -10.28653 -10.28556
 Alpha  occ. eigenvalues --  -10.28515 -10.28398 -10.28292 -10.28245 -10.27999
 Alpha  occ. eigenvalues --  -10.27938 -10.27895 -10.27872 -10.27738 -10.27647
 Alpha  occ. eigenvalues --  -10.27637 -10.27596 -10.27561 -10.27550 -10.27439
 Alpha  occ. eigenvalues --  -10.27390 -10.27366 -10.27363 -10.27296 -10.27289
 Alpha  occ. eigenvalues --  -10.26880 -10.26842 -10.26595 -10.26499 -10.26356
 Alpha  occ. eigenvalues --  -10.26348 -10.26337 -10.26167 -10.26068 -10.25955
 Alpha  occ. eigenvalues --  -10.25891 -10.25835 -10.25752 -10.25567 -10.25328
 Alpha  occ. eigenvalues --  -10.24976 -10.24939 -10.24870 -10.24762 -10.24663
 Alpha  occ. eigenvalues --  -10.24587  -3.16696  -3.16305  -1.91578  -1.91187
 Alpha  occ. eigenvalues --   -1.91164  -1.91006  -1.90775  -1.90612  -1.16753
 Alpha  occ. eigenvalues --   -1.16360  -1.08755  -1.08509  -1.07388  -1.06887
 Alpha  occ. eigenvalues --   -1.06775  -1.06700  -1.04728  -1.04380  -1.03911
 Alpha  occ. eigenvalues --   -1.03556  -1.03385  -1.02936  -1.02561  -1.02006
 Alpha  occ. eigenvalues --   -0.92115  -0.91858  -0.89670  -0.89396  -0.89320
 Alpha  occ. eigenvalues --   -0.89004  -0.88436  -0.88129  -0.88005  -0.87817
 Alpha  occ. eigenvalues --   -0.87686  -0.87565  -0.87433  -0.87032  -0.85120
 Alpha  occ. eigenvalues --   -0.84856  -0.84085  -0.83778  -0.83132  -0.82849
 Alpha  occ. eigenvalues --   -0.82790  -0.82514  -0.81715  -0.81398  -0.80738
 Alpha  occ. eigenvalues --   -0.80281  -0.78947  -0.78538  -0.77361  -0.77066
 Alpha  occ. eigenvalues --   -0.77022  -0.76733  -0.76054  -0.75673  -0.75039
 Alpha  occ. eigenvalues --   -0.74689  -0.72917  -0.72591  -0.71811  -0.71458
 Alpha  occ. eigenvalues --   -0.70062  -0.69672  -0.69013  -0.68688  -0.67788
 Alpha  occ. eigenvalues --   -0.67480  -0.67363  -0.67051  -0.65423  -0.65119
 Alpha  occ. eigenvalues --   -0.64995  -0.64761  -0.64646  -0.64491  -0.64418
 Alpha  occ. eigenvalues --   -0.64098  -0.62427  -0.62070  -0.60598  -0.60247
 Alpha  occ. eigenvalues --   -0.59942  -0.59662  -0.59131  -0.58873  -0.58647
 Alpha  occ. eigenvalues --   -0.58298  -0.57718  -0.57455  -0.57383  -0.57122
 Alpha  occ. eigenvalues --   -0.56452  -0.56104  -0.56090  -0.55675  -0.55668
 Alpha  occ. eigenvalues --   -0.55480  -0.55310  -0.55111  -0.54661  -0.54325
 Alpha  occ. eigenvalues --   -0.54029  -0.53762  -0.53448  -0.53365  -0.53113
 Alpha  occ. eigenvalues --   -0.53057  -0.53000  -0.52909  -0.52741  -0.52594
 Alpha  occ. eigenvalues --   -0.52563  -0.52312  -0.52043  -0.51774  -0.51756
 Alpha  occ. eigenvalues --   -0.51510  -0.51334  -0.51061  -0.50738  -0.50395
 Alpha  occ. eigenvalues --   -0.50181  -0.50072  -0.49870  -0.49776  -0.49659
 Alpha  occ. eigenvalues --   -0.49370  -0.49356  -0.49225  -0.49069  -0.48960
 Alpha  occ. eigenvalues --   -0.48724  -0.48614  -0.48588  -0.48402  -0.48277
 Alpha  occ. eigenvalues --   -0.48220  -0.47839  -0.47463  -0.47440  -0.47002
 Alpha  occ. eigenvalues --   -0.46940  -0.46691  -0.46591  -0.46505  -0.46405
 Alpha  occ. eigenvalues --   -0.46300  -0.46158  -0.45951  -0.45946  -0.45654
 Alpha  occ. eigenvalues --   -0.45346  -0.45108  -0.44712  -0.44658  -0.44368
 Alpha  occ. eigenvalues --   -0.44345  -0.44295  -0.44223  -0.44159  -0.44001
 Alpha  occ. eigenvalues --   -0.43963  -0.43807  -0.43624  -0.43527  -0.43360
 Alpha  occ. eigenvalues --   -0.43239  -0.43167  -0.42840  -0.42791  -0.42790
 Alpha  occ. eigenvalues --   -0.42672  -0.42462  -0.42156  -0.41845  -0.41845
 Alpha  occ. eigenvalues --   -0.41670  -0.41540  -0.41316  -0.41280  -0.41013
 Alpha  occ. eigenvalues --   -0.40984  -0.40869  -0.40716  -0.40614  -0.40568
 Alpha  occ. eigenvalues --   -0.40384  -0.40371  -0.40057  -0.39600  -0.39342
 Alpha  occ. eigenvalues --   -0.38615  -0.38248  -0.37884  -0.37482  -0.37468
 Alpha  occ. eigenvalues --   -0.37404  -0.37159  -0.37053  -0.36846  -0.36555
 Alpha  occ. eigenvalues --   -0.36332  -0.36066  -0.34434  -0.34140  -0.33911
 Alpha  occ. eigenvalues --   -0.33648  -0.33335  -0.33061  -0.31514  -0.31191
 Alpha  occ. eigenvalues --   -0.31184  -0.30859  -0.30158  -0.29811  -0.29604
 Alpha  occ. eigenvalues --   -0.29468  -0.29228  -0.29102  -0.24230  -0.23925
 Alpha  occ. eigenvalues --   -0.21276  -0.21011
 Alpha virt. eigenvalues --   -0.08924  -0.08686  -0.01902  -0.01581  -0.00214
 Alpha virt. eigenvalues --    0.00073   0.02059   0.02325   0.02917   0.03326
 Alpha virt. eigenvalues --    0.04578   0.04868   0.04966   0.05391   0.06052

 Mulliken charges:
               1
     1  Mg   0.837795
     2  C   -0.003207
     3  C   -0.094109
     4  C   -0.046148
     5  C   -0.063891
     6  N   -0.256805
     7  C   -0.052438
     8  C   -0.013936
     9  C   -0.086973
    10  C    0.046145
    11  C    0.104740
    12  C    0.053507
    13  C   -0.072045
    14  H    0.036535
    15  N   -0.433157
    16  C    0.168102
    17  C   -0.177250
    18  C   -0.004263
    19  C    0.148453
    20  C    0.110123
    21  C    0.011766
    22  O   -0.249772
    23  C    0.062699
    24  N   -0.341105
    25  C    0.041221
    26  C   -0.028182
    27  C   -0.024044
    28  C    0.074680
    29  C    0.076089
    30  C    0.035147
    31  C   -0.004557
    32  N   -0.310507
    33  C    0.080285
    34  C   -0.169568
    35  C    0.008533
    36  C    0.082739
    37  C    0.127294
    38  C    0.046047
    39  O   -0.187757
    40  C   -0.005276
    41  C    0.213198
    42  O   -0.257968
    43  O   -0.304588
    44  C    0.157570
    45  H   -0.017361
    46  H   -0.016898
    47  H   -0.041124
    48  H    0.001299
    49  H   -0.003945
    50  H    0.025675
    51  H    0.016491
    52  H    0.016954
    53  H    0.010813
    54  H    0.043692
    55  H    0.018247
    56  H    0.018016
    57  H    0.006108
    58  H    0.027064
    59  H    0.039037
    60  H    0.037782
    61  H    0.035429
    62  H    0.030759
    63  H    0.016194
    64  H    0.009878
    65  H    0.023264
    66  H    0.012717
    67  H    0.005077
    68  H    0.006608
    69  H    0.005253
    70  H    0.008290
    71  H    0.018214
    72  H    0.028437
    73  H    0.047937
    74  H    0.009343
    75  H    0.046399
    76  H    0.035569
    77  H    0.043585
    78  H    0.046563
    79  H    0.053509
    80  Mg   0.837563
    81  C   -0.016660
    82  C   -0.087848
    83  C   -0.045717
    84  C   -0.065186
    85  N   -0.254563
    86  C   -0.049800
    87  C   -0.014923
    88  C   -0.090387
    89  C    0.045748
    90  C    0.114408
    91  C    0.062745
    92  C   -0.078784
    93  H    0.037778
    94  N   -0.423421
    95  C    0.162766
    96  C   -0.174782
    97  C   -0.008055
    98  C    0.152045
    99  C    0.099446
   100  C    0.015380
   101  O   -0.253469
   102  C    0.061291
   103  N   -0.350099
   104  C    0.037423
   105  C   -0.019734
   106  C   -0.034803
   107  C    0.089030
   108  C    0.073740
   109  C    0.034784
   110  C   -0.007634
   111  N   -0.324159
   112  C    0.078580
   113  C   -0.163278
   114  C    0.002432
   115  C    0.096136
   116  C    0.131499
   117  C    0.042275
   118  O   -0.187201
   119  C    0.001150
   120  C    0.211405
   121  O   -0.251479
   122  O   -0.305767
   123  C    0.151457
   124  H   -0.019794
   125  H   -0.015883
   126  H   -0.040645
   127  H    0.000001
   128  H   -0.004393
   129  H    0.022498
   130  H    0.014035
   131  H    0.016395
   132  H    0.013061
   133  H    0.037839
   134  H    0.021483
   135  H    0.018362
   136  H    0.008664
   137  H    0.025887
   138  H    0.039301
   139  H    0.038129
   140  H    0.036077
   141  H    0.033682
   142  H    0.014198
   143  H    0.012280
   144  H    0.024896
   145  H    0.011608
   146  H    0.005510
   147  H    0.006049
   148  H    0.003596
   149  H    0.010797
   150  H    0.017794
   151  H    0.030256
   152  H    0.046140
   153  H    0.008295
   154  H    0.046896
   155  H    0.035145
   156  H    0.045968
   157  H    0.051380
   158  H    0.053162
 Sum of Mulliken charges =  -0.00000

 Dipole moment (field-independent basis, Debye):
    X=              3.9394    Y=              7.0076    Z=             -2.1442  Tot=              8.3201
 Quadrupole moment (field-independent basis, Debye-Ang):
   XX=           -485.3944   YY=           -554.0903   ZZ=           -473.2870
   XY=             20.2334   XZ=            -37.3339   YZ=            -10.8125

 Normal termination of Gaussian 16 at Sun Sep 12 02:33:41 2021.
