 Gaussian 16, Revision A.03,
 Gaussian 16:  ES64L-G16RevA.03 25-Dec-2016

 -----------------------------------
 #p cam-b3lyp/Def2SVP td=(nstates=5)
 -----------------------------------

 --------------------------------
 TDDFT excited states in gaussian
 --------------------------------
 Symbolic Z-matrix:
 Charge =  0 Multiplicity = 1

                         Standard orientation:
 ---------------------------------------------------------------------
 Center     Atomic      Atomic             Coordinates (Angstroms)
 Number     Number       Type             X           Y           Z
 ---------------------------------------------------------------------
      1         12           0        8.186847    0.375340    0.260541
      2          6           0        8.294201   -2.938915   -1.087198
      3          6           0        9.092075    1.501525   -2.830630
      4          6           0        8.541208    3.257920    1.534034
      5          6           0        8.409610   -1.063787    3.426761
      6          7           0        8.608711   -0.682143   -1.637987
      7          6           0        8.556066   -1.949076   -2.037087
      8          6           0        8.730822   -2.119876   -3.575808
      9          6           0        9.522098   -0.771957   -3.890443
     10          6           0        9.018481    0.079854   -2.738613
     11          6           0       11.036269   -0.912520   -3.771999
     12          6           0        7.358547   -2.167600   -4.328348
     13          6           0        7.425170   -2.655747   -5.778392
     14          1           0        6.325992   -3.454090   -6.299740
     15          7           0        8.256647    2.154425   -0.595517
     16          6           0        8.632912    2.426572   -1.868171
     17          6           0        8.514788    3.892382   -2.023503
     18          6           0        8.221652    4.469912   -0.682375
     19          6           0        8.355777    3.304892    0.154355
     20          6           0        8.628192    4.591741   -3.343271
     21          6           0        7.885865    5.854440   -0.225801
     22          8           0        7.896776    6.184752    1.009249
     23          6           0        7.626670    6.849685   -1.281902
     24          7           0        8.660243    1.028823    2.185766
     25          6           0        8.692128    2.332364    2.483674
     26          6           0        8.771063    2.552058    3.965376
     27          6           0        8.540780    1.121897    4.637212
     28          6           0        8.445546    0.268375    3.348530
     29          6           0       10.084543    3.153838    4.483684
     30          6           0        7.401593    1.010721    5.681392
     31          6           0        6.062901    1.192492    5.001714
     32          7           0        8.150125   -1.637171    1.072634
     33          6           0        8.281348   -2.005431    2.419422
     34          6           0        8.303722   -3.479055    2.464121
     35          6           0        8.199958   -3.868006    1.130032
     36          6           0        8.144390   -2.710496    0.302159
     37          6           0        8.467368   -4.274985    3.632089
     38          6           0        8.147908   -4.992097    0.209397
     39          8           0        8.063868   -6.214434    0.337159
     40          6           0        8.329571   -4.435680   -1.271557
     41          6           0        7.263605   -5.064148   -2.127158
     42          8           0        6.058516   -4.792459   -1.950207
     43          8           0        7.838958   -5.694578   -3.162565
     44          6           0        6.834838   -6.315241   -4.067371
     45          1           0        9.599118    1.949446   -3.687493
     46          1           0        8.557222    4.233156    2.025049
     47          1           0        8.391823   -1.583727    4.386344
     48          1           0        9.329818   -2.981082   -3.872375
     49          1           0        9.221643   -0.336647   -4.843309
     50          1           0       11.315523   -1.884008   -3.364384
     51          1           0       11.351154   -0.113272   -3.100774
     52          1           0       11.520097   -0.709227   -4.727697
     53          1           0        7.002374   -1.150407   -4.491201
     54          1           0        6.637156   -2.771950   -3.777276
     55          1           0        8.380820   -3.134301   -5.994332
     56          1           0        7.404322   -1.784636   -6.433320
     57          1           0        9.009678    3.926992   -4.117301
     58          1           0        9.400072    5.353401   -3.234712
     59          1           0        7.689815    5.059271   -3.641927
     60          1           0        8.505304    6.932313   -1.921999
     61          1           0        7.315904    7.758919   -0.768515
     62          1           0        6.817572    6.487935   -1.917077
     63          1           0        7.991435    3.234368    4.301620
     64          1           0        9.425425    0.773408    5.170722
     65          1           0        9.950949    4.079173    5.044587
     66          1           0       10.745454    3.305497    3.630755
     67          1           0       10.680711    2.484635    5.103497
     68          1           0        7.492453    1.799752    6.427126
     69          1           0        7.392013    0.056281    6.207893
     70          1           0        5.956785    2.275881    4.958822
     71          1           0        5.268493    0.745803    5.600542
     72          1           0        6.084688    0.826321    3.975103
     73          1           0        7.745448   -5.087537    3.551100
     74          1           0        8.304599   -3.689169    4.536483
     75          1           0        9.504967   -4.588723    3.518897
     76          1           0        9.331636   -4.718926   -1.592117
     77          1           0        7.085001   -7.373225   -4.146884
     78          1           0        6.836486   -5.724668   -4.983682
     79          1           0        5.814232   -6.373091   -3.687428
     80         12           0       -7.691118    0.831507    0.274546
     81          6           0      -10.024991   -1.890810    0.129354
     82          6           0       -9.437973    2.269084   -2.278194
     83          6           0       -5.401980    3.019283    0.072328
     84          6           0       -5.521505   -1.301590    1.974077
     85          7           0       -9.482773    0.176885   -0.845154
     86          6           0      -10.320728   -0.846188   -0.771062
     87          6           0      -11.587158   -0.705815   -1.657632
     88          6           0      -11.003730    0.316312   -2.750221
     89          6           0       -9.928840    0.993227   -1.902245
     90          6           0      -10.323763   -0.376244   -3.919559
     91          6           0      -12.797318   -0.082939   -0.876880
     92          6           0      -14.148811   -0.201300   -1.584852
     93          1           0      -15.344337   -0.408883   -0.772382
     94          7           0       -7.703380    2.629172   -0.566182
     95          6           0       -8.493654    3.049831   -1.576022
     96          6           0       -8.099332    4.441845   -1.842419
     97          6           0       -6.900128    4.755474   -1.018834
     98          6           0       -6.603046    3.445048   -0.476069
     99          6           0       -8.885496    5.352716   -2.740011
    100          6           0       -6.138234    6.022287   -0.772041
    101          8           0       -4.986542    6.016649   -0.209534
    102          6           0       -6.737854    7.259834   -1.292062
    103          7           0       -5.664688    0.798902    0.738085
    104          6           0       -4.907363    1.901995    0.605550
    105          6           0       -3.556719    1.717673    1.255306
    106          6           0       -3.653815    0.342244    2.065455
    107          6           0       -5.076797   -0.094323    1.653259
    108          6           0       -2.362221    1.663923    0.303110
    109          6           0       -3.304491    0.390317    3.578184
    110          6           0       -4.344601    1.196085    4.322700
    111          7           0       -7.801492   -1.159753    1.105658
    112          6           0       -6.768387   -1.872355    1.752955
    113          6           0       -7.286121   -3.226136    2.038707
    114          6           0       -8.586928   -3.214515    1.513090
    115          6           0       -8.853433   -1.949846    0.922268
    116          6           0       -6.559305   -4.280839    2.659556
    117          6           0       -9.791426   -3.988040    1.314291
    118          8           0      -10.181839   -5.096639    1.678064
    119          6           0      -10.731258   -3.207448    0.297536
    120          6           0      -12.121613   -3.188452    0.871160
    121          8           0      -12.363115   -2.569945    1.922703
    122          8           0      -12.975134   -3.717002   -0.024671
    123          6           0      -14.368891   -3.710063    0.494188
    124          1           0       -9.775352    2.697149   -3.222561
    125          1           0       -4.614371    3.774417    0.126371
    126          1           0       -4.941037   -1.993355    2.588227
    127          1           0      -11.908251   -1.621594   -2.139310
    128          1           0      -11.756508    1.037271   -3.058288
    129          1           0      -10.240822   -1.441629   -3.763926
    130          1           0       -9.342022    0.072403   -3.996687
    131          1           0      -10.839930   -0.134149   -4.852987
    132          1           0      -12.688843    1.009165   -0.860420
    133          1           0      -12.868566   -0.498122    0.109619
    134          1           0      -14.118355   -0.918570   -2.414025
    135          1           0      -14.373854    0.754098   -2.065047
    136          1           0       -9.620599    4.795800   -3.334041
    137          1           0       -8.185420    5.753871   -3.480848
    138          1           0       -9.343223    6.184163   -2.199792
    139          1           0       -6.871974    7.171929   -2.367579
    140          1           0       -6.093069    8.067380   -0.939924
    141          1           0       -7.737728    7.373192   -0.858449
    142          1           0       -3.349351    2.521442    1.951048
    143          1           0       -2.964348   -0.415737    1.665543
    144          1           0       -1.592440    2.426995    0.525043
    145          1           0       -2.727379    1.775380   -0.709203
    146          1           0       -1.849291    0.704660    0.259376
    147          1           0       -2.349784    0.899743    3.730398
    148          1           0       -3.222247   -0.590792    4.033871
    149          1           0       -4.010056    2.227288    4.175123
    150          1           0       -4.351699    0.930618    5.377927
    151          1           0       -5.329547    1.098442    3.851512
    152          1           0       -7.228592   -4.741865    3.373700
    153          1           0       -5.656106   -3.911641    3.140916
    154          1           0       -6.335450   -4.902518    1.788541
    155          1           0      -10.689379   -3.733366   -0.657053
    156          1           0      -14.733625   -4.740664    0.443989
    157          1           0      -14.908148   -2.954985   -0.108147
    158          1           0      -14.511418   -3.486222    1.544920
 ---------------------------------------------------------------------

 SCF Done:  E(RCAM-B3LYP) =  -4069.81181389     A.U. after   19 cycles

 Excitation energies and oscillator strengths:

 Excited State   1:      Singlet-A      1.6695 eV  742.66 nm  f=0.0192  <S**2>=0.000
     309 -> 315       -0.10206
     310 -> 316        0.13895
     311 -> 313       -0.40497
     312 -> 314        0.55418
 This state for optimization and/or second-order correction.
 Total Energy, E(TD-HF/TD-DFT) =  -4069.75046237
 Copying the excited state density for this state as the 1-particle RhoCI density.

 Excited State   2:      Singlet-A      1.6855 eV  735.59 nm  f=0.7365  <S**2>=0.000
     309 -> 315        0.14297
     310 -> 316        0.10393
     311 -> 313        0.55334
     312 -> 314        0.40443

 Excited State   3:      Singlet-A      2.1855 eV  567.30 nm  f=0.0958  <S**2>=0.000
     310 -> 314        0.63917
     312 -> 316       -0.27136

 Excited State   4:      Singlet-A      2.1932 eV  565.32 nm  f=0.1046  <S**2>=0.000
     309 -> 313        0.63727
     311 -> 315       -0.27702

 Excited State   5:      Singlet-A      2.7678 eV  447.96 nm  f=0.0000  <S**2>=0.000
     312 -> 313        0.70698

 The electronic state is 1-A.
 Alpha  occ. eigenvalues --  -46.87811 -46.87581 -19.26301 -19.26291 -19.19099
 Alpha  occ. eigenvalues --  -19.19040 -19.18808 -19.18651 -19.18182 -19.17976
 Alpha  occ. eigenvalues --  -14.42463 -14.42421 -14.41464 -14.41274 -14.39415
 Alpha  occ. eigenvalues --  -14.39275 -14.38602 -14.38519 -10.39099 -10.39028
 Alpha  occ. eigenvalues --  -10.35440 -10.35331 -10.34402 -10.34154 -10.31704
 Alpha  occ. eigenvalues --  -10.31693 -10.31420 -10.31233 -10.30955 -10.30919
 Alpha  occ. eigenvalues --  -10.30584 -10.30520 -10.30316 -10.30281 -10.30218
 Alpha  occ. eigenvalues --  -10.30053 -10.29936 -10.29802 -10.29641 -10.29358
 Alpha  occ. eigenvalues --  -10.29323 -10.29264 -10.28761 -10.28659 -10.28609
 Alpha  occ. eigenvalues --  -10.28552 -10.28376 -10.28331 -10.28128 -10.28079
 Alpha  occ. eigenvalues --  -10.27923 -10.27804 -10.27739 -10.27595 -10.27592
 Alpha  occ. eigenvalues --  -10.27518 -10.27479 -10.27462 -10.27416 -10.27413
 Alpha  occ. eigenvalues --  -10.27407 -10.27398 -10.27392 -10.27263 -10.27172
 Alpha  occ. eigenvalues --  -10.26980 -10.26720 -10.26639 -10.26386 -10.26370
 Alpha  occ. eigenvalues --  -10.26243 -10.26212 -10.26034 -10.26018 -10.25969
 Alpha  occ. eigenvalues --  -10.25858 -10.25843 -10.25741 -10.25442 -10.25267
 Alpha  occ. eigenvalues --  -10.24845 -10.24799 -10.24794 -10.24732 -10.24629
 Alpha  occ. eigenvalues --  -10.24607  -3.16555  -3.16331  -1.91436  -1.91213
 Alpha  occ. eigenvalues --   -1.91023  -1.90865  -1.90802  -1.90639  -1.16650
 Alpha  occ. eigenvalues --   -1.16584  -1.08640  -1.08584  -1.07208  -1.06905
 Alpha  occ. eigenvalues --   -1.06884  -1.06662  -1.04594  -1.04420  -1.03774
 Alpha  occ. eigenvalues --   -1.03584  -1.03247  -1.02955  -1.02424  -1.02030
 Alpha  occ. eigenvalues --   -0.91985  -0.91911  -0.89537  -0.89401  -0.89201
 Alpha  occ. eigenvalues --   -0.89087  -0.88303  -0.88120  -0.87883  -0.87706
 Alpha  occ. eigenvalues --   -0.87685  -0.87606  -0.87275  -0.87055  -0.84993
 Alpha  occ. eigenvalues --   -0.84932  -0.83955  -0.83776  -0.82965  -0.82863
 Alpha  occ. eigenvalues --   -0.82657  -0.82586  -0.81599  -0.81525  -0.80607
 Alpha  occ. eigenvalues --   -0.80371  -0.78804  -0.78562  -0.77232  -0.77070
 Alpha  occ. eigenvalues --   -0.76948  -0.76822  -0.75936  -0.75770  -0.74911
 Alpha  occ. eigenvalues --   -0.74706  -0.72787  -0.72616  -0.71684  -0.71499
 Alpha  occ. eigenvalues --   -0.69930  -0.69653  -0.68883  -0.68759  -0.67651
 Alpha  occ. eigenvalues --   -0.67525  -0.67228  -0.67139  -0.65300  -0.65204
 Alpha  occ. eigenvalues --   -0.64868  -0.64690  -0.64635  -0.64580  -0.64286
 Alpha  occ. eigenvalues --   -0.64109  -0.62313  -0.62206  -0.60448  -0.60264
 Alpha  occ. eigenvalues --   -0.59816  -0.59728  -0.59000  -0.58911  -0.58516
 Alpha  occ. eigenvalues --   -0.58346  -0.57599  -0.57482  -0.57321  -0.57153
 Alpha  occ. eigenvalues --   -0.56320  -0.56127  -0.55992  -0.55821  -0.55525
 Alpha  occ. eigenvalues --   -0.55385  -0.55356  -0.55156  -0.54541  -0.54401
 Alpha  occ. eigenvalues --   -0.53907  -0.53849  -0.53307  -0.53228  -0.53150
 Alpha  occ. eigenvalues --   -0.53073  -0.52929  -0.52831  -0.52757  -0.52610
 Alpha  occ. eigenvalues --   -0.52463  -0.52298  -0.51929  -0.51789  -0.51624
 Alpha  occ. eigenvalues --   -0.51597  -0.51211  -0.51121  -0.50567  -0.50414
 Alpha  occ. eigenvalues --   -0.50047  -0.49921  -0.49911  -0.49773  -0.49521
 Alpha  occ. eigenvalues --   -0.49423  -0.49224  -0.49134  -0.49107  -0.49032
 Alpha  occ. eigenvalues --   -0.48606  -0.48487  -0.48472  -0.48447  -0.48279
 Alpha  occ. eigenvalues --   -0.48274  -0.47704  -0.47522  -0.47304  -0.47041
 Alpha  occ. eigenvalues --   -0.46812  -0.46626  -0.46566  -0.46488  -0.46372
 Alpha  occ. eigenvalues --   -0.46188  -0.46177  -0.45995  -0.45836  -0.45741
 Alpha  occ. eigenvalues --   -0.45215  -0.45113  -0.44590  -0.44513  -0.44443
 Alpha  occ. eigenvalues --   -0.44401  -0.44158  -0.44099  -0.44057  -0.44026
 Alpha  occ. eigenvalues --   -0.43995  -0.43874  -0.43509  -0.43479  -0.43398
 Alpha  occ. eigenvalues --   -0.43310  -0.43040  -0.42862  -0.42821  -0.42715
 Alpha  occ. eigenvalues --   -0.42675  -0.42462  -0.42029  -0.41879  -0.41716
 Alpha  occ. eigenvalues --   -0.41591  -0.41546  -0.41387  -0.41152  -0.40912
 Alpha  occ. eigenvalues --   -0.40883  -0.40821  -0.40660  -0.40628  -0.40587
 Alpha  occ. eigenvalues --   -0.40398  -0.40245  -0.40171  -0.39467  -0.39322
 Alpha  occ. eigenvalues --   -0.38484  -0.38254  -0.37762  -0.37590  -0.37335
 Alpha  occ. eigenvalues --   -0.37276  -0.37176  -0.37129  -0.36730  -0.36701
 Alpha  occ. eigenvalues --   -0.36209  -0.36132  -0.34300  -0.34173  -0.33797
 Alpha  occ. eigenvalues --   -0.33790  -0.33200  -0.33096  -0.31338  -0.31210
 Alpha  occ. eigenvalues --   -0.31047  -0.30895  -0.30042  -0.29880  -0.29457
 Alpha  occ. eigenvalues --   -0.29334  -0.29254  -0.29132  -0.24094  -0.23956
 Alpha  occ. eigenvalues --   -0.21140  -0.21037
 Alpha virt. eigenvalues --   -0.08785  -0.08715  -0.01761  -0.01603  -0.00062
 Alpha virt. eigenvalues --    0.00039   0.02188   0.02287   0.03088   0.03300
 Alpha virt. eigenvalues --    0.04705   0.04802   0.05080   0.05229   0.06164

 Mulliken charges:
               1
     1  Mg   0.838380
     2  C   -0.003030
     3  C   -0.094065
     4  C   -0.045876
     5  C   -0.064049
     6  N   -0.256791
     7  C   -0.052547
     8  C   -0.013982
     9  C   -0.087005
    10  C    0.046313
    11  C    0.104793
    12  C    0.053453
    13  C   -0.071809
    14  H    0.036073
    15  N   -0.433210
    16  C    0.168460
    17  C   -0.177050
    18  C   -0.003859
    19  C    0.148708
    20  C    0.110157
    21  C    0.012448
    22  O   -0.249442
    23  C    0.062384
    24  N   -0.341111
    25  C    0.041224
    26  C   -0.028245
    27  C   -0.023933
    28  C    0.074690
    29  C    0.076130
    30  C    0.035153
    31  C   -0.004518
    32  N   -0.310412
    33  C    0.080189
    34  C   -0.169920
    35  C    0.008346
    36  C    0.082758
    37  C    0.127358
    38  C    0.045985
    39  O   -0.188435
    40  C   -0.005283
    41  C    0.212947
    42  O   -0.257397
    43  O   -0.304729
    44  C    0.157675
    45  H   -0.017511
    46  H   -0.016684
    47  H   -0.041556
    48  H    0.000974
    49  H   -0.003993
    50  H    0.025510
    51  H    0.016483
    52  H    0.016716
    53  H    0.011198
    54  H    0.043955
    55  H    0.017937
    56  H    0.017996
    57  H    0.005852
    58  H    0.026924
    59  H    0.039823
    60  H    0.037257
    61  H    0.036028
    62  H    0.031782
    63  H    0.016614
    64  H    0.009554
    65  H    0.023359
    66  H    0.012610
    67  H    0.004802
    68  H    0.006544
    69  H    0.004705
    70  H    0.008986
    71  H    0.017572
    72  H    0.028750
    73  H    0.047434
    74  H    0.009020
    75  H    0.046111
    76  H    0.035231
    77  H    0.043068
    78  H    0.046425
    79  H    0.053600
    80  Mg   0.837780
    81  C   -0.016931
    82  C   -0.087982
    83  C   -0.045584
    84  C   -0.064491
    85  N   -0.254577
    86  C   -0.049833
    87  C   -0.015069
    88  C   -0.090505
    89  C    0.045758
    90  C    0.114430
    91  C    0.062566
    92  C   -0.077802
    93  H    0.034751
    94  N   -0.423434
    95  C    0.162872
    96  C   -0.174885
    97  C   -0.007926
    98  C    0.152062
    99  C    0.099479
   100  C    0.015393
   101  O   -0.253226
   102  C    0.061240
   103  N   -0.350073
   104  C    0.037582
   105  C   -0.019952
   106  C   -0.035040
   107  C    0.088862
   108  C    0.073331
   109  C    0.034672
   110  C   -0.007681
   111  N   -0.324155
   112  C    0.078433
   113  C   -0.162872
   114  C    0.002243
   115  C    0.096280
   116  C    0.131509
   117  C    0.042464
   118  O   -0.187833
   119  C    0.000880
   120  C    0.211244
   121  O   -0.251074
   122  O   -0.305637
   123  C    0.152070
   124  H   -0.019976
   125  H   -0.015594
   126  H   -0.039762
   127  H   -0.000722
   128  H   -0.004518
   129  H    0.022490
   130  H    0.014425
   131  H    0.016011
   132  H    0.013878
   133  H    0.037678
   134  H    0.020727
   135  H    0.019477
   136  H    0.008595
   137  H    0.025778
   138  H    0.039583
   139  H    0.037992
   140  H    0.036201
   141  H    0.033860
   142  H    0.014318
   143  H    0.013663
   144  H    0.025114
   145  H    0.011224
   146  H    0.007027
   147  H    0.006569
   148  H    0.004063
   149  H    0.010820
   150  H    0.017757
   151  H    0.029843
   152  H    0.045913
   153  H    0.008990
   154  H    0.047450
   155  H    0.035004
   156  H    0.043857
   157  H    0.049388
   158  H    0.053537
 Sum of Mulliken charges =  -0.00000

 Dipole moment (field-independent basis, Debye):
    X=              1.6183    Y=              5.1633    Z=             -6.6862  Tot=              8.6014
 Quadrupole moment (field-independent basis, Debye-Ang):
   XX=           -453.0237   YY=           -558.5754   ZZ=           -462.1852
   XY=            -21.2295   XZ=             26.3746   YZ=             -6.5294

 Normal termination of Gaussian 16 at Sun Sep 12 07:46:38 2021.
