 Gaussian 16, Revision A.03,
 Gaussian 16:  ES64L-G16RevA.03 25-Dec-2016

 -----------------------------------
 #p cam-b3lyp/Def2SVP td=(nstates=5)
 -----------------------------------

 --------------------------------
 TDDFT excited states in gaussian
 --------------------------------
 Symbolic Z-matrix:
 Charge =  0 Multiplicity = 1

                         Standard orientation:
 ---------------------------------------------------------------------
 Center     Atomic      Atomic             Coordinates (Angstroms)
 Number     Number       Type             X           Y           Z
 ---------------------------------------------------------------------
      1         12           0        5.463270   -0.475049    0.569832
      2          6           0        5.728689    2.566523   -1.298484
      3          6           0        6.015681    1.378149    3.381160
      4          6           0        5.685490   -3.193891    2.186970
      5          6           0        6.062925   -2.183484   -2.407973
      6          7           0        5.811822    1.689813    0.874020
      7          6           0        5.829809    2.756892    0.081436
      8          6           0        5.890374    4.104517    0.860931
      9          6           0        6.540569    3.580679    2.219180
     10          6           0        6.065975    2.138884    2.175431
     11          6           0        8.065751    3.596226    2.210251
     12          6           0        4.469165    4.715008    1.104231
     13          6           0        4.455491    6.175636    1.564376
     14          1           0        3.385747    7.046061    1.100310
     15          7           0        5.317072   -0.828544    2.508006
     16          6           0        5.563656    0.047180    3.511794
     17          6           0        5.314119   -0.691965    4.768009
     18          6           0        5.086542   -2.121419    4.417346
     19          6           0        5.383678   -2.109764    3.007753
     20          6           0        5.260930   -0.034489    6.112868
     21          6           0        4.677905   -3.311483    5.226602
     22          8           0        4.763713   -4.503987    4.773670
     23          6           0        4.252277   -3.048275    6.613181
     24          7           0        6.039051   -2.406879    0.027480
     25          6           0        5.989115   -3.414091    0.906123
     26          6           0        6.171844   -4.739605    0.228213
     27          6           0        6.115024   -4.445529   -1.340240
     28          6           0        5.983655   -2.903409   -1.286593
     29          6           0        7.470205   -5.487869    0.560436
     30          6           0        5.078704   -5.245683   -2.168620
     31          6           0        3.678168   -4.828491   -1.779331
     32          7           0        5.657710    0.051957   -1.526713
     33          6           0        5.929136   -0.817562   -2.592987
     34          6           0        6.075079    0.013805   -3.801952
     35          6           0        5.893652    1.319117   -3.349085
     36          6           0        5.675886    1.306205   -1.941711
     37          6           0        6.398796   -0.458912   -5.104327
     38          6           0        5.857575    2.723743   -3.722692
     39          8           0        5.884204    3.338100   -4.790096
     40          6           0        5.870531    3.596910   -2.391062
     41          6           0        4.792367    4.638202   -2.519840
     42          8           0        3.587869    4.312552   -2.542256
     43          8           0        5.329785    5.856980   -2.357655
     44          6           0        4.308356    6.934621   -2.444398
     45          1           0        6.412141    1.816812    4.298948
     46          1           0        5.662462   -4.164328    2.687130
     47          1           0        6.166762   -2.653570   -3.387611
     48          1           0        6.531018    4.862286    0.409506
     49          1           0        6.128083    4.089122    3.090422
     50          1           0        8.455877    3.843623    1.223074
     51          1           0        8.368778    2.589309    2.497978
     52          1           0        8.450925    4.258283    2.986201
     53          1           0        4.019105    4.241414    1.976707
     54          1           0        3.847321    4.611528    0.214328
     55          1           0        5.425865    6.649812    1.414575
     56          1           0        4.309805    6.192095    2.644517
     57          1           0        5.630142    0.989537    6.072915
     58          1           0        5.974520   -0.555830    6.750600
     59          1           0        4.266161   -0.085878    6.555731
     60          1           0        5.065457   -2.562882    7.153257
     61          1           0        3.911893   -4.004130    7.009829
     62          1           0        3.425706   -2.337252    6.599864
     63          1           0        5.369632   -5.427595    0.491936
     64          1           0        7.066098   -4.655042   -1.830379
     65          1           0        7.308406   -6.488262    0.962604
     66          1           0        8.043951   -4.875161    1.255200
     67          1           0        8.167989   -5.583883   -0.271005
     68          1           0        5.166195   -6.311047   -1.958167
     69          1           0        5.190361   -5.109872   -3.244417
     70          1           0        3.480982   -5.433285   -0.894925
     71          1           0        2.974896   -5.064720   -2.578590
     72          1           0        3.644952   -3.782763   -1.473005
     73          1           0        5.741248    0.071031   -5.793356
     74          1           0        6.264008   -1.537746   -5.178844
     75          1           0        7.445618   -0.163222   -5.172059
     76          1           0        6.862470    4.041614   -2.317455
     77          1           0        4.636451    7.626133   -3.220542
     78          1           0        4.186304    7.327862   -1.435007
     79          1           0        3.330683    6.642266   -2.829138
     80         12           0       -5.063943   -0.852563   -0.395191
     81          6           0       -7.671514    1.496780    0.353277
     82          6           0       -3.084052    1.816801   -1.162750
     83          6           0       -2.899976   -2.898731   -1.489678
     84          6           0       -7.534751   -3.294352   -0.675321
     85          7           0       -5.442227    1.326519   -0.368060
     86          6           0       -6.451036    2.105140   -0.006933
     87          6           0       -6.109292    3.618473    0.043873
     88          6           0       -4.873376    3.620464   -0.981491
     89          6           0       -4.408547    2.176127   -0.806814
     90          6           0       -5.292682    3.815525   -2.429061
     91          6           0       -5.668280    4.083908    1.475968
     92          6           0       -5.617984    5.600726    1.672118
     93          1           0       -5.993756    6.147138    2.973163
     94          7           0       -3.124294   -0.609540   -0.737628
     95          6           0       -2.484781    0.547170   -1.010268
     96          6           0       -1.070807    0.189514   -1.202475
     97          6           0       -0.955506   -1.294083   -1.183762
     98          6           0       -2.355606   -1.666978   -1.156503
     99          6           0        0.021633    1.214359   -1.300815
    100          6           0        0.220029   -2.223593   -1.201974
    101          8           0        0.082419   -3.479030   -1.420582
    102          6           0        1.545863   -1.606891   -1.049250
    103          7           0       -5.211163   -2.762583   -1.202958
    104          6           0       -4.110858   -3.453219   -1.549790
    105          6           0       -4.443294   -4.896237   -1.845706
    106          6           0       -5.963823   -5.089149   -1.389255
    107          6           0       -6.289115   -3.637869   -0.972878
    108          6           0       -4.291230   -5.328379   -3.303960
    109          6           0       -6.255492   -6.231319   -0.377796
    110          6           0       -5.629153   -5.908678    0.959735
    111          7           0       -7.189453   -0.964294   -0.024026
    112          6           0       -8.034438   -2.076337   -0.232438
    113          6           0       -9.414683   -1.633965    0.053311
    114          6           0       -9.278537   -0.278390    0.388542
    115          6           0       -7.912543    0.102682    0.297183
    116          6           0      -10.585455   -2.435564   -0.060066
    117          6           0       -9.981131    0.919538    0.788600
    118          8           0      -11.140457    1.181421    1.106562
    119          6           0       -8.988253    2.154165    0.660963
    120          6           0       -9.088823    2.963667    1.924726
    121          8           0       -8.718175    2.486903    3.011885
    122          8           0       -9.399706    4.234468    1.610422
    123          6           0       -9.499823    5.079156    2.830388
    124          1           0       -2.454653    2.566097   -1.643678
    125          1           0       -2.180584   -3.672586   -1.767358
    126          1           0       -8.349313   -4.021153   -0.644832
    127          1           0       -6.893052    4.273530   -0.317227
    128          1           0       -4.097385    4.311867   -0.663417
    129          1           0       -6.366475    3.802419   -2.542734
    130          1           0       -4.844109    2.997894   -2.977984
    131          1           0       -4.845922    4.729390   -2.831053
    132          1           0       -4.607859    3.840462    1.620843
    133          1           0       -6.291992    3.642662    2.228897
    134          1           0       -6.133073    6.137848    0.866429
    135          1           0       -4.578378    5.926991    1.589846
    136          1           0       -0.384739    2.222589   -1.448239
    137          1           0        0.573217    1.006170   -2.224007
    138          1           0        0.714902    1.173203   -0.457995
    139          1           0        1.700160   -0.880891   -1.843967
    140          1           0        2.250929   -2.438809   -0.997663
    141          1           0        1.566054   -1.049898   -0.105871
    142          1           0       -3.815655   -5.563921   -1.268330
    143          1           0       -6.618084   -5.325811   -2.241171
    144          1           0       -3.601331   -6.183143   -3.436222
    145          1           0       -3.955214   -4.475963   -3.879305
    146          1           0       -5.219856   -5.594423   -3.806025
    147          1           0       -5.798503   -7.163971   -0.717617
    148          1           0       -7.313856   -6.423849   -0.237091
    149          1           0       -4.593002   -6.236245    0.832456
    150          1           0       -6.122575   -6.460915    1.756978
    151          1           0       -5.613542   -4.826908    1.136304
    152          1           0      -11.189669   -2.229492    0.813420
    153          1           0      -10.338062   -3.492566   -0.132941
    154          1           0      -10.999231   -2.045497   -0.993824
    155          1           0       -9.288960    2.726957   -0.217140
    156          1           0      -10.491211    5.542490    2.817698
    157          1           0       -8.626432    5.757241    2.796761
    158          1           0       -9.514385    4.574719    3.789440
 ---------------------------------------------------------------------

 SCF Done:  E(RCAM-B3LYP) =  -4069.81341758     A.U. after   18 cycles

 Excitation energies and oscillator strengths:

 Excited State   1:      Singlet-A      1.6607 eV  746.56 nm  f=0.3201  <S**2>=0.000
     309 -> 315        0.11110
     310 -> 316        0.12921
     311 -> 313       -0.44376
     312 -> 314        0.52415
 This state for optimization and/or second-order correction.
 Total Energy, E(TD-HF/TD-DFT) =  -4069.75238645
 Copying the excited state density for this state as the 1-particle RhoCI density.

 Excited State   2:      Singlet-A      1.6869 eV  734.99 nm  f=0.4720  <S**2>=0.000
     309 -> 315       -0.13586
     310 -> 316        0.11301
     311 -> 313        0.52303
     312 -> 314        0.44294

 Excited State   3:      Singlet-A      2.1852 eV  567.38 nm  f=0.0192  <S**2>=0.000
     309 -> 313       -0.29497
     310 -> 314        0.57212
     311 -> 315       -0.12278
     312 -> 316       -0.24149

 Excited State   4:      Singlet-A      2.1979 eV  564.11 nm  f=0.1589  <S**2>=0.000
     309 -> 313        0.56905
     310 -> 314        0.29151
     311 -> 315        0.25025
     312 -> 316       -0.12733

 Excited State   5:      Singlet-A      2.4154 eV  513.30 nm  f=0.0000  <S**2>=0.000
     312 -> 313        0.70663

 The electronic state is 1-A.
 Alpha  occ. eigenvalues --  -46.88063 -46.87460 -19.26698 -19.26238 -19.19483
 Alpha  occ. eigenvalues --  -19.19039 -19.18934 -19.18641 -19.18438 -19.17868
 Alpha  occ. eigenvalues --  -14.42689 -14.42296 -14.41631 -14.41157 -14.39629
 Alpha  occ. eigenvalues --  -14.39149 -14.38849 -14.38399 -10.39516 -10.38964
 Alpha  occ. eigenvalues --  -10.35562 -10.35290 -10.34667 -10.34049 -10.32092
 Alpha  occ. eigenvalues --  -10.31672 -10.31656 -10.31152 -10.31100 -10.30807
 Alpha  occ. eigenvalues --  -10.30800 -10.30714 -10.30340 -10.30223 -10.30137
 Alpha  occ. eigenvalues --  -10.30083 -10.29926 -10.29836 -10.29729 -10.29452
 Alpha  occ. eigenvalues --  -10.29204 -10.29166 -10.29040 -10.28894 -10.28612
 Alpha  occ. eigenvalues --  -10.28553 -10.28535 -10.28373 -10.28184 -10.28010
 Alpha  occ. eigenvalues --  -10.27941 -10.27928 -10.27783 -10.27776 -10.27646
 Alpha  occ. eigenvalues --  -10.27637 -10.27464 -10.27440 -10.27433 -10.27424
 Alpha  occ. eigenvalues --  -10.27359 -10.27288 -10.27233 -10.27231 -10.27082
 Alpha  occ. eigenvalues --  -10.26884 -10.26784 -10.26553 -10.26485 -10.26453
 Alpha  occ. eigenvalues --  -10.26305 -10.26179 -10.26025 -10.26001 -10.25874
 Alpha  occ. eigenvalues --  -10.25791 -10.25729 -10.25682 -10.25437 -10.25275
 Alpha  occ. eigenvalues --  -10.25071 -10.24964 -10.24662 -10.24598 -10.24501
 Alpha  occ. eigenvalues --  -10.24107  -3.16787  -3.16210  -1.91671  -1.91254
 Alpha  occ. eigenvalues --   -1.91097  -1.91093  -1.90681  -1.90518  -1.17051
 Alpha  occ. eigenvalues --   -1.16528  -1.08911  -1.08485  -1.07328  -1.07088
 Alpha  occ. eigenvalues --   -1.06858  -1.06822  -1.04822  -1.04290  -1.03951
 Alpha  occ. eigenvalues --   -1.03465  -1.03450  -1.02837  -1.02620  -1.01907
 Alpha  occ. eigenvalues --   -0.92223  -0.91792  -0.89589  -0.89442  -0.89312
 Alpha  occ. eigenvalues --   -0.88958  -0.88309  -0.88084  -0.88051  -0.87884
 Alpha  occ. eigenvalues --   -0.87598  -0.87472  -0.87444  -0.86827  -0.85229
 Alpha  occ. eigenvalues --   -0.84815  -0.83939  -0.83721  -0.83034  -0.82849
 Alpha  occ. eigenvalues --   -0.82726  -0.82472  -0.81859  -0.81440  -0.80818
 Alpha  occ. eigenvalues --   -0.80270  -0.78982  -0.78358  -0.77391  -0.77120
 Alpha  occ. eigenvalues --   -0.76919  -0.76736  -0.76156  -0.75619  -0.74961
 Alpha  occ. eigenvalues --   -0.74620  -0.72957  -0.72483  -0.71863  -0.71388
 Alpha  occ. eigenvalues --   -0.69799  -0.69594  -0.69095  -0.68636  -0.67851
 Alpha  occ. eigenvalues --   -0.67472  -0.67420  -0.67040  -0.65546  -0.65092
 Alpha  occ. eigenvalues --   -0.65084  -0.64810  -0.64582  -0.64486  -0.64298
 Alpha  occ. eigenvalues --   -0.64030  -0.62571  -0.62123  -0.60591  -0.60110
 Alpha  occ. eigenvalues --   -0.60052  -0.59597  -0.59181  -0.58801  -0.58704
 Alpha  occ. eigenvalues --   -0.58225  -0.57893  -0.57441  -0.57387  -0.57051
 Alpha  occ. eigenvalues --   -0.56532  -0.56285  -0.55973  -0.55717  -0.55710
 Alpha  occ. eigenvalues --   -0.55470  -0.55273  -0.55089  -0.54647  -0.54344
 Alpha  occ. eigenvalues --   -0.54166  -0.53729  -0.53460  -0.53447  -0.53163
 Alpha  occ. eigenvalues --   -0.53051  -0.52972  -0.52934  -0.52729  -0.52428
 Alpha  occ. eigenvalues --   -0.52311  -0.52243  -0.52109  -0.51867  -0.51706
 Alpha  occ. eigenvalues --   -0.51500  -0.51365  -0.51021  -0.50690  -0.50262
 Alpha  occ. eigenvalues --   -0.50145  -0.49979  -0.49743  -0.49692  -0.49664
 Alpha  occ. eigenvalues --   -0.49442  -0.49344  -0.49297  -0.48987  -0.48923
 Alpha  occ. eigenvalues --   -0.48854  -0.48629  -0.48537  -0.48373  -0.48218
 Alpha  occ. eigenvalues --   -0.48143  -0.47858  -0.47476  -0.47377  -0.46989
 Alpha  occ. eigenvalues --   -0.46848  -0.46788  -0.46553  -0.46510  -0.46431
 Alpha  occ. eigenvalues --   -0.46263  -0.46079  -0.46022  -0.45893  -0.45660
 Alpha  occ. eigenvalues --   -0.45249  -0.45038  -0.44822  -0.44708  -0.44467
 Alpha  occ. eigenvalues --   -0.44348  -0.44333  -0.44239  -0.44155  -0.43919
 Alpha  occ. eigenvalues --   -0.43871  -0.43801  -0.43693  -0.43413  -0.43390
 Alpha  occ. eigenvalues --   -0.43198  -0.43183  -0.43029  -0.42779  -0.42703
 Alpha  occ. eigenvalues --   -0.42617  -0.42352  -0.41989  -0.41891  -0.41798
 Alpha  occ. eigenvalues --   -0.41659  -0.41485  -0.41337  -0.41286  -0.41037
 Alpha  occ. eigenvalues --   -0.40960  -0.40794  -0.40580  -0.40540  -0.40525
 Alpha  occ. eigenvalues --   -0.40469  -0.40320  -0.40085  -0.39272  -0.39236
 Alpha  occ. eigenvalues --   -0.38524  -0.38188  -0.38030  -0.37533  -0.37495
 Alpha  occ. eigenvalues --   -0.37387  -0.37086  -0.37045  -0.36997  -0.36641
 Alpha  occ. eigenvalues --   -0.36354  -0.36053  -0.34510  -0.34193  -0.34057
 Alpha  occ. eigenvalues --   -0.33725  -0.33406  -0.32976  -0.31468  -0.31242
 Alpha  occ. eigenvalues --   -0.31148  -0.30781  -0.30304  -0.29778  -0.29661
 Alpha  occ. eigenvalues --   -0.29556  -0.29099  -0.28999  -0.24304  -0.23835
 Alpha  occ. eigenvalues --   -0.21331  -0.20903
 Alpha virt. eigenvalues --   -0.08982  -0.08574  -0.01945  -0.01499  -0.00251
 Alpha virt. eigenvalues --    0.00160   0.01969   0.02361   0.02686   0.03397
 Alpha virt. eigenvalues --    0.04475   0.04687   0.04916   0.05299   0.05835

 Mulliken charges:
               1
     1  Mg   0.822537
     2  C   -0.004421
     3  C   -0.094066
     4  C   -0.044904
     5  C   -0.059048
     6  N   -0.256121
     7  C   -0.054448
     8  C   -0.013332
     9  C   -0.086877
    10  C    0.046025
    11  C    0.104648
    12  C    0.053145
    13  C   -0.071608
    14  H    0.034499
    15  N   -0.432907
    16  C    0.168213
    17  C   -0.177117
    18  C   -0.003336
    19  C    0.148081
    20  C    0.110081
    21  C    0.013154
    22  O   -0.247839
    23  C    0.062210
    24  N   -0.339331
    25  C    0.041084
    26  C   -0.028405
    27  C   -0.025120
    28  C    0.072280
    29  C    0.076337
    30  C    0.042102
    31  C   -0.018778
    32  N   -0.309411
    33  C    0.075241
    34  C   -0.170342
    35  C    0.007414
    36  C    0.079081
    37  C    0.127690
    38  C    0.044710
    39  O   -0.188720
    40  C   -0.005194
    41  C    0.213899
    42  O   -0.261806
    43  O   -0.303688
    44  C    0.157880
    45  H   -0.017187
    46  H   -0.015495
    47  H   -0.040931
    48  H    0.001187
    49  H   -0.003878
    50  H    0.025687
    51  H    0.017092
    52  H    0.017210
    53  H    0.010767
    54  H    0.040968
    55  H    0.018998
    56  H    0.018856
    57  H    0.005890
    58  H    0.027601
    59  H    0.040270
    60  H    0.037323
    61  H    0.036850
    62  H    0.031829
    63  H    0.018959
    64  H    0.008848
    65  H    0.023848
    66  H    0.011783
    67  H    0.004936
    68  H    0.005394
    69  H    0.002433
    70  H    0.010706
    71  H    0.027874
    72  H    0.042861
    73  H    0.046679
    74  H    0.010501
    75  H    0.046411
    76  H    0.035959
    77  H    0.044017
    78  H    0.046806
    79  H    0.051623
    80  Mg   0.837234
    81  C   -0.016821
    82  C   -0.087472
    83  C   -0.045642
    84  C   -0.065115
    85  N   -0.254404
    86  C   -0.050473
    87  C   -0.015116
    88  C   -0.090207
    89  C    0.044972
    90  C    0.114231
    91  C    0.062626
    92  C   -0.077366
    93  H    0.033396
    94  N   -0.423653
    95  C    0.161743
    96  C   -0.176924
    97  C    0.001788
    98  C    0.151950
    99  C    0.100519
   100  C    0.010432
   101  O   -0.254288
   102  C    0.046320
   103  N   -0.350170
   104  C    0.037851
   105  C   -0.019890
   106  C   -0.034590
   107  C    0.088611
   108  C    0.073779
   109  C    0.034900
   110  C   -0.007554
   111  N   -0.323878
   112  C    0.077798
   113  C   -0.163791
   114  C    0.002005
   115  C    0.095657
   116  C    0.131622
   117  C    0.041889
   118  O   -0.188921
   119  C    0.001026
   120  C    0.211168
   121  O   -0.251455
   122  O   -0.305532
   123  C    0.152245
   124  H   -0.015940
   125  H   -0.016422
   126  H   -0.041145
   127  H   -0.001033
   128  H   -0.003861
   129  H    0.021870
   130  H    0.015348
   131  H    0.016933
   132  H    0.013714
   133  H    0.037165
   134  H    0.020870
   135  H    0.019398
   136  H    0.014409
   137  H    0.036377
   138  H    0.039739
   139  H    0.053570
   140  H    0.032921
   141  H    0.033280
   142  H    0.014022
   143  H    0.012037
   144  H    0.024203
   145  H    0.011972
   146  H    0.005511
   147  H    0.005692
   148  H    0.003352
   149  H    0.010885
   150  H    0.017475
   151  H    0.030287
   152  H    0.045342
   153  H    0.008037
   154  H    0.046482
   155  H    0.034817
   156  H    0.043582
   157  H    0.049298
   158  H    0.053143
 Sum of Mulliken charges =  -0.00000

 Dipole moment (field-independent basis, Debye):
    X=              5.1591    Y=              2.7786    Z=              2.0118  Tot=              6.1956
 Quadrupole moment (field-independent basis, Debye-Ang):
   XX=           -550.6878   YY=           -468.9394   ZZ=           -513.3521
   XY=             13.7806   XZ=             43.3130   YZ=             35.6373

 Normal termination of Gaussian 16 at Fri Sep 10 09:17:58 2021.
