 Gaussian 16, Revision A.03,
 Gaussian 16:  ES64L-G16RevA.03 25-Dec-2016

 -----------------------------------
 #p cam-b3lyp/Def2SVP td=(nstates=5)
 -----------------------------------

 --------------------------------
 TDDFT excited states in gaussian
 --------------------------------
 Symbolic Z-matrix:
 Charge =  0 Multiplicity = 1

                         Standard orientation:
 ---------------------------------------------------------------------
 Center     Atomic      Atomic             Coordinates (Angstroms)
 Number     Number       Type             X           Y           Z
 ---------------------------------------------------------------------
      1         12           0       -3.914146   -0.520873   -0.264213
      2          6           0       -4.043508    2.819766    1.014697
      3          6           0       -4.445669    0.803940   -3.363474
      4          6           0       -4.256813   -3.480199   -1.351224
      5          6           0       -4.526151   -1.629968    2.982480
      6          7           0       -4.191513    1.562802   -0.958484
      7          6           0       -4.159659    2.757178   -0.375712
      8          6           0       -4.185336    3.940081   -1.389346
      9          6           0       -4.874799    3.200383   -2.622020
     10          6           0       -4.450297    1.774456   -2.317955
     11          6           0       -6.398173    3.274158   -2.602271
     12          6           0       -2.747656    4.442105   -1.753735
     13          6           0       -2.690158    5.791877   -2.474960
     14          1           0       -1.583435    6.692208   -2.188751
     15          7           0       -3.810991   -1.229412   -2.105458
     16          6           0       -4.042593   -0.544299   -3.250999
     17          6           0       -3.838909   -1.510304   -4.351921
     18          6           0       -3.655970   -2.858549   -3.746229
     19          6           0       -3.930246   -2.577218   -2.360226
     20          6           0       -3.783973   -1.113372   -5.795242
     21          6           0       -3.302026   -4.191358   -4.326295
     22          8           0       -3.422340   -5.276388   -3.660856
     23          6           0       -2.889375   -4.203258   -5.741434
     24          7           0       -4.548523   -2.297452    0.629637
     25          6           0       -4.547714   -3.450012   -0.049029
     26          6           0       -4.765982   -4.620777    0.862896
     27          6           0       -4.674178   -4.046055    2.349846
     28          6           0       -4.489810   -2.545988    2.012091
     29          6           0       -6.094800   -5.368381    0.685862
     30          6           0       -3.653545   -4.718586    3.301911
     31          6           0       -2.245587   -4.432473    2.829799
     32          7           0       -4.056940    0.388982    1.701192
     33          6           0       -4.341764   -0.259251    2.911706
     34          6           0       -4.439450    0.784805    3.948274
     35          6           0       -4.219640    1.977093    3.261267
     36          6           0       -4.024684    1.697893    1.878396
     37          6           0       -4.758921    0.571647    5.318287
     38          6           0       -4.128563    3.424098    3.369620
     39          8           0       -4.116847    4.224547    4.305909
     40          6           0       -4.131970    4.037797    1.900202
     41          6           0       -3.016145    5.044096    1.825339
     42          8           0       -1.823572    4.683421    1.896382
     43          8           0       -3.513093    6.231553    1.446484
     44          6           0       -2.453353    7.267957    1.324130
     45          1           0       -4.840969    1.081109   -4.342686
     46          1           0       -4.275635   -4.526141   -1.664413
     47          1           0       -4.630903   -1.907994    4.032805
     48          1           0       -4.791881    4.791202   -1.079312
     49          1           0       -4.458573    3.524483   -3.575665
     50          1           0       -6.763787    3.712967   -1.673996
     51          1           0       -6.740736    2.243542   -2.696993
     52          1           0       -6.772144    3.796386   -3.483293
     53          1           0       -2.328255    3.799928   -2.528184
     54          1           0       -2.115853    4.480661   -0.865667
     55          1           0       -3.640868    6.321339   -2.406196
     56          1           0       -2.561040    5.604296   -3.540953
     57          1           0       -4.116463   -0.086377   -5.941101
     58          1           0       -4.525332   -1.715966   -6.319624
     59          1           0       -2.798720   -1.282250   -6.230086
     60          1           0       -3.693496   -3.795301   -6.354223
     61          1           0       -2.588933   -5.227704   -5.958446
     62          1           0       -2.038332   -3.533198   -5.866711
     63          1           0       -3.992585   -5.374915    0.723041
     64          1           0       -5.624149   -4.126408    2.878781
     65          1           0       -5.974457   -6.430933    0.473242
     66          1           0       -6.657650   -4.872692   -0.104570
     67          1           0       -6.782315   -5.284025    1.527066
     68          1           0       -3.781557   -5.800464    3.291942
     69          1           0       -3.743401   -4.383498    4.335301
     70          1           0       -2.083651   -5.196289    2.070066
     71          1           0       -1.538489   -4.543994    3.652469
     72          1           0       -2.180648   -3.462742    2.335946
     73          1           0       -4.072453    1.194198    5.892011
     74          1           0       -4.660794   -0.479428    5.588869
     75          1           0       -5.793561    0.913566    5.339931
     76          1           0       -5.108784    4.498095    1.755004
     77          1           0       -2.744776    8.101959    1.962682
     78          1           0       -2.333557    7.464358    0.258541
     79          1           0       -1.480559    7.014966    1.747222
     80         12           0        3.988220   -0.963694    0.427063
     81          6           0        4.058574    2.498106   -0.516356
     82          6           0        3.355133   -1.688368   -2.845348
     83          6           0        3.474061   -3.971750    1.295787
     84          6           0        3.487700    0.085310    3.712600
     85          7           0        3.759929    0.324565   -1.356343
     86          6           0        3.868559    1.621074   -1.604548
     87          6           0        3.848156    1.991305   -3.111887
     88          6           0        3.061032    0.705350   -3.664719
     89          6           0        3.439071   -0.298630   -2.577621
     90          6           0        1.550793    0.873966   -3.654844
     91          6           0        5.290050    2.088748   -3.723006
     92          6           0        5.360362    2.744989   -5.103640
     93          1           0        6.522444    3.569172   -5.424181
     94          7           0        3.974247   -2.628087   -0.653756
     95          6           0        3.720104   -2.738529   -1.974551
     96          6           0        3.812354   -4.173902   -2.283359
     97          6           0        3.979111   -4.918791   -1.005843
     98          6           0        3.790620   -3.846772   -0.049105
     99          6           0        3.820521   -4.705304   -3.687271
    100          6           0        4.249183   -6.360103   -0.696194
    101          8           0        4.118876   -6.830027    0.489142
    102          6           0        4.579974   -7.225126   -1.838030
    103          7           0        3.335054   -1.826642    2.202179
    104          6           0        3.249016   -3.162291    2.330890
    105          6           0        3.024669   -3.558208    3.770792
    106          6           0        3.220182   -2.217524    4.620461
    107          6           0        3.445701   -1.216810    3.465859
    108          6           0        1.659048   -4.167031    4.088276
    109          6           0        4.258915   -2.260885    5.774506
    110          6           0        5.653165   -2.407050    5.208721
    111          7           0        3.986212    0.926840    1.472978
    112          6           0        3.728518    1.142584    2.844526
    113          6           0        3.726634    2.603707    3.062577
    114          6           0        3.962388    3.141539    1.788361
    115          6           0        4.081296    2.090447    0.839379
    116          6           0        3.477778    3.259640    4.301103
    117          6           0        4.127112    4.359781    1.028457
    118          8           0        4.211416    5.554517    1.309957
    119          6           0        4.070855    4.001594   -0.519099
    120          6           0        5.222310    4.691612   -1.197724
    121          8           0        6.394885    4.371923   -0.934132
    122          8           0        4.749550    5.457239   -2.198061
    123          6           0        5.855103    6.153598   -2.908453
    124          1           0        2.930150   -2.008647   -3.797031
    125          1           0        3.395701   -4.995655    1.668556
    126          1           0        3.436390    0.489399    4.725890
    127          1           0        3.299089    2.894280   -3.350477
    128          1           0        3.450336    0.388213   -4.628684
    129          1           0        1.250738    1.788736   -3.165660
    130          1           0        1.162418    0.015415   -3.122773
    131          1           0        1.156727    0.801385   -4.672580
    132          1           0        5.640482    1.079927   -3.976414
    133          1           0        5.956147    2.591937   -3.049396
    134          1           0        4.433026    3.273178   -5.356678
    135          1           0        5.435229    1.958334   -5.858361
    136          1           0        3.517171   -3.937564   -4.409743
    137          1           0        3.030790   -5.461995   -3.747347
    138          1           0        4.772942   -5.166247   -3.957639
    139          1           0        3.765385   -7.200115   -2.557943
    140          1           0        4.826937   -8.197044   -1.406442
    141          1           0        5.460437   -6.814329   -2.344630
    142          1           0        3.759295   -4.287089    4.090411
    143          1           0        2.289709   -1.913837    5.122284
    144          1           0        1.725046   -5.171744    4.546824
    145          1           0        1.080740   -4.203283    3.174609
    146          1           0        1.025655   -3.566458    4.738919
    147          1           0        4.086968   -3.135898    6.406117
    148          1           0        4.226482   -1.387927    6.417846
    149          1           0        5.739728   -3.484783    5.041092
    150          1           0        6.395314   -2.057976    5.923838
    151          1           0        5.735689   -1.914037    4.233135
    152          1           0        4.209656    4.051843    4.386423
    153          1           0        3.541254    2.566898    5.137672
    154          1           0        2.455479    3.609526    4.134539
    155          1           0        3.107334    4.342870   -0.899527
    156          1           0        5.627507    7.223737   -2.882511
    157          1           0        5.917945    5.675965   -3.904277
    158          1           0        6.836389    6.134880   -2.448914
 ---------------------------------------------------------------------

 SCF Done:  E(RCAM-B3LYP) =  -4069.81174373     A.U. after   19 cycles

 Excitation energies and oscillator strengths:

 Excited State   1:      Singlet-A      1.6427 eV  754.74 nm  f=0.0654  <S**2>=0.000
     309 -> 315       -0.11574
     310 -> 316        0.11803
     311 -> 313        0.47998
     312 -> 314        0.49248
 This state for optimization and/or second-order correction.
 Total Energy, E(TD-HF/TD-DFT) =  -4069.75137413
 Copying the excited state density for this state as the 1-particle RhoCI density.

 Excited State   2:      Singlet-A      1.7034 eV  727.85 nm  f=0.5969  <S**2>=0.000
     309 -> 315       -0.12984
     310 -> 316       -0.12674
     311 -> 313        0.48966
     312 -> 314       -0.47750

 Excited State   3:      Singlet-A      2.1814 eV  568.38 nm  f=0.0247  <S**2>=0.000
     309 -> 313       -0.41611
     310 -> 314        0.49250
     311 -> 315       -0.17277
     312 -> 316       -0.20571

 Excited State   4:      Singlet-A      2.1943 eV  565.03 nm  f=0.1547  <S**2>=0.000
     309 -> 313        0.48813
     310 -> 314        0.41138
     311 -> 315        0.21491
     312 -> 316       -0.18237

 Excited State   5:      Singlet-A      2.2342 eV  554.94 nm  f=0.0000  <S**2>=0.000
     312 -> 313        0.70707

 The electronic state is 1-A.
 Alpha  occ. eigenvalues --  -46.87904 -46.87402 -19.26227 -19.26207 -19.19000
 Alpha  occ. eigenvalues --  -19.18994 -19.18978 -19.18457 -19.18253 -19.17748
 Alpha  occ. eigenvalues --  -14.42559 -14.42258 -14.41551 -14.41107 -14.39523
 Alpha  occ. eigenvalues --  -14.39091 -14.38693 -14.38310 -10.39047 -10.38920
 Alpha  occ. eigenvalues --  -10.35634 -10.35138 -10.34466 -10.33927 -10.31689
 Alpha  occ. eigenvalues --  -10.31506 -10.31506 -10.31061 -10.31020 -10.30815
 Alpha  occ. eigenvalues --  -10.30683 -10.30618 -10.30325 -10.30103 -10.30066
 Alpha  occ. eigenvalues --  -10.30009 -10.29903 -10.29759 -10.29620 -10.29386
 Alpha  occ. eigenvalues --  -10.29167 -10.29099 -10.28837 -10.28625 -10.28592
 Alpha  occ. eigenvalues --  -10.28572 -10.28478 -10.28214 -10.28137 -10.28021
 Alpha  occ. eigenvalues --  -10.27917 -10.27845 -10.27725 -10.27699 -10.27696
 Alpha  occ. eigenvalues --  -10.27580 -10.27514 -10.27501 -10.27436 -10.27306
 Alpha  occ. eigenvalues --  -10.27239 -10.27229 -10.27204 -10.27185 -10.27176
 Alpha  occ. eigenvalues --  -10.26797 -10.26788 -10.26687 -10.26599 -10.26319
 Alpha  occ. eigenvalues --  -10.26246 -10.26183 -10.26133 -10.25971 -10.25969
 Alpha  occ. eigenvalues --  -10.25945 -10.25658 -10.25495 -10.25319 -10.25267
 Alpha  occ. eigenvalues --  -10.24949 -10.24888 -10.24726 -10.24547 -10.24547
 Alpha  occ. eigenvalues --  -10.24433  -3.16647  -3.16153  -1.91528  -1.91115
 Alpha  occ. eigenvalues --   -1.91035  -1.90957  -1.90624  -1.90459  -1.16564
 Alpha  occ. eigenvalues --   -1.16511  -1.08700  -1.08357  -1.07397  -1.06782
 Alpha  occ. eigenvalues --   -1.06713  -1.06600  -1.04689  -1.04256  -1.03866
 Alpha  occ. eigenvalues --   -1.03406  -1.03347  -1.02769  -1.02520  -1.01839
 Alpha  occ. eigenvalues --   -0.92062  -0.91721  -0.89608  -0.89280  -0.89255
 Alpha  occ. eigenvalues --   -0.89011  -0.88370  -0.88003  -0.87991  -0.87781
 Alpha  occ. eigenvalues --   -0.87484  -0.87446  -0.87394  -0.86855  -0.85079
 Alpha  occ. eigenvalues --   -0.84828  -0.84006  -0.83669  -0.83150  -0.82736
 Alpha  occ. eigenvalues --   -0.82699  -0.82468  -0.81610  -0.81387  -0.80671
 Alpha  occ. eigenvalues --   -0.80216  -0.78946  -0.78351  -0.77319  -0.76988
 Alpha  occ. eigenvalues --   -0.76937  -0.76725  -0.75984  -0.75645  -0.74969
 Alpha  occ. eigenvalues --   -0.74609  -0.72884  -0.72416  -0.71759  -0.71374
 Alpha  occ. eigenvalues --   -0.69982  -0.69555  -0.68975  -0.68640  -0.67749
 Alpha  occ. eigenvalues --   -0.67358  -0.67332  -0.67019  -0.65373  -0.65093
 Alpha  occ. eigenvalues --   -0.64930  -0.64686  -0.64534  -0.64456  -0.64352
 Alpha  occ. eigenvalues --   -0.63981  -0.62294  -0.62089  -0.60584  -0.60087
 Alpha  occ. eigenvalues --   -0.59906  -0.59605  -0.59079  -0.58749  -0.58594
 Alpha  occ. eigenvalues --   -0.58186  -0.57636  -0.57389  -0.57303  -0.56991
 Alpha  occ. eigenvalues --   -0.56431  -0.55976  -0.55937  -0.55720  -0.55643
 Alpha  occ. eigenvalues --   -0.55390  -0.55220  -0.55037  -0.54554  -0.54302
 Alpha  occ. eigenvalues --   -0.53986  -0.53767  -0.53434  -0.53331  -0.52995
 Alpha  occ. eigenvalues --   -0.52975  -0.52937  -0.52888  -0.52713  -0.52505
 Alpha  occ. eigenvalues --   -0.52449  -0.52194  -0.52028  -0.51725  -0.51488
 Alpha  occ. eigenvalues --   -0.51429  -0.51271  -0.50957  -0.50785  -0.50251
 Alpha  occ. eigenvalues --   -0.50130  -0.50069  -0.49793  -0.49659  -0.49631
 Alpha  occ. eigenvalues --   -0.49320  -0.49272  -0.49184  -0.48997  -0.48872
 Alpha  occ. eigenvalues --   -0.48655  -0.48606  -0.48516  -0.48340  -0.48165
 Alpha  occ. eigenvalues --   -0.48101  -0.47798  -0.47402  -0.47394  -0.46907
 Alpha  occ. eigenvalues --   -0.46886  -0.46646  -0.46493  -0.46461  -0.46387
 Alpha  occ. eigenvalues --   -0.46230  -0.46027  -0.45876  -0.45825  -0.45564
 Alpha  occ. eigenvalues --   -0.45302  -0.44994  -0.44677  -0.44620  -0.44347
 Alpha  occ. eigenvalues --   -0.44252  -0.44228  -0.44189  -0.44104  -0.43920
 Alpha  occ. eigenvalues --   -0.43856  -0.43698  -0.43531  -0.43481  -0.43369
 Alpha  occ. eigenvalues --   -0.43194  -0.43111  -0.42767  -0.42739  -0.42651
 Alpha  occ. eigenvalues --   -0.42603  -0.42332  -0.42075  -0.41797  -0.41763
 Alpha  occ. eigenvalues --   -0.41621  -0.41423  -0.41282  -0.41232  -0.41002
 Alpha  occ. eigenvalues --   -0.40941  -0.40791  -0.40647  -0.40543  -0.40512
 Alpha  occ. eigenvalues --   -0.40332  -0.40288  -0.40089  -0.39495  -0.39213
 Alpha  occ. eigenvalues --   -0.38545  -0.38162  -0.37825  -0.37522  -0.37410
 Alpha  occ. eigenvalues --   -0.37354  -0.37043  -0.36986  -0.36716  -0.36611
 Alpha  occ. eigenvalues --   -0.36227  -0.36009  -0.34390  -0.33996  -0.33759
 Alpha  occ. eigenvalues --   -0.33678  -0.33280  -0.32912  -0.31519  -0.31137
 Alpha  occ. eigenvalues --   -0.31022  -0.30723  -0.30105  -0.29658  -0.29589
 Alpha  occ. eigenvalues --   -0.29438  -0.29043  -0.28873  -0.24184  -0.23772
 Alpha  occ. eigenvalues --   -0.21243  -0.20848
 Alpha virt. eigenvalues --   -0.08897  -0.08509  -0.01863  -0.01430  -0.00204
 Alpha virt. eigenvalues --    0.00228   0.02093   0.02399   0.02616   0.03592
 Alpha virt. eigenvalues --    0.04630   0.04955   0.05112   0.05348   0.06109

 Mulliken charges:
               1
     1  Mg   0.838704
     2  C   -0.002526
     3  C   -0.094996
     4  C   -0.045202
     5  C   -0.064396
     6  N   -0.256753
     7  C   -0.052401
     8  C   -0.013811
     9  C   -0.086808
    10  C    0.046096
    11  C    0.104820
    12  C    0.053189
    13  C   -0.072965
    14  H    0.039503
    15  N   -0.433216
    16  C    0.168075
    17  C   -0.178406
    18  C   -0.004764
    19  C    0.149093
    20  C    0.110340
    21  C    0.011557
    22  O   -0.248974
    23  C    0.063234
    24  N   -0.341256
    25  C    0.041269
    26  C   -0.028601
    27  C   -0.024449
    28  C    0.075489
    29  C    0.076089
    30  C    0.039500
    31  C   -0.014363
    32  N   -0.310686
    33  C    0.081017
    34  C   -0.170235
    35  C    0.008492
    36  C    0.083459
    37  C    0.127405
    38  C    0.046005
    39  O   -0.187597
    40  C   -0.005227
    41  C    0.212786
    42  O   -0.256585
    43  O   -0.305346
    44  C    0.156320
    45  H   -0.017861
    46  H   -0.016598
    47  H   -0.041633
    48  H    0.001642
    49  H   -0.004572
    50  H    0.025783
    51  H    0.016403
    52  H    0.016722
    53  H    0.009058
    54  H    0.045102
    55  H    0.018288
    56  H    0.016614
    57  H    0.005938
    58  H    0.027189
    59  H    0.036549
    60  H    0.038055
    61  H    0.035074
    62  H    0.028117
    63  H    0.017605
    64  H    0.009636
    65  H    0.023622
    66  H    0.012374
    67  H    0.004847
    68  H    0.006897
    69  H    0.002926
    70  H    0.012401
    71  H    0.021686
    72  H    0.029440
    73  H    0.047191
    74  H    0.008829
    75  H    0.046580
    76  H    0.035348
    77  H    0.043321
    78  H    0.046382
    79  H    0.057471
    80  Mg   0.837179
    81  C   -0.015893
    82  C   -0.087874
    83  C   -0.044961
    84  C   -0.062626
    85  N   -0.254404
    86  C   -0.049615
    87  C   -0.014806
    88  C   -0.091002
    89  C    0.045351
    90  C    0.113814
    91  C    0.062782
    92  C   -0.077245
    93  H    0.034431
    94  N   -0.423482
    95  C    0.162305
    96  C   -0.174322
    97  C   -0.007692
    98  C    0.151297
    99  C    0.099173
   100  C    0.015758
   101  O   -0.254101
   102  C    0.061112
   103  N   -0.349903
   104  C    0.035915
   105  C   -0.013044
   106  C   -0.035992
   107  C    0.089192
   108  C    0.060947
   109  C    0.034608
   110  C   -0.007258
   111  N   -0.325115
   112  C    0.079115
   113  C   -0.158181
   114  C    0.005072
   115  C    0.096350
   116  C    0.128671
   117  C    0.045939
   118  O   -0.188276
   119  C   -0.000245
   120  C    0.210685
   121  O   -0.251299
   122  O   -0.306024
   123  C    0.152259
   124  H   -0.022083
   125  H   -0.016290
   126  H   -0.039267
   127  H   -0.001843
   128  H   -0.005845
   129  H    0.023528
   130  H    0.016617
   131  H    0.011878
   132  H    0.013995
   133  H    0.037891
   134  H    0.019419
   135  H    0.018924
   136  H    0.006653
   137  H    0.027173
   138  H    0.038755
   139  H    0.039109
   140  H    0.035651
   141  H    0.033138
   142  H    0.013079
   143  H    0.013217
   144  H    0.023642
   145  H    0.018570
   146  H    0.006918
   147  H    0.005290
   148  H    0.004220
   149  H    0.010483
   150  H    0.017630
   151  H    0.030350
   152  H    0.044130
   153  H    0.007180
   154  H    0.058197
   155  H    0.036538
   156  H    0.042935
   157  H    0.048753
   158  H    0.053568
 Sum of Mulliken charges =  -0.00000

 Dipole moment (field-independent basis, Debye):
    X=             -3.5944    Y=             -1.6291    Z=             -7.0645  Tot=              8.0920
 Quadrupole moment (field-independent basis, Debye-Ang):
   XX=           -519.7924   YY=           -539.8755   ZZ=           -459.0321
   XY=            -11.7982   XZ=             -3.8199   YZ=            -38.0374

 Normal termination of Gaussian 16 at Thu Sep  9 05:14:39 2021.
