 Gaussian 16, Revision A.03,
 Gaussian 16:  ES64L-G16RevA.03 25-Dec-2016

 -----------------------------------
 #p cam-b3lyp/Def2SVP td=(nstates=5)
 -----------------------------------

 --------------------------------
 TDDFT excited states in gaussian
 --------------------------------
 Symbolic Z-matrix:
 Charge =  0 Multiplicity = 1

                         Standard orientation:
 ---------------------------------------------------------------------
 Center     Atomic      Atomic             Coordinates (Angstroms)
 Number     Number       Type             X           Y           Z
 ---------------------------------------------------------------------
      1         12           0        5.422748   -0.517262    0.753143
      2          6           0        5.805350    2.473163   -1.176415
      3          6           0        5.882602    1.398860    3.538835
      4          6           0        5.541977   -3.197285    2.444261
      5          6           0        6.122672   -2.306827   -2.154300
      6          7           0        5.786879    1.650144    1.018490
      7          6           0        5.851728    2.696759    0.201446
      8          6           0        5.897697    4.062632    0.949544
      9          6           0        6.484124    3.565091    2.346167
     10          6           0        5.992804    2.128521    2.317982
     11          6           0        8.008440    3.561896    2.400515
     12          6           0        4.475793    4.696227    1.118295
     13          6           0        4.462308    6.167970    1.541551
     14          1           0        3.424258    7.039431    1.012065
     15          7           0        5.191758   -0.820347    2.691604
     16          6           0        5.408066    0.077162    3.683055
     17          6           0        5.097002   -0.627235    4.945491
     18          6           0        4.865340   -2.062148    4.620757
     19          6           0        5.220730   -2.089376    3.224930
     20          6           0        4.996820    0.064283    6.270450
     21          6           0        4.407900   -3.226542    5.441164
     22          8           0        4.496683   -4.430959    5.021556
     23          6           0        3.928711   -2.923573    6.801910
     24          7           0        5.995008   -2.468904    0.282776
     25          6           0        5.895465   -3.453135    1.182979
     26          6           0        6.088644   -4.797317    0.545958
     27          6           0        6.100711   -4.541911   -1.030232
     28          6           0        5.987552   -2.997451   -1.019906
     29          6           0        7.362164   -5.552739    0.950304
     30          6           0        5.089144   -5.349905   -1.881288
     31          6           0        3.679301   -4.906133   -1.561121
     32          7           0        5.710777   -0.045280   -1.345742
     33          6           0        6.014660   -0.944438   -2.378139
     34          6           0        6.221486   -0.145415   -3.599964
     35          6           0        6.038662    1.172926   -3.187173
     36          6           0        5.762641    1.197878   -1.790218
     37          6           0        6.592613   -0.654467   -4.875724
     38          6           0        6.036590    2.568098   -3.596256
     39          8           0        6.115493    3.155185   -4.676346
     40          6           0        6.005879    3.474090   -2.287034
     41          6           0        4.947779    4.524844   -2.486161
     42          8           0        3.741059    4.213380   -2.550839
     43          8           0        5.494022    5.740686   -2.331594
     44          6           0        4.491341    6.828138   -2.487259
     45          1           0        6.246451    1.855506    4.461347
     46          1           0        5.485475   -4.154552    2.966646
     47          1           0        6.260795   -2.802503   -3.116942
     48          1           0        6.566411    4.801037    0.506820
     49          1           0        6.042639    4.100146    3.186720
     50          1           0        8.442341    3.779760    1.424715
     51          1           0        8.286003    2.558890    2.725216
     52          1           0        8.369830    4.238437    3.175412
     53          1           0        3.983786    4.250110    1.982569
     54          1           0        3.890031    4.578067    0.206019
     55          1           0        5.444214    6.626435    1.420805
     56          1           0        4.272240    6.213219    2.613944
     57          1           0        5.380823    1.082433    6.220866
     58          1           0        5.676457   -0.449560    6.949984
     59          1           0        3.983972    0.036071    6.672539
     60          1           0        4.725146   -2.434726    7.363398
     61          1           0        3.559633   -3.865002    7.207303
     62          1           0        3.112837   -2.203126    6.736698
     63          1           0        5.267206   -5.468704    0.792748
     64          1           0        7.068428   -4.775152   -1.474976
     65          1           0        7.170688   -6.540718    1.369754
     66          1           0        7.914661   -4.929848    1.653187
     67          1           0        8.092461   -5.677991    0.151308
     68          1           0        5.153806   -6.410653   -1.641333
     69          1           0        5.247040   -5.242420   -2.954492
     70          1           0        3.437707   -5.486169   -0.671165
     71          1           0        3.006686   -5.153733   -2.383005
     72          1           0        3.647199   -3.852741   -1.282156
     73          1           0        5.971202   -0.133988   -5.604367
     74          1           0        6.446832   -1.733112   -4.929351
     75          1           0        7.645145   -0.373293   -4.906934
     76          1           0        6.999688    3.908424   -2.183012
     77          1           0        4.860379    7.495979   -3.265741
     78          1           0        4.332777    7.247966   -1.493777
     79          1           0        3.526678    6.538136   -2.905186
     80         12           0       -5.058000   -0.790676   -0.642165
     81          6           0       -7.546078    1.505222    0.548374
     82          6           0       -3.383153    1.905109   -1.892067
     83          6           0       -3.086540   -2.811876   -2.089757
     84          6           0       -7.436716   -3.317651   -0.323117
     85          7           0       -5.507257    1.374848   -0.611468
     86          6           0       -6.450075    2.135905   -0.076475
     87          6           0       -6.164382    3.659956   -0.148696
     88          6           0       -5.166106    3.658142   -1.406591
     89          6           0       -4.619443    2.237400   -1.282749
     90          6           0       -5.880703    3.780216   -2.742179
     91          6           0       -5.457449    4.197534    1.144862
     92          6           0       -5.427118    5.721977    1.274822
     93          1           0       -5.549006    6.309601    2.606104
     94          7           0       -3.240800   -0.501721   -1.385712
     95          6           0       -2.716357    0.662108   -1.823598
     96          6           0       -1.359050    0.341019   -2.291345
     97          6           0       -1.184669   -1.136239   -2.246508
     98          6           0       -2.533801   -1.551085   -1.918139
     99          6           0       -0.350768    1.394450   -2.647823
    100          6           0       -0.002577   -2.028671   -2.475482
    101          8           0       -0.133092   -3.295725   -2.618236
    102          6           0        1.301343   -1.365225   -2.620791
    103          7           0       -5.293274   -2.736028   -1.336840
    104          6           0       -4.261466   -3.405791   -1.879732
    105          6           0       -4.591072   -4.869428   -2.051498
    106          6           0       -5.976949   -5.090593   -1.284680
    107          6           0       -6.266189   -3.634215   -0.859613
    108          6           0       -4.724658   -5.356379   -3.494213
    109          6           0       -6.010231   -6.198625   -0.196642
    110          6           0       -5.135895   -5.801779    0.971029
    111          7           0       -7.056185   -0.953114    0.163411
    112          6           0       -7.881989   -2.098558    0.171790
    113          6           0       -9.190423   -1.687954    0.721168
    114          6           0       -9.041307   -0.316141    0.974876
    115          6           0       -7.738997    0.103168    0.590593
    116          6           0      -10.327424   -2.529605    0.879213
    117          6           0       -9.693008    0.874811    1.470491
    118          8           0      -10.771760    1.113365    2.011886
    119          6           0       -8.796284    2.133423    1.098794
    120          6           0       -8.666936    2.990824    2.327889
    121          8           0       -8.062880    2.571049    3.330648
    122          8           0       -9.084925    4.237298    2.041610
    123          6           0       -8.965496    5.128019    3.226578
    124          1           0       -2.895459    2.653171   -2.517713
    125          1           0       -2.409830   -3.573755   -2.483564
    126          1           0       -8.198755   -4.067585   -0.100478
    127          1           0       -7.030450    4.274860   -0.362224
    128          1           0       -4.368903    4.385881   -1.279236
    129          1           0       -6.953638    3.729026   -2.631203
    130          1           0       -5.522772    2.955018   -3.343824
    131          1           0       -5.561839    4.690197   -3.258517
    132          1           0       -4.381210    3.993393    1.075853
    133          1           0       -5.895795    3.768499    2.024864
    134          1           0       -6.117035    6.209131    0.575084
    135          1           0       -4.439998    6.076780    0.968661
    136          1           0       -0.817697    2.382602   -2.742291
    137          1           0        0.007395    1.165637   -3.657391
    138          1           0        0.501709    1.409662   -1.965394
    139          1           0        1.260951   -0.668156   -3.454403
    140          1           0        2.033865   -2.171959   -2.687680
    141          1           0        1.492913   -0.769455   -1.721354
    142          1           0       -3.832833   -5.492891   -1.593830
    143          1           0       -6.782327   -5.382418   -1.974641
    144          1           0       -4.043805   -6.193980   -3.736972
    145          1           0       -4.547265   -4.518361   -4.155121
    146          1           0       -5.725444   -5.671661   -3.784419
    147          1           0       -5.596692   -7.129815   -0.591647
    148          1           0       -7.008905   -6.418032    0.165996
    149          1           0       -4.135938   -6.101900    0.643764
    150          1           0       -5.433414   -6.335768    1.871232
    151          1           0       -5.126550   -4.713685    1.103762
    152          1           0      -10.747167   -2.306609    1.851112
    153          1           0      -10.059265   -3.580500    0.792740
    154          1           0      -10.938802   -2.191430    0.038317
    155          1           0       -9.292787    2.659904    0.282780
    156          1           0       -9.955673    5.559362    3.403132
    157          1           0       -8.144659    5.831008    2.990367
    158          1           0       -8.763354    4.663344    4.184534
 ---------------------------------------------------------------------

 SCF Done:  E(RCAM-B3LYP) =  -4069.81403058     A.U. after   18 cycles

 Excitation energies and oscillator strengths:

 Excited State   1:      Singlet-A      1.6554 eV  748.96 nm  f=0.2257  <S**2>=0.000
     309 -> 315        0.11605
     310 -> 316        0.12335
     311 -> 313       -0.46866
     312 -> 314        0.50255
 This state for optimization and/or second-order correction.
 Total Energy, E(TD-HF/TD-DFT) =  -4069.75319494
 Copying the excited state density for this state as the 1-particle RhoCI density.

 Excited State   2:      Singlet-A      1.6947 eV  731.60 nm  f=0.5459  <S**2>=0.000
     309 -> 315       -0.13168
     310 -> 316        0.12123
     311 -> 313        0.50084
     312 -> 314        0.46725

 Excited State   3:      Singlet-A      2.1873 eV  566.83 nm  f=0.0130  <S**2>=0.000
     309 -> 313       -0.33053
     310 -> 314        0.55198
     311 -> 315       -0.13896
     312 -> 316       -0.23441

 Excited State   4:      Singlet-A      2.1978 eV  564.12 nm  f=0.1658  <S**2>=0.000
     309 -> 313        0.54919
     310 -> 314        0.32735
     311 -> 315        0.24159
     312 -> 316       -0.14355

 Excited State   5:      Singlet-A      2.4308 eV  510.05 nm  f=0.0000  <S**2>=0.000
     312 -> 313        0.70677

 The electronic state is 1-A.
 Alpha  occ. eigenvalues --  -46.87997 -46.87421 -19.26678 -19.26225 -19.19467
 Alpha  occ. eigenvalues --  -19.19023 -19.18909 -19.18473 -19.18420 -19.17833
 Alpha  occ. eigenvalues --  -14.42643 -14.42261 -14.41599 -14.41121 -14.39580
 Alpha  occ. eigenvalues --  -14.39102 -14.38813 -14.38360 -10.39497 -10.38947
 Alpha  occ. eigenvalues --  -10.35537 -10.35093 -10.34648 -10.34017 -10.32072
 Alpha  occ. eigenvalues --  -10.31665 -10.31617 -10.31107 -10.31079 -10.30771
 Alpha  occ. eigenvalues --  -10.30760 -10.30680 -10.30301 -10.30173 -10.30103
 Alpha  occ. eigenvalues --  -10.30059 -10.29880 -10.29806 -10.29696 -10.29421
 Alpha  occ. eigenvalues --  -10.29153 -10.29106 -10.28987 -10.28830 -10.28576
 Alpha  occ. eigenvalues --  -10.28539 -10.28516 -10.28327 -10.28141 -10.27981
 Alpha  occ. eigenvalues --  -10.27918 -10.27902 -10.27748 -10.27731 -10.27609
 Alpha  occ. eigenvalues --  -10.27595 -10.27449 -10.27440 -10.27439 -10.27400
 Alpha  occ. eigenvalues --  -10.27326 -10.27250 -10.27200 -10.27161 -10.27007
 Alpha  occ. eigenvalues --  -10.26856 -10.26688 -10.26533 -10.26453 -10.26416
 Alpha  occ. eigenvalues --  -10.26155 -10.26015 -10.25972 -10.25961 -10.25938
 Alpha  occ. eigenvalues --  -10.25803 -10.25691 -10.25650 -10.25440 -10.25246
 Alpha  occ. eigenvalues --  -10.25043 -10.24933 -10.24618 -10.24569 -10.24461
 Alpha  occ. eigenvalues --  -10.24207  -3.16740  -3.16172  -1.91623  -1.91207
 Alpha  occ. eigenvalues --   -1.91055  -1.91050  -1.90643  -1.90479  -1.17031
 Alpha  occ. eigenvalues --   -1.16515  -1.08896  -1.08453  -1.07304  -1.07071
 Alpha  occ. eigenvalues --   -1.06805  -1.06703  -1.04778  -1.04255  -1.03915
 Alpha  occ. eigenvalues --   -1.03424  -1.03414  -1.02797  -1.02586  -1.01867
 Alpha  occ. eigenvalues --   -0.92193  -0.91757  -0.89573  -0.89399  -0.89276
 Alpha  occ. eigenvalues --   -0.88941  -0.88308  -0.88060  -0.88017  -0.87848
 Alpha  occ. eigenvalues --   -0.87560  -0.87440  -0.87408  -0.86708  -0.85186
 Alpha  occ. eigenvalues --   -0.84782  -0.83941  -0.83686  -0.83014  -0.82816
 Alpha  occ. eigenvalues --   -0.82607  -0.82355  -0.81835  -0.81409  -0.80788
 Alpha  occ. eigenvalues --   -0.80215  -0.78949  -0.78282  -0.77357  -0.77102
 Alpha  occ. eigenvalues --   -0.76879  -0.76710  -0.76126  -0.75591  -0.74956
 Alpha  occ. eigenvalues --   -0.74586  -0.72930  -0.72446  -0.71835  -0.71357
 Alpha  occ. eigenvalues --   -0.69802  -0.69563  -0.69057  -0.68592  -0.67820
 Alpha  occ. eigenvalues --   -0.67424  -0.67365  -0.66952  -0.65503  -0.65062
 Alpha  occ. eigenvalues --   -0.65057  -0.64780  -0.64548  -0.64446  -0.64298
 Alpha  occ. eigenvalues --   -0.63995  -0.62551  -0.62098  -0.60561  -0.60014
 Alpha  occ. eigenvalues --   -0.59999  -0.59568  -0.59155  -0.58766  -0.58679
 Alpha  occ. eigenvalues --   -0.58189  -0.57870  -0.57423  -0.57360  -0.56982
 Alpha  occ. eigenvalues --   -0.56504  -0.56257  -0.55931  -0.55683  -0.55680
 Alpha  occ. eigenvalues --   -0.55459  -0.55170  -0.55052  -0.54641  -0.54311
 Alpha  occ. eigenvalues --   -0.54119  -0.53702  -0.53435  -0.53410  -0.53137
 Alpha  occ. eigenvalues --   -0.52989  -0.52897  -0.52885  -0.52688  -0.52339
 Alpha  occ. eigenvalues --   -0.52264  -0.52198  -0.52098  -0.51824  -0.51670
 Alpha  occ. eigenvalues --   -0.51404  -0.51339  -0.50984  -0.50654  -0.50111
 Alpha  occ. eigenvalues --   -0.50059  -0.49947  -0.49690  -0.49645  -0.49596
 Alpha  occ. eigenvalues --   -0.49412  -0.49291  -0.49209  -0.48919  -0.48886
 Alpha  occ. eigenvalues --   -0.48828  -0.48606  -0.48529  -0.48337  -0.48181
 Alpha  occ. eigenvalues --   -0.48021  -0.47832  -0.47443  -0.47311  -0.46932
 Alpha  occ. eigenvalues --   -0.46787  -0.46761  -0.46528  -0.46479  -0.46333
 Alpha  occ. eigenvalues --   -0.46287  -0.46053  -0.45984  -0.45859  -0.45634
 Alpha  occ. eigenvalues --   -0.45240  -0.44998  -0.44794  -0.44628  -0.44322
 Alpha  occ. eigenvalues --   -0.44303  -0.44256  -0.44209  -0.44129  -0.43904
 Alpha  occ. eigenvalues --   -0.43830  -0.43721  -0.43627  -0.43510  -0.43375
 Alpha  occ. eigenvalues --   -0.43189  -0.43162  -0.43020  -0.42754  -0.42670
 Alpha  occ. eigenvalues --   -0.42626  -0.42304  -0.42020  -0.41869  -0.41767
 Alpha  occ. eigenvalues --   -0.41672  -0.41447  -0.41308  -0.41249  -0.41021
 Alpha  occ. eigenvalues --   -0.40939  -0.40764  -0.40564  -0.40503  -0.40463
 Alpha  occ. eigenvalues --   -0.40444  -0.40298  -0.40024  -0.39287  -0.39239
 Alpha  occ. eigenvalues --   -0.38517  -0.38158  -0.37981  -0.37489  -0.37469
 Alpha  occ. eigenvalues --   -0.37387  -0.37052  -0.37028  -0.36961  -0.36621
 Alpha  occ. eigenvalues --   -0.36342  -0.36023  -0.34478  -0.34173  -0.34020
 Alpha  occ. eigenvalues --   -0.33705  -0.33374  -0.32937  -0.31442  -0.31207
 Alpha  occ. eigenvalues --   -0.31004  -0.30738  -0.30288  -0.29746  -0.29629
 Alpha  occ. eigenvalues --   -0.29522  -0.29044  -0.28948  -0.24267  -0.23800
 Alpha  occ. eigenvalues --   -0.21296  -0.20863
 Alpha virt. eigenvalues --   -0.08948  -0.08525  -0.01906  -0.01450  -0.00218
 Alpha virt. eigenvalues --    0.00248   0.01994   0.02373   0.02573   0.03432
 Alpha virt. eigenvalues --    0.04519   0.04708   0.04941   0.05319   0.05890

 Mulliken charges:
               1
     1  Mg   0.832551
     2  C   -0.004879
     3  C   -0.094203
     4  C   -0.044665
     5  C   -0.064477
     6  N   -0.256822
     7  C   -0.053611
     8  C   -0.013626
     9  C   -0.087016
    10  C    0.046412
    11  C    0.104660
    12  C    0.053353
    13  C   -0.071640
    14  H    0.034570
    15  N   -0.433731
    16  C    0.168837
    17  C   -0.176720
    18  C   -0.003215
    19  C    0.149084
    20  C    0.109994
    21  C    0.013113
    22  O   -0.248298
    23  C    0.062138
    24  N   -0.341699
    25  C    0.042210
    26  C   -0.028390
    27  C   -0.024368
    28  C    0.075660
    29  C    0.076223
    30  C    0.034300
    31  C   -0.008664
    32  N   -0.310394
    33  C    0.079284
    34  C   -0.171300
    35  C    0.007493
    36  C    0.079595
    37  C    0.127688
    38  C    0.044037
    39  O   -0.189199
    40  C   -0.004835
    41  C    0.213924
    42  O   -0.261980
    43  O   -0.303651
    44  C    0.157990
    45  H   -0.017100
    46  H   -0.015561
    47  H   -0.040543
    48  H    0.000990
    49  H   -0.003738
    50  H    0.025593
    51  H    0.016976
    52  H    0.017167
    53  H    0.011469
    54  H    0.041217
    55  H    0.018666
    56  H    0.018904
    57  H    0.005967
    58  H    0.027493
    59  H    0.040635
    60  H    0.037329
    61  H    0.036658
    62  H    0.032196
    63  H    0.018315
    64  H    0.009039
    65  H    0.023793
    66  H    0.011931
    67  H    0.004976
    68  H    0.006181
    69  H    0.004187
    70  H    0.007366
    71  H    0.032215
    72  H    0.030106
    73  H    0.046121
    74  H    0.010499
    75  H    0.046408
    76  H    0.035908
    77  H    0.043806
    78  H    0.047026
    79  H    0.051468
    80  Mg   0.836657
    81  C   -0.016887
    82  C   -0.086750
    83  C   -0.045882
    84  C   -0.065120
    85  N   -0.254398
    86  C   -0.050728
    87  C   -0.015029
    88  C   -0.090372
    89  C    0.045169
    90  C    0.114325
    91  C    0.062537
    92  C   -0.077323
    93  H    0.033130
    94  N   -0.423615
    95  C    0.162203
    96  C   -0.174951
    97  C   -0.007013
    98  C    0.152508
    99  C    0.100227
   100  C    0.013566
   101  O   -0.256150
   102  C    0.055403
   103  N   -0.350082
   104  C    0.037923
   105  C   -0.019837
   106  C   -0.034499
   107  C    0.088406
   108  C    0.073861
   109  C    0.034923
   110  C   -0.007490
   111  N   -0.323784
   112  C    0.077552
   113  C   -0.163958
   114  C    0.001885
   115  C    0.095460
   116  C    0.131669
   117  C    0.041749
   118  O   -0.189226
   119  C    0.001051
   120  C    0.211162
   121  O   -0.251582
   122  O   -0.305534
   123  C    0.152301
   124  H   -0.017482
   125  H   -0.016331
   126  H   -0.041291
   127  H   -0.001184
   128  H   -0.003810
   129  H    0.021978
   130  H    0.014901
   131  H    0.016463
   132  H    0.014000
   133  H    0.037065
   134  H    0.020763
   135  H    0.019560
   136  H    0.011052
   137  H    0.030024
   138  H    0.048789
   139  H    0.043990
   140  H    0.037929
   141  H    0.036097
   142  H    0.013917
   143  H    0.011900
   144  H    0.024271
   145  H    0.011872
   146  H    0.005398
   147  H    0.005583
   148  H    0.003271
   149  H    0.010827
   150  H    0.017431
   151  H    0.030316
   152  H    0.045174
   153  H    0.007942
   154  H    0.046310
   155  H    0.034643
   156  H    0.043500
   157  H    0.049261
   158  H    0.053018
 Sum of Mulliken charges =  -0.00000

 Dipole moment (field-independent basis, Debye):
    X=              4.5923    Y=              2.9389    Z=              1.4425  Tot=              5.6398
 Quadrupole moment (field-independent basis, Debye-Ang):
   XX=           -544.0555   YY=           -466.0377   ZZ=           -516.1168
   XY=             11.1905   XZ=             48.8447   YZ=             28.4848

 Normal termination of Gaussian 16 at Fri Sep 10 10:06:53 2021.
