 Gaussian 16, Revision A.03,
 Gaussian 16:  ES64L-G16RevA.03 25-Dec-2016

 -----------------------------------
 #p cam-b3lyp/Def2SVP td=(nstates=5)
 -----------------------------------

 --------------------------------
 TDDFT excited states in gaussian
 --------------------------------
 Symbolic Z-matrix:
 Charge =  0 Multiplicity = 1

                         Standard orientation:
 ---------------------------------------------------------------------
 Center     Atomic      Atomic             Coordinates (Angstroms)
 Number     Number       Type             X           Y           Z
 ---------------------------------------------------------------------
      1         12           0       -5.222722   -0.686183    0.011529
      2          6           0       -5.375094    2.828612    0.671235
      3          6           0       -6.044693    0.035839   -3.220515
      4          6           0       -5.539674   -3.801491   -0.489487
      5          6           0       -5.536387   -1.194485    3.445027
      6          7           0       -5.630831    1.228219   -1.022472
      7          6           0       -5.597644    2.509604   -0.670163
      8          6           0       -5.746676    3.485747   -1.875281
      9          6           0       -6.502875    2.517502   -2.891480
     10          6           0       -6.003218    1.181250   -2.371194
     11          6           0       -8.021681    2.559900   -2.757575
     12          6           0       -4.361653    3.944159   -2.443877
     13          6           0       -4.411057    5.139753   -3.399632
     14          1           0       -3.319437    6.101578   -3.374976
     15          7           0       -5.238230   -1.717834   -1.673198
     16          6           0       -5.584304   -1.259663   -2.900226
     17          6           0       -5.431991   -2.406391   -3.821365
     18          6           0       -5.152186   -3.616344   -2.999284
     19          6           0       -5.327047   -3.091808   -1.668997
     20          6           0       -5.505298   -2.279697   -5.312111
     21          6           0       -4.795685   -5.024743   -3.356288
     22          8           0       -4.823059   -5.971768   -2.497819
     23          6           0       -4.495252   -5.286761   -4.775488
     24          7           0       -5.718636   -2.282366    1.262091
     25          6           0       -5.728363   -3.539514    0.805508
     26          6           0       -5.830789   -4.527776    1.929245
     27          6           0       -5.643910   -3.688281    3.274637
     28          6           0       -5.542392   -2.271861    2.656805
     29          6           0       -7.140759   -5.324401    2.002585
     30          6           0       -4.527442   -4.152090    4.243554
     31          6           0       -3.172478   -3.926284    3.610954
     32          7           0       -5.244422    0.565208    1.784830
     33          6           0       -5.409092    0.143761    3.112211
     34          6           0       -5.463753    1.357746    3.947269
     35          6           0       -5.342931    2.408433    3.039908
     36          6           0       -5.246923    1.884809    1.718965
     37          6           0       -5.666554    1.392366    5.355143
     38          6           0       -5.297360    3.852430    2.876654
     39          8           0       -5.241870    4.811034    3.648335
     40          6           0       -5.438878    4.186087    1.326017
     41          6           0       -4.370468    5.186057    0.976921
     42          8           0       -3.163444    4.871016    1.011662
     43          8           0       -4.939325    6.272624    0.432573
     44          6           0       -3.931632    7.292232    0.036203
     45          1           0       -6.525656    0.119955   -4.197009
     46          1           0       -5.544220   -4.887281   -0.605577
     47          1           0       -5.547972   -1.277477    4.533342
     48          1           0       -6.358158    4.365642   -1.674531
     49          1           0       -6.175112    2.670396   -3.919545
     50          1           0       -8.329313    3.153261   -1.896641
     51          1           0       -8.332162    1.522059   -2.635179
     52          1           0       -8.482777    2.903334   -3.683977
     53          1           0       -3.980819    3.180322   -3.121800
     54          1           0       -3.663946    4.158863   -1.633672
     55          1           0       -5.372416    5.651666   -3.348218
     56          1           0       -4.359159    4.762813   -4.421113
     57          1           0       -5.886075   -1.304470   -5.612923
     58          1           0       -6.262676   -2.984482   -5.654696
     59          1           0       -4.551641   -2.503581   -5.790386
     60          1           0       -5.359576   -5.015977   -5.382257
     61          1           0       -4.174985   -6.326722   -4.828027
     62          1           0       -3.682110   -4.632352   -5.090923
     63          1           0       -5.043323   -5.277460    1.863701
     64          1           0       -6.545787   -3.691308    3.887239
     65          1           0       -6.998154   -6.404994    1.976364
     66          1           0       -7.781924   -4.994621    1.185613
     67          1           0       -7.762764   -5.102487    2.869350
     68          1           0       -4.615627   -5.220021    4.440260
     69          1           0       -4.548257   -3.635288    5.203102
     70          1           0       -3.042470   -4.812669    2.991075
     71          1           0       -2.399329   -3.869398    4.377906
     72          1           0       -3.182523   -3.062340    2.946133
     73          1           0       -4.960726    2.124598    5.747077
     74          1           0       -5.508571    0.411153    5.802205
     75          1           0       -6.708269    1.709464    5.401360
     76          1           0       -6.440474    4.590218    1.182473
     77          1           0       -4.202756    8.222511    0.535509
     78          1           0       -3.903231    7.292537   -1.053567
     79          1           0       -2.919913    7.142704    0.414889
     80         12           0        5.365839   -0.860884    0.139604
     81          6           0        5.222464    2.716572   -0.106051
     82          6           0        4.528983   -0.972068   -3.165232
     83          6           0        5.042517   -4.003960    0.429332
     84          6           0        5.060378   -0.497245    3.592163
     85          7           0        4.955422    0.733689   -1.337279
     86          6           0        4.991311    2.057713   -1.331569
     87          6           0        4.846557    2.711097   -2.732173
     88          6           0        4.076230    1.514996   -3.477045
     89          6           0        4.573630    0.342001   -2.634825
     90          6           0        2.564911    1.594733   -3.339594
     91          6           0        6.235164    3.004625   -3.401209
     92          6           0        6.177938    3.918647   -4.627200
     93          1           0        7.278204    4.852287   -4.851282
     94          7           0        5.343708   -2.282665   -1.244810
     95          6           0        4.999674   -2.149152   -2.542925
     96          6           0        5.129557   -3.490221   -3.133545
     97          6           0        5.419288   -4.457997   -2.040761
     98          6           0        5.255566   -3.603619   -0.881740
     99          6           0        5.058585   -3.738432   -4.612319
    100          6           0        5.771299   -5.914804   -2.038579
    101          8           0        5.746803   -6.611831   -0.963226
    102          6           0        6.054766   -6.522713   -3.346852
    103          7           0        4.879413   -2.085995    1.747343
    104          6           0        4.859053   -3.423965    1.615609
    105          6           0        4.756124   -4.102989    2.960493
    106          6           0        4.956046   -2.943484    4.043622
    107          6           0        5.055360   -1.727231    3.096914
    108          6           0        3.443777   -4.836342    3.236741
    109          6           0        6.076348   -3.151974    5.099153
    110          6           0        7.430978   -3.108489    4.429473
    111          7           0        5.360023    0.788281    1.535411
    112          6           0        5.193263    0.719775    2.935970
    113          6           0        5.145793    2.108645    3.437211
    114          6           0        5.266088    2.895230    2.281657
    115          6           0        5.360161    2.055992    1.138713
    116          6           0        4.959738    2.497555    4.793768
    117          6           0        5.324192    4.244776    1.767791
    118          8           0        5.378384    5.365177    2.273239
    119          6           0        5.171377    4.190463    0.186624
    120          6           0        6.240824    5.061430   -0.413579
    121          8           0        7.441755    4.762104   -0.292073
    122          8           0        5.665304    5.978928   -1.211911
    123          6           0        6.686440    6.859721   -1.839053
    124          1           0        4.050191   -1.125016   -4.132833
    125          1           0        5.034343   -5.083402    0.597301
    126          1           0        5.065480   -0.300479    4.666367
    127          1           0        4.244261    3.611411   -2.753376
    128          1           0        4.407853    1.412548   -4.507039
    129          1           0        2.262835    2.379450   -2.662009
    130          1           0        2.252370    0.629267   -2.963776
    131          1           0        2.101746    1.698909   -4.324963
    132          1           0        6.608411    2.084921   -3.869788
    133          1           0        6.926476    3.403904   -2.684760
    134          1           0        5.213407    4.433723   -4.712671
    135          1           0        6.231053    3.298385   -5.525246
    136          1           0        4.671870   -2.863306   -5.148987
    137          1           0        4.299041   -4.511665   -4.770667
    138          1           0        6.007496   -4.084910   -5.027288
    139          1           0        5.189972   -6.403866   -3.995284
    140          1           0        6.372842   -7.544631   -3.131475
    141          1           0        6.878301   -5.973543   -3.816753
    142          1           0        5.541873   -4.838199    3.083652
    143          1           0        4.052332   -2.794651    4.652710
    144          1           0        3.584844   -5.905618    3.483383
    145          1           0        2.803016   -4.726913    2.371882
    146          1           0        2.834389   -4.409090    4.031294
    147          1           0        5.987361   -4.140873    5.555567
    148          1           0        6.053848   -2.423272    5.902575
    149          1           0        7.550369   -4.126888    4.047786
    150          1           0        8.207538   -2.863990    5.151429
    151          1           0        7.422037   -2.432101    3.566887
    152          1           0        5.661957    3.297483    4.987434
    153          1           0        5.112497    1.660530    5.471869
    154          1           0        3.914282    2.815990    4.763736
    155          1           0        4.169419    4.545133   -0.058034
    156          1           0        6.416579    7.890325   -1.588659
    157          1           0        6.697171    6.588179   -2.911391
    158          1           0        7.698274    6.806667   -1.454579
 ---------------------------------------------------------------------

 SCF Done:  E(RCAM-B3LYP) =  -4069.81139590     A.U. after   19 cycles

 Excitation energies and oscillator strengths:

 Excited State   1:      Singlet-A      1.6573 eV  748.10 nm  f=0.0154  <S**2>=0.000
     309 -> 315       -0.11413
     310 -> 316        0.12494
     311 -> 313       -0.46167
     312 -> 314        0.50888
 This state for optimization and/or second-order correction.
 Total Energy, E(TD-HF/TD-DFT) =  -4069.75049085
 Copying the excited state density for this state as the 1-particle RhoCI density.

 Excited State   2:      Singlet-A      1.6962 eV  730.94 nm  f=0.7024  <S**2>=0.000
     309 -> 315        0.13321
     310 -> 316        0.12025
     311 -> 313        0.50701
     312 -> 314        0.46008

 Excited State   3:      Singlet-A      2.1833 eV  567.88 nm  f=0.0228  <S**2>=0.000
     309 -> 313       -0.28717
     310 -> 314        0.57619
     311 -> 315        0.12011
     312 -> 316       -0.24266

 Excited State   4:      Singlet-A      2.1940 eV  565.10 nm  f=0.1599  <S**2>=0.000
     309 -> 313        0.57285
     310 -> 314        0.28415
     311 -> 315       -0.25084
     312 -> 316       -0.12540

 Excited State   5:      Singlet-A      2.4850 eV  498.93 nm  f=0.0000  <S**2>=0.000
     312 -> 313        0.70709

 The electronic state is 1-A.
 Alpha  occ. eigenvalues --  -46.87875 -46.87491 -19.26296 -19.26202 -19.19038
 Alpha  occ. eigenvalues --  -19.19006 -19.18899 -19.18568 -19.18215 -19.17843
 Alpha  occ. eigenvalues --  -14.42531 -14.42333 -14.41525 -14.41192 -14.39483
 Alpha  occ. eigenvalues --  -14.39185 -14.38660 -14.38420 -10.39101 -10.38930
 Alpha  occ. eigenvalues --  -10.35535 -10.35248 -10.34434 -10.34019 -10.31669
 Alpha  occ. eigenvalues --  -10.31640 -10.31482 -10.31138 -10.30993 -10.30869
 Alpha  occ. eigenvalues --  -10.30645 -10.30579 -10.30288 -10.30218 -10.30181
 Alpha  occ. eigenvalues --  -10.29989 -10.29986 -10.29718 -10.29707 -10.29336
 Alpha  occ. eigenvalues --  -10.29274 -10.29226 -10.28841 -10.28660 -10.28583
 Alpha  occ. eigenvalues --  -10.28580 -10.28441 -10.28231 -10.28206 -10.28003
 Alpha  occ. eigenvalues --  -10.27866 -10.27821 -10.27810 -10.27666 -10.27602
 Alpha  occ. eigenvalues --  -10.27570 -10.27514 -10.27510 -10.27476 -10.27378
 Alpha  occ. eigenvalues --  -10.27361 -10.27312 -10.27298 -10.27231 -10.27204
 Alpha  occ. eigenvalues --  -10.26843 -10.26823 -10.26586 -10.26527 -10.26312
 Alpha  occ. eigenvalues --  -10.26301 -10.26256 -10.26096 -10.26015 -10.25897
 Alpha  occ. eigenvalues --  -10.25877 -10.25767 -10.25607 -10.25488 -10.25261
 Alpha  occ. eigenvalues --  -10.24902 -10.24859 -10.24767 -10.24683 -10.24613
 Alpha  occ. eigenvalues --  -10.24521  -3.16618  -3.16240  -1.91499  -1.91123
 Alpha  occ. eigenvalues --   -1.91086  -1.90928  -1.90711  -1.90548  -1.16646
 Alpha  occ. eigenvalues --   -1.16494  -1.08668  -1.08448  -1.07300  -1.06821
 Alpha  occ. eigenvalues --   -1.06789  -1.06660  -1.04661  -1.04330  -1.03837
 Alpha  occ. eigenvalues --   -1.03495  -1.03309  -1.02868  -1.02486  -1.01939
 Alpha  occ. eigenvalues --   -0.92038  -0.91806  -0.89591  -0.89338  -0.89278
 Alpha  occ. eigenvalues --   -0.89012  -0.88356  -0.88071  -0.87938  -0.87756
 Alpha  occ. eigenvalues --   -0.87597  -0.87526  -0.87367  -0.86974  -0.85070
 Alpha  occ. eigenvalues --   -0.84859  -0.84002  -0.83730  -0.83061  -0.82797
 Alpha  occ. eigenvalues --   -0.82728  -0.82512  -0.81634  -0.81438  -0.80663
 Alpha  occ. eigenvalues --   -0.80285  -0.78883  -0.78474  -0.77299  -0.77004
 Alpha  occ. eigenvalues --   -0.76997  -0.76756  -0.75989  -0.75685  -0.74961
 Alpha  occ. eigenvalues --   -0.74654  -0.72848  -0.72526  -0.71742  -0.71422
 Alpha  occ. eigenvalues --   -0.69978  -0.69620  -0.68958  -0.68684  -0.67714
 Alpha  occ. eigenvalues --   -0.67440  -0.67318  -0.67071  -0.65368  -0.65124
 Alpha  occ. eigenvalues --   -0.64919  -0.64688  -0.64609  -0.64502  -0.64339
 Alpha  occ. eigenvalues --   -0.64052  -0.62336  -0.62124  -0.60526  -0.60188
 Alpha  occ. eigenvalues --   -0.59889  -0.59644  -0.59057  -0.58828  -0.58571
 Alpha  occ. eigenvalues --   -0.58260  -0.57633  -0.57374  -0.57369  -0.57076
 Alpha  occ. eigenvalues --   -0.56384  -0.56039  -0.56021  -0.55742  -0.55598
 Alpha  occ. eigenvalues --   -0.55395  -0.55301  -0.55093  -0.54571  -0.54341
 Alpha  occ. eigenvalues --   -0.53984  -0.53775  -0.53377  -0.53304  -0.53070
 Alpha  occ. eigenvalues --   -0.52993  -0.52975  -0.52851  -0.52754  -0.52537
 Alpha  occ. eigenvalues --   -0.52508  -0.52265  -0.51974  -0.51705  -0.51665
 Alpha  occ. eigenvalues --   -0.51521  -0.51259  -0.51034  -0.50681  -0.50350
 Alpha  occ. eigenvalues --   -0.50109  -0.50007  -0.49839  -0.49723  -0.49598
 Alpha  occ. eigenvalues --   -0.49343  -0.49285  -0.49173  -0.49043  -0.48940
 Alpha  occ. eigenvalues --   -0.48651  -0.48538  -0.48506  -0.48399  -0.48223
 Alpha  occ. eigenvalues --   -0.48189  -0.47773  -0.47451  -0.47371  -0.46975
 Alpha  occ. eigenvalues --   -0.46872  -0.46642  -0.46557  -0.46430  -0.46419
 Alpha  occ. eigenvalues --   -0.46221  -0.46114  -0.45916  -0.45873  -0.45648
 Alpha  occ. eigenvalues --   -0.45268  -0.45058  -0.44638  -0.44595  -0.44361
 Alpha  occ. eigenvalues --   -0.44322  -0.44220  -0.44173  -0.44084  -0.43972
 Alpha  occ. eigenvalues --   -0.43932  -0.43783  -0.43543  -0.43466  -0.43403
 Alpha  occ. eigenvalues --   -0.43232  -0.43095  -0.42777  -0.42754  -0.42732
 Alpha  occ. eigenvalues --   -0.42693  -0.42408  -0.42082  -0.41823  -0.41770
 Alpha  occ. eigenvalues --   -0.41621  -0.41494  -0.41321  -0.41214  -0.40955
 Alpha  occ. eigenvalues --   -0.40915  -0.40834  -0.40641  -0.40589  -0.40564
 Alpha  occ. eigenvalues --   -0.40346  -0.40341  -0.40109  -0.39515  -0.39290
 Alpha  occ. eigenvalues --   -0.38543  -0.38208  -0.37844  -0.37531  -0.37394
 Alpha  occ. eigenvalues --   -0.37350  -0.37114  -0.37048  -0.36749  -0.36622
 Alpha  occ. eigenvalues --   -0.36247  -0.36066  -0.34360  -0.34084  -0.33799
 Alpha  occ. eigenvalues --   -0.33703  -0.33257  -0.33007  -0.31428  -0.31127
 Alpha  occ. eigenvalues --   -0.31109  -0.30806  -0.30072  -0.29747  -0.29529
 Alpha  occ. eigenvalues --   -0.29391  -0.29160  -0.29018  -0.24155  -0.23863
 Alpha  occ. eigenvalues --   -0.21205  -0.20948
 Alpha virt. eigenvalues --   -0.08851  -0.08619  -0.01827  -0.01519  -0.00140
 Alpha virt. eigenvalues --    0.00130   0.02139   0.02401   0.03021   0.03383
 Alpha virt. eigenvalues --    0.04633   0.04881   0.05071   0.05328   0.06084

 Mulliken charges:
               1
     1  Mg   0.838537
     2  C   -0.002976
     3  C   -0.094763
     4  C   -0.045661
     5  C   -0.063946
     6  N   -0.256732
     7  C   -0.052586
     8  C   -0.013868
     9  C   -0.086884
    10  C    0.046092
    11  C    0.104807
    12  C    0.053717
    13  C   -0.071688
    14  H    0.035930
    15  N   -0.433101
    16  C    0.168152
    17  C   -0.177680
    18  C   -0.004152
    19  C    0.148671
    20  C    0.110296
    21  C    0.012278
    22  O   -0.249131
    23  C    0.062670
    24  N   -0.341099
    25  C    0.041162
    26  C   -0.028279
    27  C   -0.024003
    28  C    0.074909
    29  C    0.076094
    30  C    0.035098
    31  C   -0.004479
    32  N   -0.310563
    33  C    0.080569
    34  C   -0.169566
    35  C    0.008669
    36  C    0.083105
    37  C    0.127244
    38  C    0.046458
    39  O   -0.187501
    40  C   -0.005444
    41  C    0.213089
    42  O   -0.256851
    43  O   -0.304963
    44  C    0.157185
    45  H   -0.017767
    46  H   -0.016614
    47  H   -0.041363
    48  H    0.001306
    49  H   -0.004542
    50  H    0.025703
    51  H    0.016548
    52  H    0.016628
    53  H    0.010028
    54  H    0.044195
    55  H    0.018431
    56  H    0.017236
    57  H    0.005644
    58  H    0.027002
    59  H    0.038234
    60  H    0.037395
    61  H    0.035798
    62  H    0.030280
    63  H    0.016833
    64  H    0.009636
    65  H    0.023447
    66  H    0.012549
    67  H    0.004844
    68  H    0.006617
    69  H    0.004629
    70  H    0.009389
    71  H    0.017189
    72  H    0.029090
    73  H    0.048007
    74  H    0.009027
    75  H    0.046260
    76  H    0.035278
    77  H    0.043582
    78  H    0.045815
    79  H    0.054850
    80  Mg   0.838116
    81  C   -0.016355
    82  C   -0.088020
    83  C   -0.045380
    84  C   -0.064392
    85  N   -0.254484
    86  C   -0.049126
    87  C   -0.015108
    88  C   -0.090719
    89  C    0.045933
    90  C    0.114271
    91  C    0.062644
    92  C   -0.077462
    93  H    0.034417
    94  N   -0.423415
    95  C    0.162782
    96  C   -0.175113
    97  C   -0.007911
    98  C    0.151856
    99  C    0.099618
   100  C    0.015474
   101  O   -0.253382
   102  C    0.061311
   103  N   -0.349911
   104  C    0.037381
   105  C   -0.019747
   106  C   -0.034851
   107  C    0.089081
   108  C    0.073782
   109  C    0.034770
   110  C   -0.007584
   111  N   -0.324442
   112  C    0.078931
   113  C   -0.162113
   114  C    0.003334
   115  C    0.096277
   116  C    0.130975
   117  C    0.043756
   118  O   -0.187115
   119  C    0.000303
   120  C    0.210986
   121  O   -0.251447
   122  O   -0.305359
   123  C    0.152207
   124  H   -0.020949
   125  H   -0.015800
   126  H   -0.040318
   127  H   -0.000362
   128  H   -0.005389
   129  H    0.025095
   130  H    0.014474
   131  H    0.013994
   132  H    0.013688
   133  H    0.037720
   134  H    0.020399
   135  H    0.019007
   136  H    0.007818
   137  H    0.025414
   138  H    0.039243
   139  H    0.037990
   140  H    0.036077
   141  H    0.033532
   142  H    0.014050
   143  H    0.012423
   144  H    0.024623
   145  H    0.012351
   146  H    0.005000
   147  H    0.005811
   148  H    0.003671
   149  H    0.010743
   150  H    0.017681
   151  H    0.030263
   152  H    0.045678
   153  H    0.007898
   154  H    0.050021
   155  H    0.037396
   156  H    0.043696
   157  H    0.048924
   158  H    0.053365
 Sum of Mulliken charges =  -0.00000

 Dipole moment (field-independent basis, Debye):
    X=             -4.0391    Y=             -2.0857    Z=             -7.4001  Tot=              8.6848
 Quadrupole moment (field-independent basis, Debye-Ang):
   XX=           -518.3678   YY=           -549.6881   ZZ=           -449.5851
   XY=             -9.6510   XZ=              0.4202   YZ=            -46.6697

 Normal termination of Gaussian 16 at Sat Sep  4 05:31:34 2021.
