 Gaussian 16, Revision A.03,
 Gaussian 16:  ES64L-G16RevA.03 25-Dec-2016

 -----------------------------------
 #p cam-b3lyp/Def2SVP td=(nstates=5)
 -----------------------------------

 --------------------------------
 TDDFT excited states in gaussian
 --------------------------------
 Symbolic Z-matrix:
 Charge =  0 Multiplicity = 1

                         Standard orientation:
 ---------------------------------------------------------------------
 Center     Atomic      Atomic             Coordinates (Angstroms)
 Number     Number       Type             X           Y           Z
 ---------------------------------------------------------------------
      1         12           0       16.008691   -0.648827    0.509027
      2          6           0       16.275970    2.238790   -1.589174
      3          6           0       16.801796    1.373570    3.140368
      4          6           0       16.224835   -3.253345    2.305242
      5          6           0       16.360065   -2.587755   -2.365474
      6          7           0       16.457678    1.515345    0.633193
      7          6           0       16.468159    2.521900   -0.235085
      8          6           0       16.627596    3.917530    0.438839
      9          6           0       17.338799    3.463979    1.791791
     10          6           0       16.807618    2.044205    1.881303
     11          6           0       18.860082    3.413955    1.693313
     12          6           0       15.248239    4.603623    0.718805
     13          6           0       15.318499    6.092419    1.070807
     14          1           0       14.256555    6.972525    0.607088
     15          7           0       15.967403   -0.857677    2.473085
     16          6           0       16.307986    0.075629    3.394079
     17          6           0       16.107337   -0.561439    4.713384
     18          6           0       15.804312   -2.001152    4.482094
     19          6           0       16.015266   -2.101973    3.060577
     20          6           0       16.161350    0.191265    6.007319
     21          6           0       15.400503   -3.112473    5.398630
     22          8           0       15.412885   -4.336618    5.029998
     23          6           0       15.070501   -2.733890    6.784565
     24          7           0       16.476050   -2.636948    0.077072
     25          6           0       16.441234   -3.576389    1.028504
     26          6           0       16.531496   -4.953142    0.439994
     27          6           0       16.390537   -4.768695   -1.139836
     28          6           0       16.321765   -3.222457   -1.191696
     29          6           0       17.818107   -5.730565    0.750245
     30          6           0       15.275838   -5.580673   -1.845921
     31          6           0       13.918599   -5.077762   -1.407652
     32          7           0       16.095086   -0.280322   -1.628211
     33          6           0       16.267603   -1.233906   -2.641912
     34          6           0       16.371332   -0.497180   -3.914918
     35          6           0       16.267889    0.843452   -3.549063
     36          6           0       16.135915    0.939486   -2.134265
     37          6           0       16.596801   -1.074257   -5.195769
     38          6           0       16.262878    2.218363   -4.021770
     39          8           0       16.247924    2.753919   -5.131027
     40          6           0       16.390310    3.182271   -2.760632
     41          6           0       15.346926    4.256756   -2.902548
     42          8           0       14.131725    3.981876   -2.831174
     43          8           0       15.939451    5.459988   -2.861459
     44          6           0       14.956605    6.571262   -2.967475
     45          1           0       17.269911    1.858844    3.999041
     46          1           0       16.195209   -4.184076    2.875592
     47          1           0       16.385983   -3.130007   -3.312440
     48          1           0       17.268070    4.613495   -0.103239
     49          1           0       16.999898    4.049916    2.645926
     50          1           0       19.198533    3.574020    0.669716
     51          1           0       19.141333    2.417958    2.035920
     52          1           0       19.316846    4.112298    2.395069
     53          1           0       14.834371    4.212562    1.648238
     54          1           0       14.569843    4.463949   -0.123571
     55          1           0       16.295374    6.513086    0.830673
     56          1           0       15.239611    6.191490    2.153471
     57          1           0       16.566344    1.193256    5.871165
     58          1           0       16.891994   -0.313504    6.639045
     59          1           0       15.194167    0.213726    6.509698
     60          1           0       15.933038   -2.246516    7.239588
     61          1           0       14.718595   -3.643917    7.269192
     62          1           0       14.272458   -1.991075    6.767191
     63          1           0       15.721107   -5.585981    0.799452
     64          1           0       17.301280   -5.052654   -1.667652
     65          1           0       17.642956   -6.692185    1.233272
     66          1           0       18.456122   -5.095173    1.363846
     67          1           0       18.459768   -5.914801   -0.111000
     68          1           0       15.335169   -6.631220   -1.563472
     69          1           0       15.326875   -5.526239   -2.933434
     70          1           0       13.752658   -5.609488   -0.471403
     71          1           0       13.159430   -5.339850   -2.145340
     72          1           0       13.944128   -4.012507   -1.177291
     73          1           0       15.919259   -0.566932   -5.882446
     74          1           0       16.416556   -2.148946   -5.183167
     75          1           0       17.648097   -0.828908   -5.345559
     76          1           0       17.401174    3.588466   -2.777427
     77          1           0       15.263028    7.191504   -3.809876
     78          1           0       14.911394    7.039813   -1.984205
     79          1           0       13.946847    6.294260   -3.272433
     80         12           0      -15.718907   -0.650350   -0.476346
     81          6           0      -17.687287    1.705120    1.382766
     82          6           0      -14.626688    1.975487   -2.359590
     83          6           0      -14.329027   -2.745268   -2.412068
     84          6           0      -17.795346   -3.157248    0.768478
     85          7           0      -16.170124    1.513652   -0.400662
     86          6           0      -16.885141    2.301908    0.387857
     87          6           0      -16.669994    3.820016    0.145747
     88          6           0      -16.165759    3.751520   -1.377388
     89          6           0      -15.583686    2.339478   -1.378893
     90          6           0      -17.298467    3.802290   -2.389173
     91          6           0      -15.571151    4.425719    1.087907
     92          6           0      -15.526140    5.954928    1.123299
     93          1           0      -15.193274    6.612456    2.383989
     94          7           0      -14.274276   -0.400985   -1.814044
     95          6           0      -13.954193    0.738023   -2.463278
     96          6           0      -12.835080    0.392776   -3.353529
     97          6           0      -12.628626   -1.079976   -3.297985
     98          6           0      -13.774415   -1.477040   -2.504524
     99          6           0      -12.030745    1.425956   -4.087701
    100          6           0      -11.581248   -1.983095   -3.875555
    101          8           0      -11.729464   -3.255972   -3.901247
    102          6           0      -10.419495   -1.328073   -4.494225
    103          7           0      -16.142857   -2.629928   -0.949510
    104          6           0      -15.348711   -3.327405   -1.780645
    105          6           0      -15.690159   -4.798172   -1.755135
    106          6           0      -16.723137   -4.978516   -0.547648
    107          6           0      -16.875303   -3.501656   -0.122076
    108          6           0      -16.303066   -5.361143   -3.037237
    109          6           0      -16.359440   -6.027152    0.538979
    110          6           0      -15.144160   -5.568637    1.312442
    111          7           0      -17.314422   -0.770112    0.975566
    112          6           0      -18.065554   -1.913653    1.325119
    113          6           0      -19.112350   -1.474680    2.270596
    114          6           0      -18.910438   -0.091279    2.388664
    115          6           0      -17.827924    0.307260    1.558701
    116          6           0      -20.109738   -2.306951    2.852559
    117          6           0      -19.373671    1.124208    3.018507
    118          8           0      -20.204427    1.391001    3.885923
    119          6           0      -18.683081    2.361454    2.298303
    120          6           0      -18.154527    3.283002    3.363157
    121          8           0      -17.234627    2.917239    4.115891
    122          8           0      -18.668490    4.512417    3.176736
    123          6           0      -18.165050    5.464893    4.201990
    124          1           0      -14.398020    2.689331   -3.151440
    125          1           0      -13.815216   -3.526875   -2.976478
    126          1           0      -18.420198   -3.894433    1.277193
    127          1           0      -17.567864    4.422529    0.213426
    128          1           0      -15.387021    4.485150   -1.569016
    129          1           0      -18.266531    3.756871   -1.912807
    130          1           0      -17.154261    2.946344   -3.035394
    131          1           0      -17.193681    4.683593   -3.028438
    132          1           0      -14.580812    4.218404    0.662461
    133          1           0      -15.671843    4.043985    2.085280
    134          1           0      -16.423617    6.404060    0.680864
    135          1           0      -14.711431    6.293128    0.478410
    136          1           0      -12.519845    2.407602   -4.064575
    137          1           0      -12.037733    1.143870   -5.146118
    138          1           0      -10.995917    1.477588   -3.742545
    139          1           0      -10.757200   -0.676301   -5.296479
    140          1           0       -9.739953   -2.137082   -4.769182
    141          1           0       -9.941145   -0.685294   -3.746795
    142          1           0      -14.809335   -5.396277   -1.556365
    143          1           0      -17.711226   -5.306756   -0.902312
    144          1           0      -15.731981   -6.210343   -3.457713
    145          1           0      -16.379499   -4.559414   -3.759676
    146          1           0      -17.336581   -5.691600   -2.948645
    147          1           0      -16.089956   -6.977940    0.072579
    148          1           0      -17.168062   -6.227164    1.234038
    149          1           0      -14.312538   -5.885542    0.675992
    150          1           0      -15.103759   -6.054073    2.285461
    151          1           0      -15.109832   -4.475026    1.379431
    152          1           0      -20.173409   -2.032679    3.897169
    153          1           0      -19.868326   -3.360907    2.731442
    154          1           0      -20.979315   -2.014066    2.258146
    155          1           0      -19.439746    2.843711    1.678245
    156          1           0      -19.041783    5.904820    4.687253
    157          1           0      -17.488791    6.154485    3.662631
    158          1           0      -17.637019    5.051834    5.053472
 ---------------------------------------------------------------------

 SCF Done:  E(RCAM-B3LYP) =  -4069.81178711     A.U. after   19 cycles

 Excitation energies and oscillator strengths:

 Excited State   1:      Singlet-A      1.6755 eV  740.00 nm  f=0.2871  <S**2>=0.000
     310 -> 316       -0.17012
     311 -> 314       -0.13691
     312 -> 313        0.67225
     310 <- 316       -0.10256
 This state for optimization and/or second-order correction.
 Total Energy, E(TD-HF/TD-DFT) =  -4069.75021523
 Copying the excited state density for this state as the 1-particle RhoCI density.

 Excited State   2:      Singlet-A      1.6801 eV  737.98 nm  f=0.4924  <S**2>=0.000
     309 -> 315        0.17208
     311 -> 314        0.67189
     312 -> 313        0.13688
     309 <- 315        0.10304

 Excited State   3:      Singlet-A      2.1862 eV  567.11 nm  f=0.0955  <S**2>=0.000
     310 -> 313        0.64211
     312 -> 316        0.27306

 Excited State   4:      Singlet-A      2.1926 eV  565.47 nm  f=0.1046  <S**2>=0.000
     309 -> 314        0.64035
     311 -> 315       -0.27819

 Excited State   5:      Singlet-A      3.0661 eV  404.37 nm  f=0.0000  <S**2>=0.000
     311 -> 313        0.70709

 The electronic state is 1-A.
 Alpha  occ. eigenvalues --  -46.87788 -46.87660 -19.26353 -19.26283 -19.19164
 Alpha  occ. eigenvalues --  -19.19018 -19.18803 -19.18707 -19.18164 -19.18053
 Alpha  occ. eigenvalues --  -14.42497 -14.42442 -14.41441 -14.41359 -14.39394
 Alpha  occ. eigenvalues --  -14.39351 -14.38600 -14.38579 -10.39094 -10.39077
 Alpha  occ. eigenvalues --  -10.35436 -10.35383 -10.34384 -10.34230 -10.31761
 Alpha  occ. eigenvalues --  -10.31680 -10.31398 -10.31309 -10.31022 -10.30901
 Alpha  occ. eigenvalues --  -10.30562 -10.30499 -10.30397 -10.30361 -10.30197
 Alpha  occ. eigenvalues --  -10.30139 -10.29912 -10.29895 -10.29622 -10.29435
 Alpha  occ. eigenvalues --  -10.29399 -10.29245 -10.28743 -10.28719 -10.28654
 Alpha  occ. eigenvalues --  -10.28534 -10.28404 -10.28357 -10.28140 -10.28110
 Alpha  occ. eigenvalues --  -10.28000 -10.27785 -10.27719 -10.27668 -10.27575
 Alpha  occ. eigenvalues --  -10.27518 -10.27491 -10.27483 -10.27470 -10.27464
 Alpha  occ. eigenvalues --  -10.27457 -10.27440 -10.27396 -10.27376 -10.27153
 Alpha  occ. eigenvalues --  -10.27052 -10.26699 -10.26693 -10.26400 -10.26395
 Alpha  occ. eigenvalues --  -10.26228 -10.26173 -10.26138 -10.26026 -10.26011
 Alpha  occ. eigenvalues --  -10.25934 -10.25854 -10.25838 -10.25425 -10.25398
 Alpha  occ. eigenvalues --  -10.24872 -10.24825 -10.24779 -10.24731 -10.24689
 Alpha  occ. eigenvalues --  -10.24676  -3.16531  -3.16410  -1.91413  -1.91292
 Alpha  occ. eigenvalues --   -1.90999  -1.90880  -1.90841  -1.90717  -1.16647
 Alpha  occ. eigenvalues --   -1.16632  -1.08660  -1.08622  -1.07204  -1.06958
 Alpha  occ. eigenvalues --   -1.06949  -1.06640  -1.04573  -1.04494  -1.03752
 Alpha  occ. eigenvalues --   -1.03662  -1.03226  -1.03038  -1.02403  -1.02111
 Alpha  occ. eigenvalues --   -0.91987  -0.91965  -0.89511  -0.89494  -0.89181
 Alpha  occ. eigenvalues --   -0.89151  -0.88278  -0.88220  -0.87863  -0.87794
 Alpha  occ. eigenvalues --   -0.87683  -0.87665  -0.87264  -0.87115  -0.84999
 Alpha  occ. eigenvalues --   -0.84975  -0.83927  -0.83876  -0.82956  -0.82925
 Alpha  occ. eigenvalues --   -0.82650  -0.82641  -0.81598  -0.81581  -0.80589
 Alpha  occ. eigenvalues --   -0.80442  -0.78788  -0.78633  -0.77210  -0.77144
 Alpha  occ. eigenvalues --   -0.76928  -0.76899  -0.75917  -0.75839  -0.74890
 Alpha  occ. eigenvalues --   -0.74803  -0.72766  -0.72699  -0.71664  -0.71581
 Alpha  occ. eigenvalues --   -0.69897  -0.69758  -0.68866  -0.68826  -0.67633
 Alpha  occ. eigenvalues --   -0.67601  -0.67212  -0.67197  -0.65280  -0.65272
 Alpha  occ. eigenvalues --   -0.64847  -0.64770  -0.64654  -0.64614  -0.64261
 Alpha  occ. eigenvalues --   -0.64204  -0.62293  -0.62280  -0.60432  -0.60336
 Alpha  occ. eigenvalues --   -0.59797  -0.59796  -0.58993  -0.58980  -0.58496
 Alpha  occ. eigenvalues --   -0.58425  -0.57579  -0.57556  -0.57301  -0.57235
 Alpha  occ. eigenvalues --   -0.56302  -0.56203  -0.55975  -0.55887  -0.55511
 Alpha  occ. eigenvalues --   -0.55449  -0.55332  -0.55249  -0.54517  -0.54489
 Alpha  occ. eigenvalues --   -0.53912  -0.53888  -0.53290  -0.53226  -0.53214
 Alpha  occ. eigenvalues --   -0.53140  -0.52908  -0.52902  -0.52746  -0.52662
 Alpha  occ. eigenvalues --   -0.52429  -0.52401  -0.51908  -0.51887  -0.51657
 Alpha  occ. eigenvalues --   -0.51609  -0.51202  -0.51189  -0.50561  -0.50467
 Alpha  occ. eigenvalues --   -0.50022  -0.49977  -0.49909  -0.49866  -0.49506
 Alpha  occ. eigenvalues --   -0.49484  -0.49207  -0.49201  -0.49105  -0.49090
 Alpha  occ. eigenvalues --   -0.48587  -0.48559  -0.48452  -0.48437  -0.48376
 Alpha  occ. eigenvalues --   -0.48333  -0.47687  -0.47593  -0.47288  -0.47116
 Alpha  occ. eigenvalues --   -0.46789  -0.46709  -0.46553  -0.46548  -0.46351
 Alpha  occ. eigenvalues --   -0.46270  -0.46155  -0.46086  -0.45824  -0.45817
 Alpha  occ. eigenvalues --   -0.45209  -0.45192  -0.44572  -0.44515  -0.44498
 Alpha  occ. eigenvalues --   -0.44475  -0.44136  -0.44127  -0.44081  -0.44077
 Alpha  occ. eigenvalues --   -0.44012  -0.43935  -0.43555  -0.43490  -0.43386
 Alpha  occ. eigenvalues --   -0.43378  -0.43020  -0.42932  -0.42902  -0.42694
 Alpha  occ. eigenvalues --   -0.42648  -0.42552  -0.42001  -0.41964  -0.41697
 Alpha  occ. eigenvalues --   -0.41669  -0.41526  -0.41458  -0.41133  -0.40989
 Alpha  occ. eigenvalues --   -0.40861  -0.40813  -0.40719  -0.40695  -0.40563
 Alpha  occ. eigenvalues --   -0.40494  -0.40227  -0.40225  -0.39431  -0.39425
 Alpha  occ. eigenvalues --   -0.38460  -0.38350  -0.37742  -0.37654  -0.37312
 Alpha  occ. eigenvalues --   -0.37266  -0.37257  -0.37199  -0.36774  -0.36709
 Alpha  occ. eigenvalues --   -0.36218  -0.36186  -0.34278  -0.34253  -0.33864
 Alpha  occ. eigenvalues --   -0.33767  -0.33179  -0.33175  -0.31333  -0.31266
 Alpha  occ. eigenvalues --   -0.31027  -0.30972  -0.30024  -0.29957  -0.29440
 Alpha  occ. eigenvalues --   -0.29325  -0.29314  -0.29211  -0.24072  -0.24036
 Alpha  occ. eigenvalues --   -0.21119  -0.21116
 Alpha virt. eigenvalues --   -0.08791  -0.08766  -0.01741  -0.01683  -0.00049
 Alpha virt. eigenvalues --   -0.00025   0.02207   0.02207   0.03129   0.03229
 Alpha virt. eigenvalues --    0.04725   0.04730   0.05101   0.05162   0.06182

 Mulliken charges:
               1
     1  Mg   0.838665
     2  C   -0.002996
     3  C   -0.094122
     4  C   -0.045838
     5  C   -0.063935
     6  N   -0.256792
     7  C   -0.052444
     8  C   -0.014040
     9  C   -0.086980
    10  C    0.046327
    11  C    0.104809
    12  C    0.053461
    13  C   -0.071791
    14  H    0.036068
    15  N   -0.433124
    16  C    0.168439
    17  C   -0.177141
    18  C   -0.003964
    19  C    0.148719
    20  C    0.110181
    21  C    0.012316
    22  O   -0.249583
    23  C    0.062457
    24  N   -0.341120
    25  C    0.041250
    26  C   -0.028196
    27  C   -0.023972
    28  C    0.074834
    29  C    0.076179
    30  C    0.035125
    31  C   -0.004510
    32  N   -0.310441
    33  C    0.080368
    34  C   -0.169735
    35  C    0.008339
    36  C    0.082972
    37  C    0.127319
    38  C    0.046088
    39  O   -0.188527
    40  C   -0.005311
    41  C    0.212871
    42  O   -0.257127
    43  O   -0.304794
    44  C    0.157720
    45  H   -0.017588
    46  H   -0.016803
    47  H   -0.041507
    48  H    0.000909
    49  H   -0.004022
    50  H    0.025458
    51  H    0.016460
    52  H    0.016662
    53  H    0.011234
    54  H    0.044097
    55  H    0.017860
    56  H    0.017980
    57  H    0.005875
    58  H    0.026850
    59  H    0.039610
    60  H    0.037348
    61  H    0.035716
    62  H    0.031539
    63  H    0.016593
    64  H    0.009448
    65  H    0.023242
    66  H    0.012541
    67  H    0.004743
    68  H    0.006388
    69  H    0.004708
    70  H    0.008822
    71  H    0.018149
    72  H    0.028972
    73  H    0.047517
    74  H    0.009111
    75  H    0.045986
    76  H    0.035132
    77  H    0.042897
    78  H    0.046411
    79  H    0.053638
    80  Mg   0.837863
    81  C   -0.016797
    82  C   -0.087775
    83  C   -0.045483
    84  C   -0.064891
    85  N   -0.254572
    86  C   -0.049893
    87  C   -0.015099
    88  C   -0.090507
    89  C    0.045759
    90  C    0.114376
    91  C    0.062519
    92  C   -0.077897
    93  H    0.034875
    94  N   -0.423513
    95  C    0.162946
    96  C   -0.174591
    97  C   -0.007731
    98  C    0.152116
    99  C    0.099357
   100  C    0.015607
   101  O   -0.253139
   102  C    0.061176
   103  N   -0.350068
   104  C    0.037539
   105  C   -0.019855
   106  C   -0.034802
   107  C    0.088896
   108  C    0.073654
   109  C    0.034730
   110  C   -0.007676
   111  N   -0.324088
   112  C    0.078422
   113  C   -0.163180
   114  C    0.002223
   115  C    0.096168
   116  C    0.131500
   117  C    0.042353
   118  O   -0.187952
   119  C    0.000896
   120  C    0.211279
   121  O   -0.251023
   122  O   -0.305637
   123  C    0.152034
   124  H   -0.019608
   125  H   -0.015524
   126  H   -0.040490
   127  H   -0.000675
   128  H   -0.004279
   129  H    0.022431
   130  H    0.014432
   131  H    0.016313
   132  H    0.013958
   133  H    0.037659
   134  H    0.020772
   135  H    0.019640
   136  H    0.008782
   137  H    0.026226
   138  H    0.039928
   139  H    0.038296
   140  H    0.036535
   141  H    0.033966
   142  H    0.014441
   143  H    0.012392
   144  H    0.025184
   145  H    0.011644
   146  H    0.005651
   147  H    0.006274
   148  H    0.003617
   149  H    0.010975
   150  H    0.017920
   151  H    0.030103
   152  H    0.045970
   153  H    0.008496
   154  H    0.046899
   155  H    0.034999
   156  H    0.043879
   157  H    0.049510
   158  H    0.053566
 Sum of Mulliken charges =  -0.00000

 Dipole moment (field-independent basis, Debye):
    X=              3.2794    Y=              3.1330    Z=              0.3907  Tot=              4.5523
 Quadrupole moment (field-independent basis, Debye-Ang):
   XX=           -504.8098   YY=           -463.4122   ZZ=           -529.5189
   XY=              3.3017   XZ=            132.1642   YZ=             17.7842

 Normal termination of Gaussian 16 at Sun Sep 12 10:52:08 2021.
