 Gaussian 16, Revision A.03,
 Gaussian 16:  ES64L-G16RevA.03 25-Dec-2016

 -----------------------------------
 #p cam-b3lyp/Def2SVP td=(nstates=5)
 -----------------------------------

 --------------------------------
 TDDFT excited states in gaussian
 --------------------------------
 Symbolic Z-matrix:
 Charge =  0 Multiplicity = 1

                         Standard orientation:
 ---------------------------------------------------------------------
 Center     Atomic      Atomic             Coordinates (Angstroms)
 Number     Number       Type             X           Y           Z
 ---------------------------------------------------------------------
      1         12           0        7.988396   -0.499077   -0.182945
      2          6           0        8.051648    3.018934   -0.840071
      3          6           0        8.916631    0.233002    3.017915
      4          6           0        8.380836   -3.608787    0.299046
      5          6           0        8.183407   -0.996260   -3.626844
      6          7           0        8.399507    1.420927    0.839415
      7          6           0        8.329747    2.702022    0.491422
      8          6           0        8.505574    3.678896    1.692328
      9          6           0        9.316674    2.723179    2.677579
     10          6           0        8.822598    1.378754    2.173261
     11          6           0       10.828416    2.793731    2.487423
     12          6           0        7.134485    4.110865    2.313012
     13          6           0        7.197470    5.305700    3.268918
     14          1           0        6.088235    6.247305    3.286972
     15          7           0        8.085469   -1.532847    1.497753
     16          6           0        8.468480   -1.070263    2.712086
     17          6           0        8.371587   -2.221010    3.635706
     18          6           0        8.083634   -3.434648    2.821913
     19          6           0        8.199248   -2.904945    1.487212
     20          6           0        8.497954   -2.095271    5.122976
     21          6           0        7.766544   -4.849916    3.188797
     22          8           0        7.779330   -5.794960    2.327808
     23          6           0        7.523959   -5.119593    4.617596
     24          7           0        8.466639   -2.083944   -1.454603
     25          6           0        8.516393   -3.341397   -1.001482
     26          6           0        8.595057   -4.325884   -2.130436
     27          6           0        8.342905   -3.487912   -3.466091
     28          6           0        8.238480   -2.074548   -2.841778
     29          6           0        9.915780   -5.098148   -2.254167
     30          6           0        7.199865   -3.970709   -4.393877
     31          6           0        5.865454   -3.770850   -3.710866
     32          7           0        7.921174    0.755216   -1.953051
     33          6           0        8.044060    0.338906   -3.286565
     34          6           0        8.045355    1.554968   -4.120387
     35          6           0        7.939118    2.601862   -3.206838
     36          6           0        7.901925    2.074537   -1.884401
     37          6           0        8.194983    1.595472   -5.534743
     38          6           0        7.873180    4.044524   -3.038804
     39          8           0        7.771458    5.003125   -3.805765
     40          6           0        8.066131    4.378354   -1.493762
     41          6           0        6.993288    5.357953   -1.102992
     42          8           0        5.791786    5.020801   -1.093555
     43          8           0        7.561977    6.453972   -0.577752
     44          6           0        6.551197    7.454250   -0.141954
     45          1           0        9.431957    0.324460    3.976046
     46          1           0        8.409606   -4.694486    0.412482
     47          1           0        8.156026   -1.077357   -4.715020
     48          1           0        9.092928    4.570203    1.470944
     49          1           0        9.024626    2.868439    3.717449
     50          1           0       11.092881    3.393972    1.616969
     51          1           0       11.153108    1.761970    2.351276
     52          1           0       11.317274    3.144175    3.396809
     53          1           0        6.793199    3.339110    3.002925
     54          1           0        6.403306    4.313930    1.529771
     55          1           0        8.146703    5.835301    3.182949
     56          1           0        7.190522    4.926305    4.290784
     57          1           0        8.871709   -1.113663    5.411590
     58          1           0        9.280346   -2.786521    5.435619
     59          1           0        7.567012   -2.337404    5.635860
     60          1           0        8.405142   -4.833875    5.192427
     61          1           0        7.224992   -6.165352    4.679696
     62          1           0        6.711249   -4.480746    4.964478
     63          1           0        7.824453   -5.090036   -2.037336
     64          1           0        9.221277   -3.473400   -4.111789
     65          1           0        9.794088   -6.181222   -2.225059
     66          1           0       10.580732   -4.757875   -1.460855
     67          1           0       10.500943   -4.863496   -3.142953
     68          1           0        7.300240   -5.036533   -4.596089
     69          1           0        7.175496   -3.452142   -5.352389
     70          1           0        5.774867   -4.660427   -3.088549
     71          1           0        5.063401   -3.727031   -4.448431
     72          1           0        5.884375   -2.907888   -3.044966
     73          1           0        7.461757    2.315187   -5.898556
     74          1           0        8.038500    0.612203   -5.977799
     75          1           0        9.228268    1.931761   -5.618936
     76          1           0        9.064794    4.800633   -1.386641
     77          1           0        6.786457    8.390126   -0.648928
     78          1           0        6.563347    7.452363    0.948117
     79          1           0        5.529004    7.286704   -0.483114
     80         12           0       -7.876842   -1.053728    0.212640
     81          6           0       -9.030380    2.314640   -0.237418
     82          6           0       -5.961729    0.104598    2.786595
     83          6           0       -6.504678   -3.911463    0.346635
     84          6           0       -8.962078   -1.711644   -3.033138
     85          7           0       -7.615923    0.968800    1.069130
     86          6           0       -8.152793    2.160729    0.856011
     87          6           0       -7.787550    3.230240    1.920112
     88          6           0       -6.412124    2.588076    2.444229
     89          6           0       -6.685928    1.121948    2.115309
     90          6           0       -5.197070    3.037003    1.649590
     91          6           0       -8.853696    3.319913    3.067859
     92          6           0       -8.723718    4.547805    3.971817
     93          1           0       -9.942516    5.161060    4.492321
     94          7           0       -6.832032   -1.909780    1.666641
     95          6           0       -6.134144   -1.289468    2.641038
     96          6           0       -5.527972   -2.361050    3.446283
     97          6           0       -5.789869   -3.660898    2.770617
     98          6           0       -6.380659   -3.199067    1.530552
     99          6           0       -4.855223   -2.107346    4.764039
    100          6           0       -5.537179   -5.083576    3.168527
    101          8           0       -5.627126   -6.044717    2.325349
    102          6           0       -5.090484   -5.308175    4.551101
    103          7           0       -7.556649   -2.532316   -1.213389
    104          6           0       -6.983648   -3.702061   -0.879766
    105          6           0       -7.107633   -4.708866   -1.998411
    106          6           0       -8.099296   -4.046906   -3.064240
    107          6           0       -8.316129   -2.674478   -2.389830
    108          6           0       -5.801832   -5.097431   -2.691446
    109          6           0       -9.348137   -4.875269   -3.472759
    110          6           0      -10.289762   -5.003275   -2.297025
    111          7           0       -8.988291    0.013252   -1.302054
    112          6           0       -9.309603   -0.438137   -2.600937
    113          6           0       -9.973228    0.681822   -3.299300
    114          6           0       -9.971331    1.722746   -2.358565
    115          6           0       -9.332306    1.288991   -1.165665
    116          6           0      -10.436804    0.665300   -4.645010
    117          6           0      -10.355116    3.093217   -2.107160
    118          8           0      -11.005007    3.939627   -2.719499
    119          6           0       -9.650313    3.577727   -0.767425
    120          6           0      -10.687236    4.259476    0.082600
    121          8           0      -11.643645    3.616508    0.550012
    122          8           0      -10.264651    5.501349    0.381811
    123          6           0      -11.254542    6.213801    1.232898
    124          1           0       -5.155081    0.399130    3.458509
    125          1           0       -6.145431   -4.942719    0.377039
    126          1           0       -9.417288   -1.868096   -4.013433
    127          1           0       -7.607455    4.222341    1.523802
    128          1           0       -6.296501    2.723129    3.516487
    129          1           0       -5.474450    3.623540    0.786361
    130          1           0       -4.693453    2.129167    1.344219
    131          1           0       -4.495499    3.566467    2.300581
    132          1           0       -8.658958    2.525950    3.800281
    133          1           0       -9.848134    3.268459    2.669021
    134          1           0       -8.064402    5.310149    3.539272
    135          1           0       -8.218724    4.248363    4.893407
    136          1           0       -4.669657   -1.037706    4.921593
    137          1           0       -3.855292   -2.550404    4.703101
    138          1           0       -5.390231   -2.556523    5.603484
    139          1           0       -4.168658   -4.758709    4.726544
    140          1           0       -5.048969   -6.392365    4.672306
    141          1           0       -5.840011   -4.891268    5.233012
    142          1           0       -7.543287   -5.633457   -1.640018
    143          1           0       -7.595647   -3.850281   -4.022102
    144          1           0       -5.601727   -6.185297   -2.667119
    145          1           0       -4.992431   -4.551395   -2.225353
    146          1           0       -5.721019   -4.786986   -3.731776
    147          1           0       -9.055151   -5.891464   -3.747823
    148          1           0       -9.887520   -4.456312   -4.315699
    149          1           0       -9.870591   -5.843565   -1.735515
    150          1           0      -11.300150   -5.220803   -2.637362
    151          1           0      -10.237799   -4.117762   -1.652964
    152          1           0      -11.410196    1.137545   -4.644804
    153          1           0      -10.486130   -0.348784   -5.036107
    154          1           0       -9.652760    1.254085   -5.128629
    155          1           0       -8.842182    4.254111   -1.048509
    156          1           0      -11.503638    7.147735    0.719669
    157          1           0      -10.785066    6.297294    2.231082
    158          1           0      -12.234912    5.765424    1.343785
 ---------------------------------------------------------------------

 SCF Done:  E(RCAM-B3LYP) =  -4069.81172218     A.U. after   19 cycles

 Excitation energies and oscillator strengths:

 Excited State   1:      Singlet-A      1.6702 eV  742.34 nm  f=0.0674  <S**2>=0.000
     309 -> 315       -0.10241
     310 -> 316        0.13882
     311 -> 313       -0.40596
     312 -> 314        0.55342
 This state for optimization and/or second-order correction.
 Total Energy, E(TD-HF/TD-DFT) =  -4069.75034453
 Copying the excited state density for this state as the 1-particle RhoCI density.

 Excited State   2:      Singlet-A      1.6846 eV  735.97 nm  f=0.6947  <S**2>=0.000
     309 -> 315        0.14268
     310 -> 316        0.10398
     311 -> 313        0.55262
     312 -> 314        0.40545

 Excited State   3:      Singlet-A      2.1853 eV  567.36 nm  f=0.0580  <S**2>=0.000
     309 -> 313       -0.13790
     310 -> 314        0.62786
     312 -> 316       -0.26611

 Excited State   4:      Singlet-A      2.1930 eV  565.37 nm  f=0.1352  <S**2>=0.000
     309 -> 313        0.62580
     310 -> 314        0.13680
     311 -> 315       -0.27216

 Excited State   5:      Singlet-A      2.7521 eV  450.52 nm  f=0.0000  <S**2>=0.000
     312 -> 313        0.70708

 The electronic state is 1-A.
 Alpha  occ. eigenvalues --  -46.87877 -46.87592 -19.26380 -19.26290 -19.19117
 Alpha  occ. eigenvalues --  -19.19102 -19.18889 -19.18660 -19.18247 -19.17984
 Alpha  occ. eigenvalues --  -14.42532 -14.42427 -14.41526 -14.41291 -14.39483
 Alpha  occ. eigenvalues --  -14.39285 -14.38666 -14.38531 -10.39175 -10.39030
 Alpha  occ. eigenvalues --  -10.35523 -10.35338 -10.34468 -10.34161 -10.31780
 Alpha  occ. eigenvalues --  -10.31703 -10.31488 -10.31237 -10.30995 -10.30955
 Alpha  occ. eigenvalues --  -10.30650 -10.30584 -10.30331 -10.30293 -10.30281
 Alpha  occ. eigenvalues --  -10.30075 -10.29992 -10.29826 -10.29709 -10.29371
 Alpha  occ. eigenvalues --  -10.29338 -10.29333 -10.28847 -10.28665 -10.28647
 Alpha  occ. eigenvalues --  -10.28607 -10.28446 -10.28337 -10.28208 -10.28060
 Alpha  occ. eigenvalues --  -10.27934 -10.27871 -10.27809 -10.27664 -10.27599
 Alpha  occ. eigenvalues --  -10.27573 -10.27560 -10.27507 -10.27485 -10.27454
 Alpha  occ. eigenvalues --  -10.27424 -10.27415 -10.27404 -10.27310 -10.27242
 Alpha  occ. eigenvalues --  -10.26981 -10.26823 -10.26636 -10.26491 -10.26376
 Alpha  occ. eigenvalues --  -10.26317 -10.26234 -10.26094 -10.26083 -10.25914
 Alpha  occ. eigenvalues --  -10.25908 -10.25868 -10.25783 -10.25486 -10.25325
 Alpha  occ. eigenvalues --  -10.24911 -10.24863 -10.24805 -10.24736 -10.24680
 Alpha  occ. eigenvalues --  -10.24622  -3.16620  -3.16341  -1.91502  -1.91224
 Alpha  occ. eigenvalues --   -1.91088  -1.90930  -1.90812  -1.90649  -1.16729
 Alpha  occ. eigenvalues --   -1.16584  -1.08705  -1.08591  -1.07290  -1.06912
 Alpha  occ. eigenvalues --   -1.06886  -1.06739  -1.04664  -1.04425  -1.03838
 Alpha  occ. eigenvalues --   -1.03595  -1.03312  -1.02971  -1.02489  -1.02043
 Alpha  occ. eigenvalues --   -0.92053  -0.91918  -0.89588  -0.89430  -0.89281
 Alpha  occ. eigenvalues --   -0.89077  -0.88353  -0.88156  -0.87945  -0.87757
 Alpha  occ. eigenvalues --   -0.87726  -0.87617  -0.87356  -0.87065  -0.85073
 Alpha  occ. eigenvalues --   -0.84931  -0.84000  -0.83813  -0.83044  -0.82879
 Alpha  occ. eigenvalues --   -0.82735  -0.82588  -0.81672  -0.81533  -0.80680
 Alpha  occ. eigenvalues --   -0.80379  -0.78877  -0.78575  -0.77298  -0.77079
 Alpha  occ. eigenvalues --   -0.77020  -0.76833  -0.76009  -0.75768  -0.74966
 Alpha  occ. eigenvalues --   -0.74736  -0.72851  -0.72632  -0.71750  -0.71509
 Alpha  occ. eigenvalues --   -0.69968  -0.69697  -0.68961  -0.68761  -0.67721
 Alpha  occ. eigenvalues --   -0.67538  -0.67317  -0.67142  -0.65377  -0.65204
 Alpha  occ. eigenvalues --   -0.64934  -0.64704  -0.64702  -0.64588  -0.64339
 Alpha  occ. eigenvalues --   -0.64140  -0.62383  -0.62216  -0.60519  -0.60280
 Alpha  occ. eigenvalues --   -0.59892  -0.59725  -0.59065  -0.58926  -0.58582
 Alpha  occ. eigenvalues --   -0.58360  -0.57668  -0.57488  -0.57384  -0.57174
 Alpha  occ. eigenvalues --   -0.56390  -0.56141  -0.56070  -0.55826  -0.55601
 Alpha  occ. eigenvalues --   -0.55411  -0.55393  -0.55184  -0.54600  -0.54426
 Alpha  occ. eigenvalues --   -0.53989  -0.53841  -0.53377  -0.53309  -0.53166
 Alpha  occ. eigenvalues --   -0.53079  -0.52999  -0.52842  -0.52839  -0.52612
 Alpha  occ. eigenvalues --   -0.52498  -0.52344  -0.51986  -0.51817  -0.51709
 Alpha  occ. eigenvalues --   -0.51597  -0.51274  -0.51136  -0.50656  -0.50425
 Alpha  occ. eigenvalues --   -0.50099  -0.49999  -0.49914  -0.49804  -0.49600
 Alpha  occ. eigenvalues --   -0.49425  -0.49296  -0.49182  -0.49136  -0.49032
 Alpha  occ. eigenvalues --   -0.48675  -0.48531  -0.48524  -0.48491  -0.48311
 Alpha  occ. eigenvalues --   -0.48282  -0.47777  -0.47532  -0.47375  -0.47057
 Alpha  occ. eigenvalues --   -0.46874  -0.46648  -0.46644  -0.46487  -0.46436
 Alpha  occ. eigenvalues --   -0.46237  -0.46207  -0.46020  -0.45902  -0.45756
 Alpha  occ. eigenvalues --   -0.45268  -0.45142  -0.44658  -0.44589  -0.44449
 Alpha  occ. eigenvalues --   -0.44410  -0.44219  -0.44174  -0.44101  -0.44057
 Alpha  occ. eigenvalues --   -0.44019  -0.43880  -0.43578  -0.43491  -0.43467
 Alpha  occ. eigenvalues --   -0.43318  -0.43105  -0.42869  -0.42835  -0.42784
 Alpha  occ. eigenvalues --   -0.42725  -0.42492  -0.42084  -0.41902  -0.41783
 Alpha  occ. eigenvalues --   -0.41624  -0.41602  -0.41394  -0.41220  -0.40954
 Alpha  occ. eigenvalues --   -0.40917  -0.40905  -0.40665  -0.40640  -0.40635
 Alpha  occ. eigenvalues --   -0.40428  -0.40340  -0.40168  -0.39500  -0.39366
 Alpha  occ. eigenvalues --   -0.38539  -0.38285  -0.37849  -0.37593  -0.37392
 Alpha  occ. eigenvalues --   -0.37355  -0.37201  -0.37133  -0.36800  -0.36711
 Alpha  occ. eigenvalues --   -0.36273  -0.36152  -0.34365  -0.34186  -0.33865
 Alpha  occ. eigenvalues --   -0.33801  -0.33266  -0.33108  -0.31419  -0.31218
 Alpha  occ. eigenvalues --   -0.31115  -0.30905  -0.30107  -0.29888  -0.29529
 Alpha  occ. eigenvalues --   -0.29400  -0.29264  -0.29144  -0.24160  -0.23967
 Alpha  occ. eigenvalues --   -0.21206  -0.21049
 Alpha virt. eigenvalues --   -0.08853  -0.08726  -0.01827  -0.01616  -0.00138
 Alpha virt. eigenvalues --    0.00033   0.02124   0.02274   0.03028   0.03286
 Alpha virt. eigenvalues --    0.04630   0.04799   0.05005   0.05227   0.06071

 Mulliken charges:
               1
     1  Mg   0.838498
     2  C   -0.003142
     3  C   -0.094411
     4  C   -0.045768
     5  C   -0.063793
     6  N   -0.256788
     7  C   -0.052544
     8  C   -0.013973
     9  C   -0.086959
    10  C    0.046215
    11  C    0.104793
    12  C    0.053580
    13  C   -0.071617
    14  H    0.035542
    15  N   -0.433152
    16  C    0.168314
    17  C   -0.177335
    18  C   -0.003999
    19  C    0.148668
    20  C    0.110215
    21  C    0.012277
    22  O   -0.249299
    23  C    0.062537
    24  N   -0.341134
    25  C    0.041292
    26  C   -0.028265
    27  C   -0.024002
    28  C    0.074823
    29  C    0.076109
    30  C    0.035078
    31  C   -0.004535
    32  N   -0.310481
    33  C    0.080397
    34  C   -0.169601
    35  C    0.008404
    36  C    0.082962
    37  C    0.127298
    38  C    0.046143
    39  O   -0.188271
    40  C   -0.005346
    41  C    0.212953
    42  O   -0.257407
    43  O   -0.304690
    44  C    0.157708
    45  H   -0.017628
    46  H   -0.016618
    47  H   -0.041285
    48  H    0.001051
    49  H   -0.004262
    50  H    0.025579
    51  H    0.016586
    52  H    0.016689
    53  H    0.010791
    54  H    0.043899
    55  H    0.018193
    56  H    0.017761
    57  H    0.005762
    58  H    0.026996
    59  H    0.039072
    60  H    0.037395
    61  H    0.035889
    62  H    0.031008
    63  H    0.016756
    64  H    0.009592
    65  H    0.023420
    66  H    0.012533
    67  H    0.004869
    68  H    0.006599
    69  H    0.004795
    70  H    0.009005
    71  H    0.018281
    72  H    0.028729
    73  H    0.047668
    74  H    0.009255
    75  H    0.046153
    76  H    0.035277
    77  H    0.043190
    78  H    0.046229
    79  H    0.053479
    80  Mg   0.837995
    81  C   -0.016819
    82  C   -0.087711
    83  C   -0.045448
    84  C   -0.064755
    85  N   -0.254575
    86  C   -0.049621
    87  C   -0.015122
    88  C   -0.090552
    89  C    0.045835
    90  C    0.114334
    91  C    0.062574
    92  C   -0.077756
    93  H    0.034588
    94  N   -0.423510
    95  C    0.162945
    96  C   -0.174574
    97  C   -0.007842
    98  C    0.152191
    99  C    0.099411
   100  C    0.015570
   101  O   -0.253157
   102  C    0.061245
   103  N   -0.350010
   104  C    0.037603
   105  C   -0.019887
   106  C   -0.034790
   107  C    0.088930
   108  C    0.073590
   109  C    0.034739
   110  C   -0.007636
   111  N   -0.324155
   112  C    0.078521
   113  C   -0.163087
   114  C    0.002341
   115  C    0.096222
   116  C    0.131465
   117  C    0.042435
   118  O   -0.187874
   119  C    0.000863
   120  C    0.211207
   121  O   -0.251165
   122  O   -0.305505
   123  C    0.152094
   124  H   -0.019656
   125  H   -0.015592
   126  H   -0.040488
   127  H   -0.000478
   128  H   -0.004690
   129  H    0.022897
   130  H    0.014977
   131  H    0.016397
   132  H    0.013742
   133  H    0.037586
   134  H    0.020922
   135  H    0.019367
   136  H    0.008596
   137  H    0.025985
   138  H    0.039433
   139  H    0.038108
   140  H    0.036272
   141  H    0.033689
   142  H    0.014255
   143  H    0.012535
   144  H    0.025002
   145  H    0.011996
   146  H    0.005741
   147  H    0.006173
   148  H    0.003611
   149  H    0.010862
   150  H    0.017790
   151  H    0.030116
   152  H    0.045884
   153  H    0.008417
   154  H    0.047248
   155  H    0.035399
   156  H    0.043901
   157  H    0.049409
   158  H    0.053447
 Sum of Mulliken charges =  -0.00000

 Dipole moment (field-independent basis, Debye):
    X=              5.7678    Y=             -0.5096    Z=              6.5834  Tot=              8.7674
 Quadrupole moment (field-independent basis, Debye-Ang):
   XX=           -546.2033   YY=           -531.7138   ZZ=           -462.9670
   XY=             12.8598   XZ=             14.2472   YZ=             56.3441

 Normal termination of Gaussian 16 at Sun Sep 12 03:28:56 2021.
