 Gaussian 16, Revision A.03,
 Gaussian 16:  ES64L-G16RevA.03 25-Dec-2016

 -----------------------------------
 #p cam-b3lyp/Def2SVP td=(nstates=5)
 -----------------------------------

 --------------------------------
 TDDFT excited states in gaussian
 --------------------------------
 Symbolic Z-matrix:
 Charge =  0 Multiplicity = 1

                         Standard orientation:
 ---------------------------------------------------------------------
 Center     Atomic      Atomic             Coordinates (Angstroms)
 Number     Number       Type             X           Y           Z
 ---------------------------------------------------------------------
      1         12           0        7.852681   -0.707949    0.248586
      2          6           0        8.119618    2.478119   -1.360740
      3          6           0        8.607468    0.874143    3.176101
      4          6           0        8.069996   -3.563920    1.609771
      5          6           0        8.243982   -2.162890   -2.893976
      6          7           0        8.285657    1.411236    0.720004
      7          6           0        8.297295    2.543170    0.023039
      8          6           0        8.440906    3.814605    0.911973
      9          6           0        9.142620    3.155317    2.182774
     10          6           0        8.620373    1.736600    2.039865
     11          6           0       10.665058    3.129647    2.093188
     12          6           0        7.054343    4.440103    1.283356
     13          6           0        7.111131    5.854268    1.868389
     14          1           0        6.047528    6.791320    1.539708
     15          7           0        7.794609   -1.226879    2.153891
     16          6           0        8.120231   -0.450226    3.215054
     17          6           0        7.911723   -1.290159    4.414102
     18          6           0        7.620729   -2.676309    3.953660
     19          6           0        7.845546   -2.548533    2.536441
     20          6           0        7.948573   -0.752665    5.811776
     21          6           0        7.216060   -3.921431    4.677570
     22          8           0        7.240249   -5.071239    4.119064
     23          6           0        6.870631   -3.769955    6.102623
     24          7           0        8.337639   -2.599505   -0.489292
     25          6           0        8.300437   -3.678542    0.300189
     26          6           0        8.405586   -4.943611   -0.498862
     27          6           0        8.278027   -4.510876   -2.030600
     28          6           0        8.199146   -2.976473   -1.836554
     29          6           0        9.694560   -5.753681   -0.303050
     30          6           0        7.175516   -5.206040   -2.868237
     31          6           0        5.810855   -4.786461   -2.369485
     32          7           0        7.956370   -0.003606   -1.801828
     33          6           0        8.144813   -0.782812   -2.952480
     34          6           0        8.255295    0.147629   -4.090963
     35          6           0        8.139278    1.412399   -3.517601
     36          6           0        7.993532    1.281384   -2.106968
     37          6           0        8.496584   -0.217083   -5.444919
     38          6           0        8.129232    2.844964   -3.765620
     39          8           0        8.120898    3.550116   -4.775661
     40          6           0        8.238352    3.596576   -2.365977
     41          6           0        7.188991    4.674419   -2.345861
     42          8           0        5.975092    4.385260   -2.331576
     43          8           0        7.772850    5.858899   -2.107836
     44          6           0        6.783438    6.967669   -2.045807
     45          1           0        9.064261    1.219069    4.105782
     46          1           0        8.041459   -4.573691    2.024481
     47          1           0        8.282397   -2.547405   -3.914821
     48          1           0        9.081597    4.591338    0.494091
     49          1           0        8.791803    3.596075    3.115717
     50          1           0       11.011884    3.452338    1.111605
     51          1           0       10.949937    2.093325    2.275871
     52          1           0       11.110498    3.709834    2.901732
     53          1           0        6.634561    3.903947    2.134462
     54          1           0        6.384763    4.432662    0.422581
     55          1           0        8.087286    6.312947    1.708249
     56          1           0        7.021527    5.779383    2.952162
     57          1           0        8.347936    0.260354    5.840892
     58          1           0        8.676767   -1.347652    6.362623
     59          1           0        6.976640   -0.815545    6.301393
     60          1           0        7.725550   -3.356640    6.638191
     61          1           0        6.520488   -4.747351    6.432697
     62          1           0        6.067712   -3.038071    6.195448
     63          1           0        7.596253   -5.629863   -0.252965
     64          1           0        9.195551   -4.702410   -2.587502
     65          1           0        9.521530   -6.780822    0.019048
     66          1           0       10.322488   -5.220656    0.410310
     67          1           0       10.345430   -5.795130   -1.176015
     68          1           0        7.239422   -6.287817   -2.755893
     69          1           0        7.236263   -4.978983   -3.932664
     70          1           0        5.639885   -5.461260   -1.531483
     71          1           0        5.060375   -4.931839   -3.147210
     72          1           0        5.826946   -3.771314   -1.972366
     73          1           0        7.821980    0.389453   -6.049065
     74          1           0        8.323598   -1.281023   -5.605268
     75          1           0        9.547518    0.054531   -5.542995
     76          1           0        9.246521    4.005609   -2.307588
     77          1           0        7.093405    7.715665   -2.775641
     78          1           0        6.725899    7.273545   -1.001042
     79          1           0        5.778475    6.737385   -2.401275
     80         12           0       -8.016782   -0.717393   -0.395468
     81          6           0       -7.863907    2.641692    0.858425
     82          6           0       -7.267977   -1.770806    2.761150
     83          6           0       -7.700028   -3.652956   -1.557154
     84          6           0       -7.618670    0.606506   -3.594606
     85          7           0       -7.638360    0.388107    1.482540
     86          6           0       -7.668150    1.659746    1.851856
     87          6           0       -7.557480    1.887496    3.383342
     88          6           0       -6.812457    0.520310    3.776550
     89          6           0       -7.292709   -0.359851    2.624438
     90          6           0       -5.297695    0.617918    3.703737
     91          6           0       -8.961941    1.995653    4.074577
     92          6           0       -8.932999    2.523859    5.510510
     93          1           0      -10.034590    3.368570    5.963750
     94          7           0       -8.037579   -2.473484    0.528798
     95          6           0       -7.727338   -2.717533    1.819327
     96          6           0       -7.878788   -4.169389    2.001902
     97          6           0       -8.143908   -4.784165    0.672819
     98          6           0       -7.945822   -3.638253   -0.191901
     99          6           0       -7.847989   -4.827471    3.350753
    100          6           0       -8.502264   -6.176327    0.248947
    101          8           0       -8.452517   -6.540136   -0.979058
    102          6           0       -8.822888   -7.126815    1.323788
    103          7           0       -7.493594   -1.442094   -2.272542
    104          6           0       -7.482719   -2.762656   -2.525379
    105          6           0       -7.347368   -3.033712   -4.004762
    106          6           0       -7.513431   -1.612430   -4.718905
    107          6           0       -7.632235   -0.713393   -3.468706
    108          6           0       -6.031490   -3.674072   -4.446090
    109          6           0       -8.606398   -1.499901   -5.816829
    110          6           0       -9.978029   -1.632090   -5.195099
    111          7           0       -7.966731    1.259636   -1.265470
    112          6           0       -7.763360    1.589049   -2.623492
    113          6           0       -7.696458    3.062361   -2.708801
    114          6           0       -7.843678    3.490443   -1.380814
    115          6           0       -7.971658    2.362785   -0.525536
    116          6           0       -7.472908    3.817691   -3.894399
    117          6           0       -7.909286    4.639522   -0.506729
    118          8           0       -7.945089    5.857812   -0.674689
    119          6           0       -7.798502    4.137373    0.997259
    120          6           0       -8.879500    4.814995    1.794009
    121          8           0      -10.078143    4.576579    1.563731
    122          8           0       -8.321142    5.461671    2.833433
    123          6           0       -9.354527    6.140498    3.659966
    124          1           0       -6.815578   -2.197425    3.656814
    125          1           0       -7.692265   -4.640516   -2.024234
    126          1           0       -7.594529    1.099788   -4.568648
    127          1           0       -6.951922    2.737691    3.673574
    128          1           0       -7.171613    0.133965    4.726867
    129          1           0       -4.974324    1.558914    3.284104
    130          1           0       -4.979677   -0.205005    3.077078
    131          1           0       -4.860243    0.433001    4.689015
    132          1           0       -9.351546    0.985311    4.253851
    133          1           0       -9.632294    2.589795    3.484441
    134          1           0       -7.968753    2.982176    5.761768
    135          1           0       -9.012583    1.675128    6.194133
    136          1           0       -7.471657   -4.145025    4.122787
    137          1           0       -7.096363   -5.622773    3.301444
    138          1           0       -8.809061   -5.266173    3.627427
    139          1           0       -7.974985   -7.206879    1.999889
    140          1           0       -9.139753   -8.041922    0.819747
    141          1           0       -9.656071   -6.723725    1.910244
    142          1           0       -8.132879   -3.694527   -4.350302
    143          1           0       -6.593293   -1.307695   -5.238821
    144          1           0       -6.170793   -4.627809   -4.989280
    145          1           0       -5.413294   -3.821884   -3.570574
    146          1           0       -5.399434   -3.046300   -5.071884
    147          1           0       -8.509829   -2.319811   -6.532772
    148          1           0       -8.559431   -0.573646   -6.379708
    149          1           0      -10.112019   -2.715439   -5.121006
    150          1           0      -10.734149   -1.183806   -5.836466
    151          1           0       -9.988829   -1.228154   -4.176093
    152          1           0       -8.166190    4.647916   -3.869982
    153          1           0       -7.611479    3.209110   -4.785574
    154          1           0       -6.427202    4.102199   -3.750132
    155          1           0       -6.801774    4.396294    1.356505
    156          1           0       -9.073527    7.196556    3.718812
    157          1           0       -9.394777    5.576231    4.610618
    158          1           0      -10.356090    6.210555    3.252030
 ---------------------------------------------------------------------

 SCF Done:  E(RCAM-B3LYP) =  -4069.81173584     A.U. after   19 cycles

 Excitation energies and oscillator strengths:

 Excited State   1:      Singlet-A      1.6719 eV  741.58 nm  f=0.1466  <S**2>=0.000
     310 -> 316        0.14321
     311 -> 313       -0.38333
     312 -> 314        0.56915
 This state for optimization and/or second-order correction.
 Total Energy, E(TD-HF/TD-DFT) =  -4069.75029504
 Copying the excited state density for this state as the 1-particle RhoCI density.

 Excited State   2:      Singlet-A      1.6829 eV  736.73 nm  f=0.6049  <S**2>=0.000
     309 -> 315        0.14613
     311 -> 313        0.56854
     312 -> 314        0.38303

 Excited State   3:      Singlet-A      2.1858 eV  567.23 nm  f=0.0819  <S**2>=0.000
     310 -> 314        0.63567
     312 -> 316       -0.27011

 Excited State   4:      Singlet-A      2.1922 eV  565.56 nm  f=0.1153  <S**2>=0.000
     309 -> 313        0.63385
     311 -> 315       -0.27515

 Excited State   5:      Singlet-A      2.7655 eV  448.32 nm  f=0.0000  <S**2>=0.000
     312 -> 313        0.70710

 The electronic state is 1-A.
 Alpha  occ. eigenvalues --  -46.87834 -46.87591 -19.26312 -19.26285 -19.19117
 Alpha  occ. eigenvalues --  -19.19027 -19.18870 -19.18653 -19.18196 -19.17986
 Alpha  occ. eigenvalues --  -14.42485 -14.42432 -14.41486 -14.41288 -14.39442
 Alpha  occ. eigenvalues --  -14.39284 -14.38622 -14.38529 -10.39088 -10.39046
 Alpha  occ. eigenvalues --  -10.35505 -10.35331 -10.34415 -10.34163 -10.31731
 Alpha  occ. eigenvalues --  -10.31667 -10.31436 -10.31244 -10.30963 -10.30944
 Alpha  occ. eigenvalues --  -10.30604 -10.30545 -10.30326 -10.30291 -10.30247
 Alpha  occ. eigenvalues --  -10.30069 -10.29955 -10.29819 -10.29670 -10.29367
 Alpha  occ. eigenvalues --  -10.29332 -10.29295 -10.28774 -10.28673 -10.28634
 Alpha  occ. eigenvalues --  -10.28549 -10.28401 -10.28339 -10.28144 -10.28091
 Alpha  occ. eigenvalues --  -10.27931 -10.27830 -10.27763 -10.27626 -10.27604
 Alpha  occ. eigenvalues --  -10.27537 -10.27535 -10.27485 -10.27437 -10.27436
 Alpha  occ. eigenvalues --  -10.27418 -10.27411 -10.27399 -10.27296 -10.27179
 Alpha  occ. eigenvalues --  -10.26991 -10.26725 -10.26657 -10.26484 -10.26362
 Alpha  occ. eigenvalues --  -10.26259 -10.26219 -10.26061 -10.26056 -10.25976
 Alpha  occ. eigenvalues --  -10.25873 -10.25860 -10.25757 -10.25469 -10.25308
 Alpha  occ. eigenvalues --  -10.24868 -10.24825 -10.24802 -10.24725 -10.24662
 Alpha  occ. eigenvalues --  -10.24620  -3.16577  -3.16341  -1.91458  -1.91223
 Alpha  occ. eigenvalues --   -1.91045  -1.90887  -1.90812  -1.90649  -1.16635
 Alpha  occ. eigenvalues --   -1.16605  -1.08651  -1.08594  -1.07272  -1.06905
 Alpha  occ. eigenvalues --   -1.06902  -1.06649  -1.04616  -1.04430  -1.03797
 Alpha  occ. eigenvalues --   -1.03595  -1.03271  -1.02967  -1.02448  -1.02041
 Alpha  occ. eigenvalues --   -0.92003  -0.91922  -0.89555  -0.89422  -0.89215
 Alpha  occ. eigenvalues --   -0.89101  -0.88322  -0.88146  -0.87904  -0.87717
 Alpha  occ. eigenvalues --   -0.87707  -0.87619  -0.87322  -0.87057  -0.85011
 Alpha  occ. eigenvalues --   -0.84946  -0.83970  -0.83803  -0.83020  -0.82869
 Alpha  occ. eigenvalues --   -0.82680  -0.82598  -0.81605  -0.81542  -0.80627
 Alpha  occ. eigenvalues --   -0.80384  -0.78840  -0.78569  -0.77252  -0.77084
 Alpha  occ. eigenvalues --   -0.76958  -0.76842  -0.75948  -0.75783  -0.74930
 Alpha  occ. eigenvalues --   -0.74731  -0.72809  -0.72629  -0.71704  -0.71515
 Alpha  occ. eigenvalues --   -0.69943  -0.69684  -0.68905  -0.68772  -0.67677
 Alpha  occ. eigenvalues --   -0.67537  -0.67252  -0.67151  -0.65314  -0.65218
 Alpha  occ. eigenvalues --   -0.64883  -0.64706  -0.64649  -0.64596  -0.64304
 Alpha  occ. eigenvalues --   -0.64133  -0.62314  -0.62225  -0.60486  -0.60273
 Alpha  occ. eigenvalues --   -0.59835  -0.59740  -0.59020  -0.58926  -0.58536
 Alpha  occ. eigenvalues --   -0.58361  -0.57607  -0.57495  -0.57342  -0.57168
 Alpha  occ. eigenvalues --   -0.56346  -0.56139  -0.55992  -0.55838  -0.55560
 Alpha  occ. eigenvalues --   -0.55394  -0.55367  -0.55180  -0.54546  -0.54426
 Alpha  occ. eigenvalues --   -0.53922  -0.53863  -0.53338  -0.53256  -0.53162
 Alpha  occ. eigenvalues --   -0.53085  -0.52942  -0.52847  -0.52800  -0.52613
 Alpha  occ. eigenvalues --   -0.52473  -0.52330  -0.51946  -0.51802  -0.51648
 Alpha  occ. eigenvalues --   -0.51608  -0.51225  -0.51137  -0.50629  -0.50416
 Alpha  occ. eigenvalues --   -0.50069  -0.49962  -0.49921  -0.49796  -0.49550
 Alpha  occ. eigenvalues --   -0.49430  -0.49248  -0.49143  -0.49123  -0.49046
 Alpha  occ. eigenvalues --   -0.48618  -0.48504  -0.48500  -0.48479  -0.48304
 Alpha  occ. eigenvalues --   -0.48279  -0.47729  -0.47536  -0.47333  -0.47054
 Alpha  occ. eigenvalues --   -0.46830  -0.46644  -0.46583  -0.46502  -0.46394
 Alpha  occ. eigenvalues --   -0.46203  -0.46192  -0.46015  -0.45844  -0.45759
 Alpha  occ. eigenvalues --   -0.45236  -0.45136  -0.44605  -0.44547  -0.44455
 Alpha  occ. eigenvalues --   -0.44418  -0.44181  -0.44118  -0.44069  -0.44052
 Alpha  occ. eigenvalues --   -0.44013  -0.43881  -0.43516  -0.43499  -0.43418
 Alpha  occ. eigenvalues --   -0.43325  -0.43058  -0.42879  -0.42837  -0.42723
 Alpha  occ. eigenvalues --   -0.42675  -0.42484  -0.42040  -0.41902  -0.41735
 Alpha  occ. eigenvalues --   -0.41605  -0.41562  -0.41404  -0.41173  -0.40927
 Alpha  occ. eigenvalues --   -0.40902  -0.40870  -0.40668  -0.40643  -0.40604
 Alpha  occ. eigenvalues --   -0.40423  -0.40260  -0.40185  -0.39477  -0.39352
 Alpha  occ. eigenvalues --   -0.38502  -0.38280  -0.37773  -0.37608  -0.37355
 Alpha  occ. eigenvalues --   -0.37292  -0.37197  -0.37142  -0.36729  -0.36722
 Alpha  occ. eigenvalues --   -0.36216  -0.36153  -0.34321  -0.34186  -0.33814
 Alpha  occ. eigenvalues --   -0.33783  -0.33220  -0.33107  -0.31399  -0.31211
 Alpha  occ. eigenvalues --   -0.31071  -0.30906  -0.30054  -0.29890  -0.29491
 Alpha  occ. eigenvalues --   -0.29358  -0.29260  -0.29140  -0.24116  -0.23967
 Alpha  occ. eigenvalues --   -0.21164  -0.21048
 Alpha virt. eigenvalues --   -0.08812  -0.08723  -0.01788  -0.01615  -0.00101
 Alpha virt. eigenvalues --    0.00034   0.02168   0.02277   0.03079   0.03288
 Alpha virt. eigenvalues --    0.04689   0.04790   0.05087   0.05212   0.06160

 Mulliken charges:
               1
     1  Mg   0.838660
     2  C   -0.002923
     3  C   -0.094191
     4  C   -0.045958
     5  C   -0.063968
     6  N   -0.256788
     7  C   -0.052411
     8  C   -0.013988
     9  C   -0.086992
    10  C    0.046304
    11  C    0.104807
    12  C    0.053494
    13  C   -0.071965
    14  H    0.036607
    15  N   -0.433129
    16  C    0.168313
    17  C   -0.177272
    18  C   -0.004168
    19  C    0.148655
    20  C    0.110196
    21  C    0.012084
    22  O   -0.249698
    23  C    0.062593
    24  N   -0.341162
    25  C    0.041259
    26  C   -0.028177
    27  C   -0.023994
    28  C    0.074876
    29  C    0.076156
    30  C    0.035116
    31  C   -0.004492
    32  N   -0.310517
    33  C    0.080496
    34  C   -0.169679
    35  C    0.008449
    36  C    0.083013
    37  C    0.127300
    38  C    0.046187
    39  O   -0.188158
    40  C   -0.005331
    41  C    0.212920
    42  O   -0.257050
    43  O   -0.304832
    44  C    0.157560
    45  H   -0.017613
    46  H   -0.016913
    47  H   -0.041418
    48  H    0.001086
    49  H   -0.004062
    50  H    0.025548
    51  H    0.016406
    52  H    0.016706
    53  H    0.010979
    54  H    0.044228
    55  H    0.017951
    56  H    0.017818
    57  H    0.005925
    58  H    0.026813
    59  H    0.039107
    60  H    0.037458
    61  H    0.035380
    62  H    0.031066
    63  H    0.016469
    64  H    0.009546
    65  H    0.023192
    66  H    0.012557
    67  H    0.004827
    68  H    0.006438
    69  H    0.004801
    70  H    0.008705
    71  H    0.018205
    72  H    0.028894
    73  H    0.047662
    74  H    0.009124
    75  H    0.046124
    76  H    0.035245
    77  H    0.043140
    78  H    0.046447
    79  H    0.053960
    80  Mg   0.838031
    81  C   -0.016871
    82  C   -0.087869
    83  C   -0.045452
    84  C   -0.064456
    85  N   -0.254560
    86  C   -0.049759
    87  C   -0.015088
    88  C   -0.090540
    89  C    0.045780
    90  C    0.114413
    91  C    0.062583
    92  C   -0.077731
    93  H    0.034668
    94  N   -0.423497
    95  C    0.162900
    96  C   -0.174672
    97  C   -0.007837
    98  C    0.152104
    99  C    0.099393
   100  C    0.015538
   101  O   -0.253224
   102  C    0.061218
   103  N   -0.350001
   104  C    0.037612
   105  C   -0.019913
   106  C   -0.034899
   107  C    0.088924
   108  C    0.073550
   109  C    0.034710
   110  C   -0.007647
   111  N   -0.324167
   112  C    0.078479
   113  C   -0.162837
   114  C    0.002313
   115  C    0.096255
   116  C    0.131444
   117  C    0.042553
   118  O   -0.187900
   119  C    0.000844
   120  C    0.211190
   121  O   -0.251077
   122  O   -0.305639
   123  C    0.152083
   124  H   -0.019882
   125  H   -0.015583
   126  H   -0.040156
   127  H   -0.000813
   128  H   -0.004622
   129  H    0.022630
   130  H    0.014775
   131  H    0.015730
   132  H    0.013901
   133  H    0.037677
   134  H    0.020573
   135  H    0.019445
   136  H    0.008561
   137  H    0.026147
   138  H    0.039590
   139  H    0.038262
   140  H    0.036279
   141  H    0.033767
   142  H    0.014249
   143  H    0.012951
   144  H    0.024937
   145  H    0.011819
   146  H    0.006135
   147  H    0.006262
   148  H    0.003802
   149  H    0.010830
   150  H    0.017837
   151  H    0.030020
   152  H    0.045839
   153  H    0.008609
   154  H    0.047722
   155  H    0.035126
   156  H    0.043754
   157  H    0.049326
   158  H    0.053550
 Sum of Mulliken charges =  -0.00000

 Dipole moment (field-independent basis, Debye):
    X=              3.7436    Y=             -2.1482    Z=              7.1869  Tot=              8.3834
 Quadrupole moment (field-independent basis, Debye-Ang):
   XX=           -518.0462   YY=           -534.9187   ZZ=           -464.0453
   XY=             28.0096   XZ=              6.0994   YZ=             32.8980

 Normal termination of Gaussian 16 at Sun Sep 12 04:18:13 2021.
