 Gaussian 16, Revision A.03,
 Gaussian 16:  ES64L-G16RevA.03 25-Dec-2016

 -----------------------------------
 #p cam-b3lyp/Def2SVP td=(nstates=5)
 -----------------------------------

 --------------------------------
 TDDFT excited states in gaussian
 --------------------------------
 Symbolic Z-matrix:
 Charge =  0 Multiplicity = 1

                         Standard orientation:
 ---------------------------------------------------------------------
 Center     Atomic      Atomic             Coordinates (Angstroms)
 Number     Number       Type             X           Y           Z
 ---------------------------------------------------------------------
      1         12           0       -5.247245   -0.584074    0.180602
      2          6           0       -5.309939    2.986727    0.420742
      3          6           0       -6.177859   -0.232258   -3.083329
      4          6           0       -5.640105   -3.728806    0.066851
      5          6           0       -5.439691   -0.673998    3.659185
      6          7           0       -5.659084    1.202854   -1.059529
      7          6           0       -5.589040    2.515908   -0.864200
      8          6           0       -5.765746    3.345252   -2.171234
      9          6           0       -6.577600    2.280690   -3.037027
     10          6           0       -6.083174    1.004619   -2.378915
     11          6           0       -8.089198    2.373213   -2.855336
     12          6           0       -4.395113    3.701318   -2.839301
     13          6           0       -4.458790    4.775835   -3.928665
     14          1           0       -3.349551    5.708709   -4.057822
     15          7           0       -5.345595   -1.807771   -1.367217
     16          6           0       -5.729505   -1.490721   -2.627129
     17          6           0       -5.633325   -2.741838   -3.409521
     18          6           0       -5.344786   -3.851715   -2.459251
     19          6           0       -5.459392   -3.169156   -1.195781
     20          6           0       -5.760801   -2.791341   -4.901180
     21          6           0       -5.027998   -5.300273   -2.657894
     22          8           0       -5.040158   -6.137843   -1.692025
     23          6           0       -4.786485   -5.735647   -4.045396
     24          7           0       -5.724568   -2.008851    1.629673
     25          6           0       -5.774684   -3.310756    1.327156
     26          6           0       -5.852523   -4.156070    2.563814
     27          6           0       -5.599356   -3.167295    3.791814
     28          6           0       -5.495371   -1.836894    3.006008
     29          6           0       -7.173168   -4.908358    2.778220
     30          6           0       -4.455632   -3.538096    4.768963
     31          6           0       -3.121729   -3.419844    4.066242
     32          7           0       -5.178676    0.869111    1.791378
     33          6           0       -5.300574    0.612044    3.164597
     34          6           0       -5.301221    1.917487    3.850080
     35          6           0       -5.195648    2.850031    2.820003
     36          6           0       -5.159453    2.171279    1.568492
     37          6           0       -5.449791    2.123565    5.250042
     38          6           0       -5.129808    4.263032    2.483922
     39          8           0       -5.027494    5.304939    3.133118
     40          6           0       -5.323908    4.413418    0.910539
     41          6           0       -4.251338    5.340326    0.406808
     42          8           0       -3.049851    5.004266    0.436079
     43          8           0       -4.820399    6.367260   -0.242899
     44          6           0       -3.809926    7.309431   -0.793726
     45          1           0       -6.693900   -0.253720   -4.045193
     46          1           0       -5.668980   -4.820314    0.081521
     47          1           0       -5.411498   -0.626946    4.749343
     48          1           0       -6.352918    4.256432   -2.055451
     49          1           0       -6.286327    2.302989   -4.086972
     50          1           0       -8.353001    3.071406   -2.061071
     51          1           0       -8.413809    1.364567   -2.598910
     52          1           0       -8.578729    2.614663   -3.799178
     53          1           0       -4.054358    2.853955   -3.434216
     54          1           0       -3.663345    3.994743   -2.085814
     55          1           0       -5.407948    5.311963   -3.904684
     56          1           0       -4.452613    4.279238   -4.899001
     57          1           0       -6.134752   -1.850305   -5.302624
     58          1           0       -6.543440   -3.514397   -5.130036
     59          1           0       -4.830247   -3.092040   -5.382825
     60          1           0       -5.668093   -5.519207   -4.649111
     61          1           0       -4.487585   -6.781506   -3.984670
     62          1           0       -3.974023   -5.141967   -4.465394
     63          1           0       -5.082003   -4.925948    2.560385
     64          1           0       -6.477245   -3.077078    4.432006
     65          1           0       -7.051518   -5.987387    2.876217
     66          1           0       -7.838707   -4.663379    1.950975
     67          1           0       -7.757662   -4.571049    3.633794
     68          1           0       -4.555877   -4.572848    5.094826
     69          1           0       -4.430537   -2.910721    5.660042
     70          1           0       -3.031624   -4.376263    3.552457
     71          1           0       -2.319124   -3.289930    4.792987
     72          1           0       -3.141132   -2.640912    3.303764
     73          1           0       -4.716280    2.880896    5.526413
     74          1           0       -5.292996    1.199012    5.805217
     75          1           0       -6.483006    2.467517    5.294988
     76          1           0       -6.322643    4.820330    0.755382
     77          1           0       -4.044790    8.298321   -0.399809
     78          1           0       -3.822891    7.179744   -1.876046
     79          1           0       -2.787482    7.182935   -0.436030
     80         12           0        5.333374   -0.981495   -0.047027
     81          6           0        5.424972    2.597888    0.195154
     82          6           0        4.258394   -0.587394   -3.260083
     83          6           0        4.811103   -4.109419   -0.150925
     84          6           0        5.300010   -1.077616    3.436551
     85          7           0        4.932408    0.822498   -1.262383
     86          6           0        5.061681    2.128623   -1.084387
     87          6           0        4.864226    2.975615   -2.370145
     88          6           0        3.960754    1.941612   -3.202869
     89          6           0        4.432901    0.636327   -2.565706
     90          6           0        2.472360    2.092429   -2.935888
     91          6           0        6.219068    3.274209   -3.103124
     92          6           0        6.139447    4.349656   -4.188855
     93          1           0        7.283991    5.237371   -4.374508
     94          7           0        5.113088   -2.195829   -1.601205
     95          6           0        4.688072   -1.864917   -2.838591
     96          6           0        4.681040   -3.117549   -3.609956
     97          6           0        4.978782   -4.241847   -2.681499
     98          6           0        4.958222   -3.546413   -1.410265
     99          6           0        4.488037   -3.155674   -5.098154
    100          6           0        5.226682   -5.703657   -2.900233
    101          8           0        5.229580   -6.538983   -1.928087
    102          6           0        5.373132   -6.142139   -4.295862
    103          7           0        4.877275   -2.384270    1.418089
    104          6           0        4.753531   -3.687814    1.112500
    105          6           0        4.698786   -4.537618    2.359581
    106          6           0        5.056138   -3.551940    3.567187
    107          6           0        5.173342   -2.225421    2.784886
    108          6           0        3.361008   -5.221717    2.640206
    109          6           0        6.231055   -3.970338    4.493033
    110          6           0        7.534442   -3.916840    3.729034
    111          7           0        5.542657    0.457748    1.550722
    112          6           0        5.471284    0.207761    2.938704
    113          6           0        5.557336    1.514969    3.621509
    114          6           0        5.650372    2.444096    2.574337
    115          6           0        5.603831    1.765602    1.326548
    116          6           0        5.495829    1.724430    5.028088
    117          6           0        5.766682    3.845450    2.240604
    118          8           0        5.935285    4.880547    2.883932
    119          6           0        5.498612    4.018013    0.683442
    120          6           0        6.581388    4.897262    0.120365
    121          8           0        7.763876    4.512432    0.104941
    122          8           0        6.016657    5.948599   -0.501021
    123          6           0        7.050153    6.844147   -1.085577
    124          1           0        3.702573   -0.576984   -4.198079
    125          1           0        4.738941   -5.199239   -0.127175
    126          1           0        5.395146   -1.030864    4.523496
    127          1           0        4.326787    3.904881   -2.223874
    128          1           0        4.210426    1.961794   -4.260519
    129          1           0        2.275085    2.793419   -2.138499
    130          1           0        2.120124    1.105064   -2.667417
    131          1           0        1.948924    2.358567   -3.858670
    132          1           0        6.492493    2.406779   -3.717585
    133          1           0        6.985843    3.529050   -2.397621
    134          1           0        5.209902    4.928636   -4.128151
    135          1           0        6.084932    3.856510   -5.162439
    136          1           0        4.126747   -2.193504   -5.481691
    137          1           0        3.666665   -3.852766   -5.296305
    138          1           0        5.378376   -3.498311   -5.629716
    139          1           0        4.475017   -5.883616   -4.851755
    140          1           0        5.633008   -7.201203   -4.243697
    141          1           0        6.197841   -5.584155   -4.753173
    142          1           0        5.437608   -5.328675    2.321240
    143          1           0        4.210634   -3.434072    4.260781
    144          1           0        3.443638   -6.321260    2.731109
    145          1           0        2.669784   -4.956262    1.851357
    146          1           0        2.841110   -4.871738    3.530381
    147          1           0        6.105323   -5.005380    4.820200
    148          1           0        6.316948   -3.358821    5.385032
    149          1           0        7.554507   -4.878516    3.207619
    150          1           0        8.375545   -3.820901    4.412693
    151          1           0        7.511933   -3.129128    2.967031
    152          1           0        6.264561    2.446513    5.269244
    153          1           0        5.637062    0.794576    5.575080
    154          1           0        4.475887    2.106241    5.124006
    155          1           0        4.509262    4.462514    0.568627
    156          1           0        6.871921    7.844963   -0.680257
    157          1           0        6.965629    6.722253   -2.181814
    158          1           0        8.080473    6.678080   -0.793503
 ---------------------------------------------------------------------

 SCF Done:  E(RCAM-B3LYP) =  -4069.81143686     A.U. after   19 cycles

 Excitation energies and oscillator strengths:

 Excited State   1:      Singlet-A      1.6568 eV  748.32 nm  f=0.0033  <S**2>=0.000
     309 -> 315       -0.11345
     310 -> 316        0.12537
     311 -> 313       -0.45907
     312 -> 314        0.51131
 This state for optimization and/or second-order correction.
 Total Energy, E(TD-HF/TD-DFT) =  -4069.75054938
 Copying the excited state density for this state as the 1-particle RhoCI density.

 Excited State   2:      Singlet-A      1.6967 eV  730.74 nm  f=0.7177  <S**2>=0.000
     309 -> 315        0.13409
     310 -> 316        0.11944
     311 -> 313        0.50937
     312 -> 314        0.45740

 Excited State   3:      Singlet-A      2.1826 eV  568.06 nm  f=0.0226  <S**2>=0.000
     309 -> 313       -0.27162
     310 -> 314        0.58407
     311 -> 315        0.11321
     312 -> 316       -0.24498

 Excited State   4:      Singlet-A      2.1947 eV  564.94 nm  f=0.1586  <S**2>=0.000
     309 -> 313        0.58028
     310 -> 314        0.26838
     311 -> 315       -0.25456
     312 -> 316       -0.11871

 Excited State   5:      Singlet-A      2.4825 eV  499.44 nm  f=0.0000  <S**2>=0.000
     312 -> 313        0.70709

 The electronic state is 1-A.
 Alpha  occ. eigenvalues --  -46.87887 -46.87490 -19.26365 -19.26169 -19.19104
 Alpha  occ. eigenvalues --  -19.18983 -19.18890 -19.18580 -19.18234 -19.17845
 Alpha  occ. eigenvalues --  -14.42546 -14.42325 -14.41537 -14.41191 -14.39493
 Alpha  occ. eigenvalues --  -14.39186 -14.38672 -14.38422 -10.39163 -10.38907
 Alpha  occ. eigenvalues --  -10.35525 -10.35261 -10.34456 -10.34019 -10.31759
 Alpha  occ. eigenvalues --  -10.31602 -10.31500 -10.31127 -10.31012 -10.30857
 Alpha  occ. eigenvalues --  -10.30658 -10.30588 -10.30295 -10.30224 -10.30184
 Alpha  occ. eigenvalues --  -10.29998 -10.29992 -10.29720 -10.29714 -10.29343
 Alpha  occ. eigenvalues --  -10.29279 -10.29235 -10.28877 -10.28728 -10.28547
 Alpha  occ. eigenvalues --  -10.28541 -10.28454 -10.28234 -10.28230 -10.27957
 Alpha  occ. eigenvalues --  -10.27875 -10.27828 -10.27823 -10.27671 -10.27601
 Alpha  occ. eigenvalues --  -10.27578 -10.27519 -10.27508 -10.27494 -10.27382
 Alpha  occ. eigenvalues --  -10.27379 -10.27307 -10.27306 -10.27237 -10.27230
 Alpha  occ. eigenvalues --  -10.26878 -10.26828 -10.26555 -10.26500 -10.26336
 Alpha  occ. eigenvalues --  -10.26324 -10.26264 -10.26105 -10.26022 -10.25896
 Alpha  occ. eigenvalues --  -10.25784 -10.25773 -10.25650 -10.25495 -10.25251
 Alpha  occ. eigenvalues --  -10.24912 -10.24870 -10.24777 -10.24691 -10.24619
 Alpha  occ. eigenvalues --  -10.24521  -3.16630  -3.16239  -1.91512  -1.91121
 Alpha  occ. eigenvalues --   -1.91098  -1.90940  -1.90710  -1.90547  -1.16714
 Alpha  occ. eigenvalues --   -1.16464  -1.08690  -1.08448  -1.07289  -1.06834
 Alpha  occ. eigenvalues --   -1.06766  -1.06725  -1.04677  -1.04321  -1.03849
 Alpha  occ. eigenvalues --   -1.03494  -1.03320  -1.02871  -1.02498  -1.01939
 Alpha  occ. eigenvalues --   -0.92058  -0.91801  -0.89602  -0.89340  -0.89309
 Alpha  occ. eigenvalues --   -0.88975  -0.88367  -0.88071  -0.87946  -0.87774
 Alpha  occ. eigenvalues --   -0.87611  -0.87521  -0.87367  -0.86986  -0.85098
 Alpha  occ. eigenvalues --   -0.84836  -0.84015  -0.83729  -0.83055  -0.82809
 Alpha  occ. eigenvalues --   -0.82752  -0.82495  -0.81672  -0.81425  -0.80686
 Alpha  occ. eigenvalues --   -0.80278  -0.78887  -0.78484  -0.77316  -0.77037
 Alpha  occ. eigenvalues --   -0.76987  -0.76736  -0.76019  -0.75662  -0.74977
 Alpha  occ. eigenvalues --   -0.74647  -0.72860  -0.72530  -0.71760  -0.71408
 Alpha  occ. eigenvalues --   -0.69989  -0.69620  -0.68981  -0.68666  -0.67728
 Alpha  occ. eigenvalues --   -0.67439  -0.67345  -0.67059  -0.65398  -0.65102
 Alpha  occ. eigenvalues --   -0.64941  -0.64715  -0.64604  -0.64489  -0.64353
 Alpha  occ. eigenvalues --   -0.64051  -0.62380  -0.62108  -0.60530  -0.60195
 Alpha  occ. eigenvalues --   -0.59912  -0.59622  -0.59074  -0.58825  -0.58589
 Alpha  occ. eigenvalues --   -0.58256  -0.57664  -0.57391  -0.57359  -0.57076
 Alpha  occ. eigenvalues --   -0.56396  -0.56071  -0.56042  -0.55722  -0.55608
 Alpha  occ. eigenvalues --   -0.55417  -0.55299  -0.55088  -0.54604  -0.54330
 Alpha  occ. eigenvalues --   -0.54015  -0.53743  -0.53386  -0.53325  -0.53073
 Alpha  occ. eigenvalues --   -0.53005  -0.52983  -0.52859  -0.52742  -0.52536
 Alpha  occ. eigenvalues --   -0.52520  -0.52268  -0.51982  -0.51730  -0.51691
 Alpha  occ. eigenvalues --   -0.51505  -0.51281  -0.51030  -0.50673  -0.50361
 Alpha  occ. eigenvalues --   -0.50119  -0.50013  -0.49825  -0.49722  -0.49615
 Alpha  occ. eigenvalues --   -0.49335  -0.49302  -0.49198  -0.49031  -0.48919
 Alpha  occ. eigenvalues --   -0.48679  -0.48540  -0.48524  -0.48385  -0.48224
 Alpha  occ. eigenvalues --   -0.48190  -0.47791  -0.47442  -0.47386  -0.46975
 Alpha  occ. eigenvalues --   -0.46889  -0.46672  -0.46551  -0.46445  -0.46396
 Alpha  occ. eigenvalues --   -0.46241  -0.46116  -0.45916  -0.45901  -0.45642
 Alpha  occ. eigenvalues --   -0.45280  -0.45052  -0.44659  -0.44608  -0.44343
 Alpha  occ. eigenvalues --   -0.44317  -0.44232  -0.44196  -0.44104  -0.43954
 Alpha  occ. eigenvalues --   -0.43933  -0.43782  -0.43577  -0.43486  -0.43387
 Alpha  occ. eigenvalues --   -0.43219  -0.43113  -0.42780  -0.42762  -0.42737
 Alpha  occ. eigenvalues --   -0.42723  -0.42410  -0.42103  -0.41815  -0.41789
 Alpha  occ. eigenvalues --   -0.41649  -0.41487  -0.41303  -0.41232  -0.40979
 Alpha  occ. eigenvalues --   -0.40918  -0.40816  -0.40656  -0.40586  -0.40548
 Alpha  occ. eigenvalues --   -0.40380  -0.40339  -0.40085  -0.39526  -0.39292
 Alpha  occ. eigenvalues --   -0.38559  -0.38201  -0.37884  -0.37508  -0.37407
 Alpha  occ. eigenvalues --   -0.37376  -0.37111  -0.37035  -0.36796  -0.36602
 Alpha  occ. eigenvalues --   -0.36280  -0.36056  -0.34374  -0.34082  -0.33855
 Alpha  occ. eigenvalues --   -0.33684  -0.33273  -0.33006  -0.31420  -0.31138
 Alpha  occ. eigenvalues --   -0.31124  -0.30802  -0.30093  -0.29747  -0.29535
 Alpha  occ. eigenvalues --   -0.29401  -0.29168  -0.29027  -0.24170  -0.23861
 Alpha  occ. eigenvalues --   -0.21216  -0.20949
 Alpha virt. eigenvalues --   -0.08861  -0.08623  -0.01837  -0.01519  -0.00145
 Alpha virt. eigenvalues --    0.00127   0.02126   0.02396   0.03008   0.03383
 Alpha virt. eigenvalues --    0.04607   0.04896   0.05015   0.05349   0.06032

 Mulliken charges:
               1
     1  Mg   0.838539
     2  C   -0.003186
     3  C   -0.094828
     4  C   -0.045559
     5  C   -0.063832
     6  N   -0.256703
     7  C   -0.052723
     8  C   -0.013862
     9  C   -0.086892
    10  C    0.046046
    11  C    0.104797
    12  C    0.053765
    13  C   -0.071408
    14  H    0.034985
    15  N   -0.433139
    16  C    0.168201
    17  C   -0.177608
    18  C   -0.003954
    19  C    0.148703
    20  C    0.110284
    21  C    0.012531
    22  O   -0.249024
    23  C    0.062568
    24  N   -0.341095
    25  C    0.041131
    26  C   -0.028250
    27  C   -0.024034
    28  C    0.074872
    29  C    0.076078
    30  C    0.035103
    31  C   -0.004522
    32  N   -0.310561
    33  C    0.080517
    34  C   -0.169381
    35  C    0.008655
    36  C    0.083046
    37  C    0.127207
    38  C    0.046440
    39  O   -0.187585
    40  C   -0.005462
    41  C    0.213159
    42  O   -0.257353
    43  O   -0.304762
    44  C    0.157465
    45  H   -0.017755
    46  H   -0.016520
    47  H   -0.041250
    48  H    0.001244
    49  H   -0.004612
    50  H    0.025701
    51  H    0.016668
    52  H    0.016634
    53  H    0.010045
    54  H    0.043779
    55  H    0.018612
    56  H    0.017358
    57  H    0.005535
    58  H    0.027080
    59  H    0.038471
    60  H    0.037253
    61  H    0.036192
    62  H    0.030609
    63  H    0.016814
    64  H    0.009671
    65  H    0.023464
    66  H    0.012579
    67  H    0.004870
    68  H    0.006522
    69  H    0.004785
    70  H    0.009116
    71  H    0.017341
    72  H    0.029177
    73  H    0.048203
    74  H    0.009150
    75  H    0.046218
    76  H    0.035308
    77  H    0.043635
    78  H    0.045751
    79  H    0.053981
    80  Mg   0.838128
    81  C   -0.016330
    82  C   -0.087950
    83  C   -0.045499
    84  C   -0.064786
    85  N   -0.254561
    86  C   -0.048837
    87  C   -0.015157
    88  C   -0.090821
    89  C    0.046107
    90  C    0.114231
    91  C    0.062604
    92  C   -0.077444
    93  H    0.034286
    94  N   -0.423410
    95  C    0.162846
    96  C   -0.175267
    97  C   -0.008015
    98  C    0.151919
    99  C    0.099760
   100  C    0.015351
   101  O   -0.253295
   102  C    0.061373
   103  N   -0.349943
   104  C    0.037440
   105  C   -0.019776
   106  C   -0.034755
   107  C    0.089127
   108  C    0.073744
   109  C    0.034772
   110  C   -0.007582
   111  N   -0.324380
   112  C    0.078970
   113  C   -0.162600
   114  C    0.003180
   115  C    0.096256
   116  C    0.131140
   117  C    0.043414
   118  O   -0.187138
   119  C    0.000369
   120  C    0.210968
   121  O   -0.251582
   122  O   -0.305089
   123  C    0.152242
   124  H   -0.020857
   125  H   -0.015758
   126  H   -0.040632
   127  H    0.000280
   128  H   -0.005559
   129  H    0.026692
   130  H    0.014245
   131  H    0.014276
   132  H    0.013511
   133  H    0.037609
   134  H    0.020741
   135  H    0.018907
   136  H    0.007938
   137  H    0.024884
   138  H    0.039247
   139  H    0.037607
   140  H    0.036068
   141  H    0.033610
   142  H    0.014059
   143  H    0.012164
   144  H    0.024842
   145  H    0.012439
   146  H    0.005042
   147  H    0.005875
   148  H    0.003492
   149  H    0.010791
   150  H    0.017639
   151  H    0.030282
   152  H    0.045787
   153  H    0.007887
   154  H    0.048823
   155  H    0.037978
   156  H    0.043900
   157  H    0.048970
   158  H    0.053216
 Sum of Mulliken charges =  -0.00000

 Dipole moment (field-independent basis, Debye):
    X=             -4.5723    Y=             -1.9247    Z=             -7.2465  Tot=              8.7819
 Quadrupole moment (field-independent basis, Debye-Ang):
   XX=           -521.0722   YY=           -550.1678   ZZ=           -448.6530
   XY=             -7.8966   XZ=              1.2884   YZ=            -48.7434

 Normal termination of Gaussian 16 at Fri Sep 10 23:37:46 2021.
