 Gaussian 16, Revision A.03,
 Gaussian 16:  ES64L-G16RevA.03 25-Dec-2016

 -----------------------------------
 #p cam-b3lyp/Def2SVP td=(nstates=5)
 -----------------------------------

 --------------------------------
 TDDFT excited states in gaussian
 --------------------------------
 Symbolic Z-matrix:
 Charge =  0 Multiplicity = 1

                         Standard orientation:
 ---------------------------------------------------------------------
 Center     Atomic      Atomic             Coordinates (Angstroms)
 Number     Number       Type             X           Y           Z
 ---------------------------------------------------------------------
      1         12           0        8.072076   -0.596027    0.651480
      2          6           0        8.411282    2.339345   -1.368607
      3          6           0        8.723117    1.373874    3.360484
      4          6           0        8.227326   -3.237859    2.398832
      5          6           0        8.574838   -2.468020   -2.244816
      6          7           0        8.495351    1.568362    0.843592
      7          6           0        8.537400    2.593937   -0.001156
      8          6           0        8.652636    3.975532    0.709682
      9          6           0        9.303834    3.497810    2.084353
     10          6           0        8.781795    2.072233    2.117952
     11          6           0       10.828445    3.462048    2.056335
     12          6           0        7.255604    4.644296    0.939431
     13          6           0        7.295982    6.125448    1.326616
     14          1           0        6.249037    7.007148    0.832793
     15          7           0        7.940868   -0.848610    2.606431
     16          6           0        8.229636    0.066759    3.562464
     17          6           0        7.973234   -0.600920    4.856737
     18          6           0        7.694271   -2.037521    4.580242
     19          6           0        7.972358   -2.105183    3.168340
     20          6           0        7.959937    0.123370    6.167835
     21          6           0        7.258023   -3.172021    5.452441
     22          8           0        7.298599   -4.387572    5.058280
     23          6           0        6.860197   -2.826831    6.829257
     24          7           0        8.576921   -2.570331    0.198835
     25          6           0        8.506075   -3.530844    1.126942
     26          6           0        8.636091   -4.893476    0.513535
     27          6           0        8.567512   -4.675238   -1.066788
     28          6           0        8.487385   -3.128825   -1.088202
     29          6           0        9.913703   -5.667343    0.866875
     30          6           0        7.494370   -5.480210   -1.841904
     31          6           0        6.113669   -4.997906   -1.457007
     32          7           0        8.255006   -0.179643   -1.470832
     33          6           0        8.483273   -1.109161   -2.495801
     34          6           0        8.639806   -0.343645   -3.746221
     35          6           0        8.507358    0.987700   -3.356576
     36          6           0        8.308519    1.051351   -1.947781
     37          6           0        8.930083   -0.890430   -5.027315
     38          6           0        8.512135    2.372652   -3.799005
     39          8           0        8.544265    2.932488   -4.895838
     40          6           0        8.571813    3.309396   -2.512624
     41          6           0        7.526619    4.378446   -2.679978
     42          8           0        6.311922    4.092421   -2.671721
     43          8           0        8.105767    5.585138   -2.584978
     44          6           0        7.119033    6.690652   -2.712840
     45          1           0        9.146201    1.843726    4.250529
     46          1           0        8.179407   -4.181190    2.946800
     47          1           0        8.649865   -2.988961   -3.201083
     48          1           0        9.311494    4.688382    0.213522
     49          1           0        8.920127    4.061993    2.934169
     50          1           0       11.212940    3.647406    1.053476
     51          1           0       11.102284    2.460975    2.390040
     52          1           0       11.245619    4.148292    2.793771
     53          1           0        6.802250    4.229492    1.839691
     54          1           0        6.618618    4.517920    0.063301
     55          1           0        8.279207    6.559064    1.141806
     56          1           0        7.165671    6.199907    2.406281
     57          1           0        8.361857    1.131311    6.072652
     58          1           0        8.664737   -0.389441    6.822045
     59          1           0        6.970158    0.127034    6.624625
     60          1           0        7.696111   -2.342818    7.334754
     61          1           0        6.494185   -3.750123    7.276937
     62          1           0        6.057214   -2.090168    6.790587
     63          1           0        7.815485   -5.540525    0.820715
     64          1           0        9.504446   -4.940213   -1.557314
     65          1           0        9.724784   -6.640775    1.320133
     66          1           0       10.516609   -5.040643    1.523414
     67          1           0       10.596560   -5.827378    0.032901
     68          1           0        7.549841   -6.536246   -1.579880
     69          1           0        7.595711   -5.401321   -2.924381
     70          1           0        5.908903   -5.551520   -0.541357
     71          1           0        5.392203   -5.249620   -2.235042
     72          1           0        6.118851   -3.937840   -1.202604
     73          1           0        8.280871   -0.373424   -5.733854
     74          1           0        8.759085   -1.966530   -5.046548
     75          1           0        9.984992   -0.633493   -5.122219
     76          1           0        9.578676    3.723870   -2.473113
     77          1           0        7.458940    7.331796   -3.526248
     78          1           0        7.023697    7.136956   -1.722826
     79          1           0        6.127163    6.412464   -3.070813
     80         12           0       -7.747488   -0.708706   -0.582270
     81          6           0       -9.987658    1.627395    0.968013
     82          6           0       -6.327872    1.945753   -2.186380
     83          6           0       -6.062050   -2.775815   -2.300920
     84          6           0      -10.026130   -3.218357    0.227146
     85          7           0       -8.188297    1.458213   -0.532889
     86          6           0       -9.022004    2.236898    0.140108
     87          6           0       -8.756774    3.757431   -0.024825
     88          6           0       -7.998997    3.717231   -1.440110
     89          6           0       -7.436223    2.298836   -1.375839
     90          6           0       -8.940707    3.803999   -2.629645
     91          6           0       -7.831397    4.328889    1.106174
     92          6           0       -7.781347    5.856283    1.185648
     93          1           0       -7.664848    6.481402    2.500233
     94          7           0       -6.092729   -0.446349   -1.645985
     95          6           0       -5.657136    0.703108   -2.203025
     96          6           0       -4.404454    0.364814   -2.896231
     97          6           0       -4.221975   -1.111133   -2.841648
     98          6           0       -5.490037   -1.512424   -2.266258
     99          6           0       -3.478047    1.404692   -3.456427
    100          6           0       -3.097975   -2.013299   -3.252656
    101          8           0       -3.249389   -3.283450   -3.334098
    102          6           0       -1.842213   -1.358233   -3.646936
    103          7           0       -8.099148   -2.672043   -1.168747
    104          6           0       -7.179476   -3.359962   -1.867964
    105          6           0       -7.531568   -4.826821   -1.936878
    106          6           0       -8.757927   -5.022085   -0.929153
    107          6           0       -8.969512   -3.553460   -0.500476
    108          6           0       -7.919518   -5.353640   -3.318312
    109          6           0       -8.594329   -6.099049    0.178129
    110          6           0       -7.526423   -5.672308    1.159391
    111          7           0       -9.569509   -0.842285    0.571188
    112          6           0      -10.378319   -1.984488    0.759040
    113          6           0      -11.568516   -1.554579    1.521306
    114          6           0      -11.379205   -0.176648    1.705594
    115          6           0      -10.167207    0.227684    1.083446
    116          6           0      -12.657403   -2.387932    1.903344
    117          6           0      -11.934324    1.029745    2.275812
    118          8           0      -12.899615    1.286743    2.994075
    119          6           0      -11.120805    2.274656    1.714778
    120          6           0      -10.775864    3.165803    2.876418
    121          8           0      -10.001741    2.772454    3.766709
    122          8           0      -11.240679    4.405037    2.634335
    123          6           0      -10.913450    5.328288    3.753417
    124          1           0       -5.961122    2.674452   -2.909826
    125          1           0       -5.464987   -3.550531   -2.787540
    126          1           0      -10.734731   -3.959378    0.603227
    127          1           0       -9.648243    4.368781   -0.097609
    128          1           0       -7.193294    4.445787   -1.477587
    129          1           0       -9.976515    3.759258   -2.327593
    130          1           0       -8.694274    2.961136   -3.262020
    131          1           0       -8.720906    4.698131   -3.220008
    132          1           0       -6.784345    4.119565    0.852002
    133          1           0       -8.104821    3.926077    2.061995
    134          1           0       -8.586025    6.325747    0.606815
    135          1           0       -6.865412    6.199297    0.698386
    136          1           0       -3.956271    2.391263   -3.493857
    137          1           0       -3.305345    1.146543   -4.506862
    138          1           0       -2.517494    1.436414   -2.937774
    139          1           0       -2.032098   -0.684704   -4.479260
    140          1           0       -1.131814   -2.168791   -3.820715
    141          1           0       -1.494386   -0.738058   -2.813260
    142          1           0       -6.702603   -5.439542   -1.604486
    143          1           0       -9.672926   -5.330661   -1.455823
    144          1           0       -7.291283   -6.199827   -3.654983
    145          1           0       -7.864566   -4.535045   -4.023589
    146          1           0       -8.955410   -5.673839   -3.416275
    147          1           0       -8.256091   -7.042231   -0.257939
    148          1           0       -9.511819   -6.305095    0.719179
    149          1           0       -6.600341   -5.984590    0.667528
    150          1           0       -7.657466   -6.179897    2.112921
    151          1           0       -7.495672   -4.580948    1.257642
    152          1           0      -12.897410   -2.136452    2.927866
    153          1           0      -12.406927   -3.441668    1.800019
    154          1           0      -13.409699   -2.071597    1.175843
    155          1           0      -11.755995    2.779562    0.985956
    156          1           0      -11.857073    5.767473    4.091610
    157          1           0      -10.149318    6.021819    3.354825
    158          1           0      -10.542693    4.890050    4.672626
 ---------------------------------------------------------------------

 SCF Done:  E(RCAM-B3LYP) =  -4069.81202699     A.U. after   19 cycles

 Excitation energies and oscillator strengths:

 Excited State   1:      Singlet-A      1.6711 eV  741.95 nm  f=0.1743  <S**2>=0.000
     309 -> 315        0.10396
     310 -> 316        0.13840
     311 -> 313        0.41082
     312 -> 314        0.54973
 This state for optimization and/or second-order correction.
 Total Energy, E(TD-HF/TD-DFT) =  -4069.75061692
 Copying the excited state density for this state as the 1-particle RhoCI density.

 Excited State   2:      Singlet-A      1.6845 eV  736.04 nm  f=0.5985  <S**2>=0.000
     309 -> 315        0.14168
     310 -> 316       -0.10534
     311 -> 313        0.54903
     312 -> 314       -0.41044

 Excited State   3:      Singlet-A      2.1871 eV  566.89 nm  f=0.0538  <S**2>=0.000
     309 -> 313       -0.15457
     310 -> 314        0.62373
     312 -> 316       -0.26551

 Excited State   4:      Singlet-A      2.1935 eV  565.23 nm  f=0.1391  <S**2>=0.000
     309 -> 313        0.62188
     310 -> 314        0.15360
     311 -> 315       -0.27065

 Excited State   5:      Singlet-A      2.7647 eV  448.45 nm  f=0.0000  <S**2>=0.000
     312 -> 313        0.70704

 The electronic state is 1-A.
 Alpha  occ. eigenvalues --  -46.87840 -46.87572 -19.26399 -19.26304 -19.19137
 Alpha  occ. eigenvalues --  -19.19109 -19.18831 -19.18579 -19.18236 -19.17974
 Alpha  occ. eigenvalues --  -14.42496 -14.42410 -14.41487 -14.41273 -14.39444
 Alpha  occ. eigenvalues --  -14.39258 -14.38634 -14.38513 -10.39191 -10.39037
 Alpha  occ. eigenvalues --  -10.35463 -10.35249 -10.34458 -10.34154 -10.31809
 Alpha  occ. eigenvalues --  -10.31723 -10.31457 -10.31228 -10.30957 -10.30929
 Alpha  occ. eigenvalues --  -10.30618 -10.30549 -10.30310 -10.30274 -10.30233
 Alpha  occ. eigenvalues --  -10.30046 -10.29958 -10.29817 -10.29672 -10.29336
 Alpha  occ. eigenvalues --  -10.29300 -10.29290 -10.28814 -10.28644 -10.28631
 Alpha  occ. eigenvalues --  -10.28602 -10.28412 -10.28312 -10.28173 -10.28061
 Alpha  occ. eigenvalues --  -10.27907 -10.27838 -10.27770 -10.27622 -10.27577
 Alpha  occ. eigenvalues --  -10.27510 -10.27505 -10.27461 -10.27454 -10.27442
 Alpha  occ. eigenvalues --  -10.27397 -10.27359 -10.27301 -10.27288 -10.27233
 Alpha  occ. eigenvalues --  -10.26980 -10.26790 -10.26627 -10.26409 -10.26284
 Alpha  occ. eigenvalues --  -10.26208 -10.26173 -10.26071 -10.26054 -10.25947
 Alpha  occ. eigenvalues --  -10.25892 -10.25848 -10.25782 -10.25443 -10.25327
 Alpha  occ. eigenvalues --  -10.24882 -10.24824 -10.24783 -10.24665 -10.24665
 Alpha  occ. eigenvalues --  -10.24603  -3.16583  -3.16322  -1.91465  -1.91205
 Alpha  occ. eigenvalues --   -1.91051  -1.90894  -1.90793  -1.90630  -1.16747
 Alpha  occ. eigenvalues --   -1.16596  -1.08699  -1.08586  -1.07231  -1.06894
 Alpha  occ. eigenvalues --   -1.06830  -1.06758  -1.04628  -1.04407  -1.03800
 Alpha  occ. eigenvalues --   -1.03574  -1.03276  -1.02950  -1.02453  -1.02023
 Alpha  occ. eigenvalues --   -0.92027  -0.91904  -0.89544  -0.89413  -0.89247
 Alpha  occ. eigenvalues --   -0.89074  -0.88309  -0.88142  -0.87918  -0.87719
 Alpha  occ. eigenvalues --   -0.87711  -0.87598  -0.87303  -0.86985  -0.85038
 Alpha  occ. eigenvalues --   -0.84918  -0.83957  -0.83801  -0.82984  -0.82799
 Alpha  occ. eigenvalues --   -0.82699  -0.82551  -0.81659  -0.81527  -0.80650
 Alpha  occ. eigenvalues --   -0.80358  -0.78833  -0.78522  -0.77259  -0.77056
 Alpha  occ. eigenvalues --   -0.76992  -0.76827  -0.75983  -0.75758  -0.74928
 Alpha  occ. eigenvalues --   -0.74724  -0.72816  -0.72611  -0.71716  -0.71499
 Alpha  occ. eigenvalues --   -0.69916  -0.69683  -0.68924  -0.68741  -0.67686
 Alpha  occ. eigenvalues --   -0.67512  -0.67275  -0.67104  -0.65346  -0.65194
 Alpha  occ. eigenvalues --   -0.64907  -0.64689  -0.64671  -0.64576  -0.64297
 Alpha  occ. eigenvalues --   -0.64125  -0.62375  -0.62213  -0.60471  -0.60224
 Alpha  occ. eigenvalues --   -0.59858  -0.59713  -0.59032  -0.58910  -0.58551
 Alpha  occ. eigenvalues --   -0.58342  -0.57659  -0.57484  -0.57347  -0.57144
 Alpha  occ. eigenvalues --   -0.56357  -0.56110  -0.56064  -0.55817  -0.55559
 Alpha  occ. eigenvalues --   -0.55382  -0.55346  -0.55175  -0.54578  -0.54420
 Alpha  occ. eigenvalues --   -0.53956  -0.53834  -0.53337  -0.53271  -0.53135
 Alpha  occ. eigenvalues --   -0.53045  -0.52977  -0.52822  -0.52790  -0.52529
 Alpha  occ. eigenvalues --   -0.52446  -0.52327  -0.51965  -0.51810  -0.51672
 Alpha  occ. eigenvalues --   -0.51562  -0.51246  -0.51123  -0.50589  -0.50323
 Alpha  occ. eigenvalues --   -0.50050  -0.49950  -0.49875  -0.49775  -0.49561
 Alpha  occ. eigenvalues --   -0.49377  -0.49266  -0.49153  -0.49105  -0.49026
 Alpha  occ. eigenvalues --   -0.48655  -0.48497  -0.48480  -0.48478  -0.48300
 Alpha  occ. eigenvalues --   -0.48214  -0.47737  -0.47498  -0.47336  -0.47013
 Alpha  occ. eigenvalues --   -0.46837  -0.46627  -0.46615  -0.46469  -0.46402
 Alpha  occ. eigenvalues --   -0.46209  -0.46178  -0.46008  -0.45888  -0.45754
 Alpha  occ. eigenvalues --   -0.45226  -0.45129  -0.44637  -0.44541  -0.44436
 Alpha  occ. eigenvalues --   -0.44389  -0.44181  -0.44136  -0.44067  -0.44043
 Alpha  occ. eigenvalues --   -0.43988  -0.43820  -0.43564  -0.43488  -0.43430
 Alpha  occ. eigenvalues --   -0.43305  -0.43073  -0.42864  -0.42823  -0.42788
 Alpha  occ. eigenvalues --   -0.42679  -0.42466  -0.42044  -0.41890  -0.41753
 Alpha  occ. eigenvalues --   -0.41588  -0.41587  -0.41380  -0.41186  -0.40915
 Alpha  occ. eigenvalues --   -0.40907  -0.40850  -0.40634  -0.40597  -0.40586
 Alpha  occ. eigenvalues --   -0.40418  -0.40301  -0.40141  -0.39445  -0.39352
 Alpha  occ. eigenvalues --   -0.38496  -0.38274  -0.37815  -0.37582  -0.37350
 Alpha  occ. eigenvalues --   -0.37322  -0.37186  -0.37115  -0.36799  -0.36715
 Alpha  occ. eigenvalues --   -0.36249  -0.36144  -0.34331  -0.34168  -0.33875
 Alpha  occ. eigenvalues --   -0.33804  -0.33234  -0.33089  -0.31362  -0.31142
 Alpha  occ. eigenvalues --   -0.31079  -0.30883  -0.30097  -0.29882  -0.29488
 Alpha  occ. eigenvalues --   -0.29369  -0.29223  -0.29121  -0.24125  -0.23950
 Alpha  occ. eigenvalues --   -0.21169  -0.21026
 Alpha virt. eigenvalues --   -0.08816  -0.08697  -0.01788  -0.01593  -0.00094
 Alpha virt. eigenvalues --    0.00083   0.02149   0.02291   0.03063   0.03308
 Alpha virt. eigenvalues --    0.04665   0.04808   0.04994   0.05222   0.06101

 Mulliken charges:
               1
     1  Mg   0.838366
     2  C   -0.003334
     3  C   -0.094189
     4  C   -0.045639
     5  C   -0.063788
     6  N   -0.256813
     7  C   -0.052621
     8  C   -0.013994
     9  C   -0.087009
    10  C    0.046290
    11  C    0.104776
    12  C    0.053496
    13  C   -0.071645
    14  H    0.035356
    15  N   -0.433201
    16  C    0.168496
    17  C   -0.177050
    18  C   -0.003783
    19  C    0.148744
    20  C    0.110136
    21  C    0.012498
    22  O   -0.249246
    23  C    0.062382
    24  N   -0.341133
    25  C    0.041320
    26  C   -0.028265
    27  C   -0.023996
    28  C    0.074823
    29  C    0.076122
    30  C    0.035054
    31  C   -0.004601
    32  N   -0.310343
    33  C    0.080138
    34  C   -0.169908
    35  C    0.008150
    36  C    0.082681
    37  C    0.127390
    38  C    0.045729
    39  O   -0.188921
    40  C   -0.005186
    41  C    0.212929
    42  O   -0.258013
    43  O   -0.304523
    44  C    0.157934
    45  H   -0.017477
    46  H   -0.016493
    47  H   -0.041342
    48  H    0.000878
    49  H   -0.004011
    50  H    0.025471
    51  H    0.016614
    52  H    0.016765
    53  H    0.011237
    54  H    0.043491
    55  H    0.018071
    56  H    0.018191
    57  H    0.005862
    58  H    0.027046
    59  H    0.039849
    60  H    0.037348
    61  H    0.036062
    62  H    0.031680
    63  H    0.016941
    64  H    0.009487
    65  H    0.023478
    66  H    0.012476
    67  H    0.004823
    68  H    0.006702
    69  H    0.004725
    70  H    0.009205
    71  H    0.018861
    72  H    0.028371
    73  H    0.047132
    74  H    0.009324
    75  H    0.046063
    76  H    0.035249
    77  H    0.042963
    78  H    0.046515
    79  H    0.052835
    80  Mg   0.837659
    81  C   -0.016911
    82  C   -0.087604
    83  C   -0.045513
    84  C   -0.064910
    85  N   -0.254555
    86  C   -0.050056
    87  C   -0.015090
    88  C   -0.090514
    89  C    0.045710
    90  C    0.114357
    91  C    0.062510
    92  C   -0.077740
    93  H    0.034317
    94  N   -0.423590
    95  C    0.162947
    96  C   -0.174299
    97  C   -0.007560
    98  C    0.152141
    99  C    0.099161
   100  C    0.015572
   101  O   -0.253520
   102  C    0.061318
   103  N   -0.350044
   104  C    0.037589
   105  C   -0.019852
   106  C   -0.034712
   107  C    0.088724
   108  C    0.073705
   109  C    0.034796
   110  C   -0.007640
   111  N   -0.324020
   112  C    0.078155
   113  C   -0.163385
   114  C    0.002073
   115  C    0.096010
   116  C    0.131545
   117  C    0.042160
   118  O   -0.188383
   119  C    0.000983
   120  C    0.211199
   121  O   -0.251179
   122  O   -0.305593
   123  C    0.152131
   124  H   -0.019275
   125  H   -0.015541
   126  H   -0.040736
   127  H   -0.000842
   128  H   -0.004164
   129  H    0.022308
   130  H    0.014535
   131  H    0.016345
   132  H    0.014069
   133  H    0.037480
   134  H    0.020734
   135  H    0.019730
   136  H    0.008839
   137  H    0.026814
   138  H    0.041560
   139  H    0.038989
   140  H    0.036617
   141  H    0.034901
   142  H    0.014391
   143  H    0.012225
   144  H    0.025063
   145  H    0.011727
   146  H    0.005523
   147  H    0.006104
   148  H    0.003464
   149  H    0.010983
   150  H    0.017722
   151  H    0.030173
   152  H    0.045706
   153  H    0.008330
   154  H    0.046717
   155  H    0.034871
   156  H    0.043721
   157  H    0.049453
   158  H    0.053368
 Sum of Mulliken charges =  -0.00000

 Dipole moment (field-independent basis, Debye):
    X=              3.8886    Y=              3.0339    Z=              0.8250  Tot=              5.0006
 Quadrupole moment (field-independent basis, Debye-Ang):
   XX=           -531.1408   YY=           -464.9661   ZZ=           -523.1299
   XY=             10.7997   XZ=             70.5175   YZ=             22.9488

 Normal termination of Gaussian 16 at Sat Sep 11 19:57:29 2021.
