 Gaussian 16, Revision A.03,
 Gaussian 16:  ES64L-G16RevA.03 25-Dec-2016

 -----------------------------------
 #p cam-b3lyp/Def2SVP td=(nstates=5)
 -----------------------------------

 --------------------------------
 TDDFT excited states in gaussian
 --------------------------------
 Symbolic Z-matrix:
 Charge =  0 Multiplicity = 1

                         Standard orientation:
 ---------------------------------------------------------------------
 Center     Atomic      Atomic             Coordinates (Angstroms)
 Number     Number       Type             X           Y           Z
 ---------------------------------------------------------------------
      1         12           0       -4.428434   -0.547209    0.423193
      2          6           0       -4.502349    2.990281   -0.118024
      3          6           0       -5.579983   -0.909502   -2.768318
      4          6           0       -4.803777   -3.638042    1.025260
      5          6           0       -4.384879    0.125605    3.842416
      6          7           0       -4.936852    0.928917   -1.146269
      7          6           0       -4.863923    2.252408   -1.247382
      8          6           0       -5.134873    2.777761   -2.688897
      9          6           0       -5.995083    1.555791   -3.244620
     10          6           0       -5.447510    0.450578   -2.358849
     11          6           0       -7.491634    1.696641   -2.985782
     12          6           0       -3.815264    2.969543   -3.509618
     13          6           0       -3.960643    3.780842   -4.800359
     14          1           0       -2.869894    4.655014   -5.204634
     15          7           0       -4.621608   -2.078467   -0.810007
     16          6           0       -5.092145   -2.041267   -2.079848
     17          6           0       -5.039348   -3.433638   -2.575022
     18          6           0       -4.678745   -4.311422   -1.427175
     19          6           0       -4.713053   -3.368763   -0.338325
     20          6           0       -5.266858   -3.806572   -4.007820
     21          6           0       -4.364913   -5.770660   -1.325857
     22          8           0       -4.305364   -6.377136   -0.201929
     23          6           0       -4.214275   -6.500084   -2.597978
     24          7           0       -4.795813   -1.617908    2.177123
     25          6           0       -4.856183   -2.954056    2.170101
     26          6           0       -4.843818   -3.508516    3.563787
     27          6           0       -4.515963   -2.277425    4.526430
     28          6           0       -4.475549   -1.151378    3.464049
     29          6           0       -6.141124   -4.186329    4.025933
     30          6           0       -3.306045   -2.434273    5.481373
     31          6           0       -2.023584   -2.481863    4.681294
     32          7           0       -4.262494    1.221954    1.669617
     33          6           0       -4.289409    1.271667    3.070858
     34          6           0       -4.253856    2.695214    3.453376
     35          6           0       -4.225276    3.379684    2.239898
     36          6           0       -4.268421    2.443916    1.167159
     37          6           0       -4.309154    3.202924    4.781385
     38          6           0       -4.193193    4.684763    1.599902
     39          8           0       -4.055332    5.842471    1.997645
     40          6           0       -4.494236    4.489539    0.048423
     41          6           0       -3.465315    5.276405   -0.716739
     42          8           0       -2.262033    4.946174   -0.696093
     43          8           0       -4.084858    6.140867   -1.534917
     44          6           0       -3.121187    6.932797   -2.345065
     45          1           0       -6.159607   -1.136644   -3.665192
     46          1           0       -4.823165   -4.699799    1.279689
     47          1           0       -4.283511    0.409238    4.891573
     48          1           0       -5.719907    3.696456   -2.735343
     49          1           0       -5.775544    1.346307   -4.291349
     50          1           0       -7.706594    2.553231   -2.347058
     51          1           0       -7.790391    0.770641   -2.494089
     52          1           0       -8.045623    1.729808   -3.924277
     53          1           0       -3.508918    2.010335   -3.926910
     54          1           0       -3.036581    3.415052   -2.889537
     55          1           0       -4.910128    4.316114   -4.829873
     56          1           0       -4.016159    3.084415   -5.637084
     57          1           0       -5.674318   -2.973160   -4.578738
     58          1           0       -6.057555   -4.556479   -4.019949
     59          1           0       -4.368652   -4.211844   -4.473988
     60          1           0       -5.136277   -6.414264   -3.173389
     61          1           0       -3.903888   -7.509607   -2.330822
     62          1           0       -3.436633   -6.018254   -3.191326
     63          1           0       -4.069365   -4.266122    3.676391
     64          1           0       -5.349296   -2.043334    5.189327
     65          1           0       -6.004804   -5.218808    4.348590
     66          1           0       -6.862869   -4.123002    3.212074
     67          1           0       -6.669106   -3.666219    4.824768
     68          1           0       -3.376065   -3.372213    6.031203
     69          1           0       -3.225691   -1.627746    6.210282
     70          1           0       -1.960990   -3.527982    4.383723
     71          1           0       -1.174770   -2.202267    5.306236
     72          1           0       -2.100438   -1.887994    3.770306
     73          1           0       -3.564528    3.997002    4.835613
     74          1           0       -4.108097    2.420714    5.513045
     75          1           0       -5.339602    3.555838    4.819900
     76          1           0       -5.504280    4.859975   -0.123943
     77          1           0       -3.336550    7.985487   -2.161496
     78          1           0       -3.206195    6.570123   -3.369587
     79          1           0       -2.075980    6.880042   -2.038312
     80         12           0        4.535350   -0.980397   -0.298921
     81          6           0        4.578123    2.458142    0.727575
     82          6           0        3.463359    0.099562   -3.351647
     83          6           0        4.055502   -4.014567   -1.093274
     84          6           0        4.494371   -1.843372    3.077365
     85          7           0        4.113233    1.042154   -1.088445
     86          6           0        4.224448    2.278311   -0.625942
     87          6           0        4.018899    3.385635   -1.694186
     88          6           0        3.131553    2.549633   -2.739461
     89          6           0        3.619600    1.141956   -2.403427
     90          6           0        1.640588    2.619101   -2.453918
     91          6           0        5.371467    3.855641   -2.335802
     92          6           0        5.280135    5.143101   -3.157909
     93          1           0        6.413088    6.064211   -3.136853
     94          7           0        4.335403   -1.824451   -2.083897
     95          6           0        3.909126   -1.233975   -3.220079
     96          6           0        3.920941   -2.285475   -4.248859
     97          6           0        4.231413   -3.583124   -3.589739
     98          6           0        4.198249   -3.185705   -2.196520
     99          6           0        3.732263   -1.996632   -5.709813
    100          6           0        4.499537   -4.957377   -4.124265
    101          8           0        4.511190   -5.986552   -3.360396
    102          6           0        4.655437   -5.075151   -5.581430
    103          7           0        4.094432   -2.677545    0.818060
    104          6           0        3.989038   -3.882949    0.231712
    105          6           0        3.942547   -4.987658    1.260231
    106          6           0        4.283512   -4.288388    2.657492
    107          6           0        4.384841   -2.820550    2.187820
    108          6           0        2.613387   -5.733579    1.375680
    109          6           0        5.461579   -4.885996    3.474608
    110          6           0        6.766089   -4.648828    2.748377
    111          7           0        4.721149    0.073256    1.578144
    112          6           0        4.649602   -0.477770    2.876344
    113          6           0        4.716301    0.647483    3.831213
    114          6           0        4.799500    1.785901    3.015382
    115          6           0        4.765276    1.398997    1.648401
    116          6           0        4.648387    0.540571    5.248983
    117          6           0        4.897775    3.227705    2.999712
    118          8           0        5.050782    4.097335    3.856484
    119          6           0        4.631385    3.736307    1.517565
    120          6           0        5.703657    4.731668    1.168283
    121          8           0        6.891259    4.374629    1.074797
    122          8           0        5.126410    5.887042    0.791110
    123          6           0        6.149236    6.902441    0.424222
    124          1           0        2.909854    0.309749   -4.267244
    125          1           0        3.997962   -5.083574   -1.310959
    126          1           0        4.586104   -2.036468    4.148338
    127          1           0        3.468617    4.252872   -1.349415
    128          1           0        3.383637    2.805877   -3.765210
    129          1           0        1.431856    3.124276   -1.522594
    130          1           0        1.300994    1.592473   -2.411843
    131          1           0        1.115975    3.075719   -3.298075
    132          1           0        5.658105    3.148714   -3.125011
    133          1           0        6.132925    3.958116   -1.587271
    134          1           0        4.342738    5.682676   -2.976018
    135          1           0        5.234757    4.876340   -4.216580
    136          1           0        3.359028   -0.978164   -5.873568
    137          1           0        2.920857   -2.643080   -6.061380
    138          1           0        4.628493   -2.202293   -6.299008
    139          1           0        3.755344   -4.711628   -6.071468
    140          1           0        4.929418   -6.116263   -5.762812
    141          1           0        5.473723   -4.419683   -5.899830
    142          1           0        4.692048   -5.741394    1.052336
    143          1           0        3.434726   -4.337135    3.355372
    144          1           0        2.710593   -6.824939    1.222191
    145          1           0        1.920670   -5.309284    0.661082
    146          1           0        2.086559   -5.595255    2.318294
    147          1           0        5.348969   -5.969219    3.564643
    148          1           0        5.536961   -4.485384    4.480007
    149          1           0        6.800429   -5.471387    2.027743
    150          1           0        7.604069   -4.695579    3.440939
    151          1           0        6.734921   -3.712706    2.178849
    152          1           0        5.406703    1.201224    5.647719
    153          1           0        4.800723   -0.485229    5.578076
    154          1           0        3.623154    0.878942    5.421213
    155          1           0        3.636429    4.182702    1.498251
    156          1           0        5.956509    7.786801    1.039400
    157          1           0        6.069173    7.024438   -0.672345
    158          1           0        7.180955    6.688971    0.678076
 ---------------------------------------------------------------------

 SCF Done:  E(RCAM-B3LYP) =  -4069.81193300     A.U. after   19 cycles

 Excitation energies and oscillator strengths:

 Excited State   1:      Singlet-A      1.6496 eV  751.58 nm  f=0.0296  <S**2>=0.000
     309 -> 315       -0.11208
     310 -> 316        0.12383
     311 -> 313       -0.45843
     312 -> 314        0.51247
 This state for optimization and/or second-order correction.
 Total Energy, E(TD-HF/TD-DFT) =  -4069.75130989
 Copying the excited state density for this state as the 1-particle RhoCI density.

 Excited State   2:      Singlet-A      1.7006 eV  729.07 nm  f=0.6675  <S**2>=0.000
     309 -> 315        0.13532
     310 -> 316        0.11910
     311 -> 313        0.50996
     312 -> 314        0.45620

 Excited State   3:      Singlet-A      2.1795 eV  568.86 nm  f=0.0297  <S**2>=0.000
     309 -> 313       -0.27491
     310 -> 314        0.58371
     311 -> 315        0.11316
     312 -> 316       -0.24139

 Excited State   4:      Singlet-A      2.1968 eV  564.38 nm  f=0.1475  <S**2>=0.000
     309 -> 313        0.57845
     310 -> 314        0.27047
     311 -> 315       -0.25559
     312 -> 316       -0.12059

 Excited State   5:      Singlet-A      2.3399 eV  529.86 nm  f=0.0000  <S**2>=0.000
     312 -> 313        0.70709

 The electronic state is 1-A.
 Alpha  occ. eigenvalues --  -46.87914 -46.87412 -19.26531 -19.26009 -19.19283
 Alpha  occ. eigenvalues --  -19.18878 -19.18846 -19.18557 -19.18278 -19.17763
 Alpha  occ. eigenvalues --  -14.42581 -14.42224 -14.41565 -14.41113 -14.39514
 Alpha  occ. eigenvalues --  -14.39115 -14.38700 -14.38348 -10.39326 -10.38767
 Alpha  occ. eigenvalues --  -10.35509 -10.35242 -10.34506 -10.33929 -10.31952
 Alpha  occ. eigenvalues --  -10.31542 -10.31445 -10.31055 -10.31011 -10.30742
 Alpha  occ. eigenvalues --  -10.30687 -10.30611 -10.30312 -10.30161 -10.30109
 Alpha  occ. eigenvalues --  -10.30027 -10.29928 -10.29732 -10.29650 -10.29356
 Alpha  occ. eigenvalues --  -10.29217 -10.29178 -10.28960 -10.28881 -10.28484
 Alpha  occ. eigenvalues --  -10.28389 -10.28330 -10.28297 -10.28147 -10.27892
 Alpha  occ. eigenvalues --  -10.27853 -10.27765 -10.27721 -10.27683 -10.27600
 Alpha  occ. eigenvalues --  -10.27589 -10.27548 -10.27536 -10.27412 -10.27351
 Alpha  occ. eigenvalues --  -10.27321 -10.27316 -10.27254 -10.27210 -10.27155
 Alpha  occ. eigenvalues --  -10.27010 -10.26689 -10.26434 -10.26393 -10.26387
 Alpha  occ. eigenvalues --  -10.26330 -10.26287 -10.26125 -10.25976 -10.25882
 Alpha  occ. eigenvalues --  -10.25708 -10.25657 -10.25520 -10.25365 -10.25147
 Alpha  occ. eigenvalues --  -10.24935 -10.24899 -10.24810 -10.24626 -10.24576
 Alpha  occ. eigenvalues --  -10.24447  -3.16657  -3.16162  -1.91538  -1.91125
 Alpha  occ. eigenvalues --   -1.91044  -1.90967  -1.90632  -1.90470  -1.16880
 Alpha  occ. eigenvalues --   -1.16309  -1.08743  -1.08360  -1.07276  -1.06892
 Alpha  occ. eigenvalues --   -1.06815  -1.06629  -1.04714  -1.04218  -1.03877
 Alpha  occ. eigenvalues --   -1.03411  -1.03344  -1.02800  -1.02524  -1.01863
 Alpha  occ. eigenvalues --   -0.92104  -0.91702  -0.89631  -0.89380  -0.89270
 Alpha  occ. eigenvalues --   -0.88776  -0.88397  -0.87997  -0.87960  -0.87813
 Alpha  occ. eigenvalues --   -0.87563  -0.87422  -0.87365  -0.86947  -0.85161
 Alpha  occ. eigenvalues --   -0.84688  -0.84051  -0.83656  -0.83048  -0.82803
 Alpha  occ. eigenvalues --   -0.82777  -0.82361  -0.81759  -0.81314  -0.80737
 Alpha  occ. eigenvalues --   -0.80181  -0.78895  -0.78431  -0.77357  -0.77111
 Alpha  occ. eigenvalues --   -0.76888  -0.76593  -0.76084  -0.75499  -0.75016
 Alpha  occ. eigenvalues --   -0.74548  -0.72884  -0.72454  -0.71802  -0.71279
 Alpha  occ. eigenvalues --   -0.70018  -0.69550  -0.69035  -0.68532  -0.67766
 Alpha  occ. eigenvalues --   -0.67403  -0.67362  -0.66951  -0.65465  -0.64996
 Alpha  occ. eigenvalues --   -0.64956  -0.64773  -0.64510  -0.64385  -0.64370
 Alpha  occ. eigenvalues --   -0.63972  -0.62480  -0.61992  -0.60538  -0.60142
 Alpha  occ. eigenvalues --   -0.59965  -0.59470  -0.59114  -0.58734  -0.58632
 Alpha  occ. eigenvalues --   -0.58165  -0.57747  -0.57427  -0.57251  -0.56999
 Alpha  occ. eigenvalues --   -0.56428  -0.56182  -0.55970  -0.55630  -0.55596
 Alpha  occ. eigenvalues --   -0.55476  -0.55218  -0.54999  -0.54685  -0.54227
 Alpha  occ. eigenvalues --   -0.54088  -0.53563  -0.53411  -0.53367  -0.53085
 Alpha  occ. eigenvalues --   -0.53007  -0.52879  -0.52870  -0.52642  -0.52553
 Alpha  occ. eigenvalues --   -0.52437  -0.52208  -0.51993  -0.51785  -0.51665
 Alpha  occ. eigenvalues --   -0.51374  -0.51330  -0.50938  -0.50653  -0.50324
 Alpha  occ. eigenvalues --   -0.50147  -0.50030  -0.49724  -0.49652  -0.49642
 Alpha  occ. eigenvalues --   -0.49345  -0.49252  -0.49222  -0.48934  -0.48748
 Alpha  occ. eigenvalues --   -0.48726  -0.48577  -0.48540  -0.48261  -0.48160
 Alpha  occ. eigenvalues --   -0.48112  -0.47831  -0.47417  -0.47331  -0.46929
 Alpha  occ. eigenvalues --   -0.46899  -0.46739  -0.46479  -0.46453  -0.46286
 Alpha  occ. eigenvalues --   -0.46239  -0.46044  -0.45964  -0.45835  -0.45537
 Alpha  occ. eigenvalues --   -0.45312  -0.44960  -0.44712  -0.44640  -0.44265
 Alpha  occ. eigenvalues --   -0.44255  -0.44244  -0.44202  -0.44140  -0.43868
 Alpha  occ. eigenvalues --   -0.43790  -0.43696  -0.43654  -0.43534  -0.43267
 Alpha  occ. eigenvalues --   -0.43155  -0.43094  -0.42901  -0.42780  -0.42650
 Alpha  occ. eigenvalues --   -0.42606  -0.42344  -0.42153  -0.41836  -0.41720
 Alpha  occ. eigenvalues --   -0.41711  -0.41384  -0.41275  -0.41171  -0.41039
 Alpha  occ. eigenvalues --   -0.40934  -0.40692  -0.40684  -0.40527  -0.40465
 Alpha  occ. eigenvalues --   -0.40418  -0.40224  -0.39933  -0.39557  -0.39230
 Alpha  occ. eigenvalues --   -0.38600  -0.38107  -0.37980  -0.37441  -0.37430
 Alpha  occ. eigenvalues --   -0.37377  -0.37023  -0.36921  -0.36909  -0.36475
 Alpha  occ. eigenvalues --   -0.36353  -0.35949  -0.34407  -0.34005  -0.33995
 Alpha  occ. eigenvalues --   -0.33560  -0.33310  -0.32927  -0.31413  -0.31158
 Alpha  occ. eigenvalues --   -0.31113  -0.30709  -0.30142  -0.29659  -0.29546
 Alpha  occ. eigenvalues --   -0.29422  -0.29118  -0.28967  -0.24203  -0.23778
 Alpha  occ. eigenvalues --   -0.21242  -0.20868
 Alpha virt. eigenvalues --   -0.08883  -0.08554  -0.01862  -0.01443  -0.00159
 Alpha virt. eigenvalues --    0.00193   0.02094   0.02456   0.02839   0.03514
 Alpha virt. eigenvalues --    0.04535   0.04842   0.05026   0.05485   0.05867

 Mulliken charges:
               1
     1  Mg   0.838668
     2  C   -0.003819
     3  C   -0.094911
     4  C   -0.045532
     5  C   -0.063467
     6  N   -0.256703
     7  C   -0.053014
     8  C   -0.013861
     9  C   -0.086890
    10  C    0.045948
    11  C    0.104756
    12  C    0.053385
    13  C   -0.070993
    14  H    0.032999
    15  N   -0.433218
    16  C    0.168432
    17  C   -0.177217
    18  C   -0.003434
    19  C    0.148786
    20  C    0.110198
    21  C    0.012991
    22  O   -0.249358
    23  C    0.062256
    24  N   -0.340994
    25  C    0.041204
    26  C   -0.028225
    27  C   -0.023989
    28  C    0.074670
    29  C    0.076088
    30  C    0.035087
    31  C   -0.004449
    32  N   -0.310551
    33  C    0.080388
    34  C   -0.168880
    35  C    0.008605
    36  C    0.082849
    37  C    0.127110
    38  C    0.046183
    39  O   -0.187713
    40  C   -0.005582
    41  C    0.213764
    42  O   -0.259337
    43  O   -0.304192
    44  C    0.157831
    45  H   -0.017675
    46  H   -0.016563
    47  H   -0.040931
    48  H    0.001173
    49  H   -0.004690
    50  H    0.025710
    51  H    0.016943
    52  H    0.016714
    53  H    0.010135
    54  H    0.042785
    55  H    0.019190
    56  H    0.017808
    57  H    0.005300
    58  H    0.027201
    59  H    0.039401
    60  H    0.036981
    61  H    0.036633
    62  H    0.032170
    63  H    0.016401
    64  H    0.009816
    65  H    0.023370
    66  H    0.012677
    67  H    0.005005
    68  H    0.006284
    69  H    0.005288
    70  H    0.007850
    71  H    0.017557
    72  H    0.029849
    73  H    0.048879
    74  H    0.009530
    75  H    0.046105
    76  H    0.035485
    77  H    0.044009
    78  H    0.045797
    79  H    0.052256
    80  Mg   0.837430
    81  C   -0.016297
    82  C   -0.088032
    83  C   -0.046199
    84  C   -0.065640
    85  N   -0.254935
    86  C   -0.047716
    87  C   -0.015439
    88  C   -0.091375
    89  C    0.046602
    90  C    0.113899
    91  C    0.062528
    92  C   -0.077224
    93  H    0.033468
    94  N   -0.423366
    95  C    0.162909
    96  C   -0.175761
    97  C   -0.008628
    98  C    0.152043
    99  C    0.100059
   100  C    0.014693
   101  O   -0.253666
   102  C    0.061520
   103  N   -0.350190
   104  C    0.037559
   105  C   -0.019794
   106  C   -0.034576
   107  C    0.089286
   108  C    0.073663
   109  C    0.034843
   110  C   -0.007544
   111  N   -0.324327
   112  C    0.079115
   113  C   -0.163460
   114  C    0.003193
   115  C    0.096030
   116  C    0.131281
   117  C    0.042963
   118  O   -0.187324
   119  C    0.000458
   120  C    0.210690
   121  O   -0.252151
   122  O   -0.304081
   123  C    0.152481
   124  H   -0.020895
   125  H   -0.016178
   126  H   -0.041414
   127  H    0.003241
   128  H   -0.006661
   129  H    0.035479
   130  H    0.011490
   131  H    0.014568
   132  H    0.012843
   133  H    0.037153
   134  H    0.021736
   135  H    0.018366
   136  H    0.008153
   137  H    0.023835
   138  H    0.039103
   139  H    0.036883
   140  H    0.035682
   141  H    0.033867
   142  H    0.013793
   143  H    0.011845
   144  H    0.025021
   145  H    0.012599
   146  H    0.005743
   147  H    0.005911
   148  H    0.003035
   149  H    0.010765
   150  H    0.017398
   151  H    0.030374
   152  H    0.045817
   153  H    0.007618
   154  H    0.047002
   155  H    0.040785
   156  H    0.044072
   157  H    0.049042
   158  H    0.052631
 Sum of Mulliken charges =  -0.00000

 Dipole moment (field-independent basis, Debye):
    X=             -4.9599    Y=             -1.8325    Z=             -6.8244  Tot=              8.6332
 Quadrupole moment (field-independent basis, Debye-Ang):
   XX=           -518.4842   YY=           -545.7299   ZZ=           -454.3319
   XY=             -0.9916   XZ=              1.0206   YZ=            -43.9773

 Normal termination of Gaussian 16 at Fri Sep  3 21:43:07 2021.
