 Gaussian 16, Revision A.03,
 Gaussian 16:  ES64L-G16RevA.03 25-Dec-2016

 -----------------------------------
 #p cam-b3lyp/Def2SVP td=(nstates=5)
 -----------------------------------

 --------------------------------
 TDDFT excited states in gaussian
 --------------------------------
 Symbolic Z-matrix:
 Charge =  0 Multiplicity = 1

                         Standard orientation:
 ---------------------------------------------------------------------
 Center     Atomic      Atomic             Coordinates (Angstroms)
 Number     Number       Type             X           Y           Z
 ---------------------------------------------------------------------
      1         12           0       -3.249388   -2.120704    0.292496
      2          6           0       -5.370205    0.689987   -0.351216
      3          6           0       -3.782363   -3.074345   -2.940083
      4          6           0       -1.757522   -4.837728    0.962372
      5          6           0       -3.804181   -1.574098    3.689420
      6          7           0       -4.443121   -1.222134   -1.340972
      7          6           0       -5.161363   -0.111658   -1.475670
      8          6           0       -5.609041    0.160400   -2.942961
      9          6           0       -5.547307   -1.330164   -3.505459
     10          6           0       -4.503007   -1.902334   -2.563130
     11          6           0       -6.849086   -2.104146   -3.324279
     12          6           0       -4.614748    1.101249   -3.703168
     13          6           0       -5.138954    1.677153   -5.021840
     14          1           0       -4.755661    3.029893   -5.396712
     15          7           0       -2.430105   -3.461445   -0.905017
     16          6           0       -2.759340   -3.702037   -2.196917
     17          6           0       -1.865742   -4.789865   -2.649456
     18          6           0       -1.121053   -5.291056   -1.461037
     19          6           0       -1.767195   -4.558451   -0.402185
     20          6           0       -1.747800   -5.216126   -4.080589
     21          6           0       -0.011410   -6.281998   -1.303371
     22          8           0        0.332000   -6.742584   -0.161222
     23          6           0        0.612521   -6.772736   -2.545518
     24          7           0       -3.010313   -3.212100    2.055826
     25          6           0       -2.268412   -4.324665    2.083534
     26          6           0       -2.008866   -4.772950    3.491232
     27          6           0       -2.527116   -3.592711    4.433678
     28          6           0       -3.100789   -2.654587    3.343223
     29          6           0       -2.677688   -6.090068    3.908232
     30          6           0       -1.514626   -3.008903    5.450758
     31          6           0       -0.409835   -2.283095    4.716090
     32          7           0       -4.231997   -0.604426    1.495171
     33          6           0       -4.361727   -0.589076    2.891455
     34          6           0       -5.196358    0.576883    3.234964
     35          6           0       -5.509959    1.153059    2.005525
     36          6           0       -4.931107    0.380059    0.958771
     37          6           0       -5.615626    0.945017    4.543829
     38          6           0       -6.219915    2.227895    1.331325
     39          8           0       -6.815902    3.240067    1.702540
     40          6           0       -6.259546    1.902078   -0.226911
     41          6           0       -5.854105    3.150117   -0.962660
     42          8           0       -4.691969    3.596114   -0.873821
     43          8           0       -6.817741    3.485225   -1.834238
     44          6           0       -6.465262    4.699003   -2.618238
     45          1           0       -4.063993   -3.594895   -3.857500
     46          1           0       -1.159581   -5.706526    1.245383
     47          1           0       -3.949258   -1.292075    4.733866
     48          1           0       -6.620318    0.554808   -3.043880
     49          1           0       -5.188046   -1.362483   -4.533860
     50          1           0       -7.564391   -1.545023   -2.721253
     51          1           0       -6.569491   -3.030389   -2.821890
     52          1           0       -7.261678   -2.399464   -4.289334
     53          1           0       -3.777678    0.512128   -4.077748
     54          1           0       -4.286556    1.917360   -3.058513
     55          1           0       -6.217658    1.546698   -5.112888
     56          1           0       -4.724830    1.088248   -5.840310
     57          1           0       -2.536341   -4.782050   -4.694043
     58          1           0       -1.939800   -6.288489   -4.110269
     59          1           0       -0.759386   -5.008145   -4.490608
     60          1           0       -0.147655   -7.245738   -3.167572
     61          1           0        1.444161   -7.404307   -2.235127
     62          1           0        0.986533   -5.920362   -3.113429
     63          1           0       -0.944171   -4.925817    3.662935
     64          1           0       -3.373165   -3.901488    5.048114
     65          1           0       -1.975626   -6.843527    4.266160
     66          1           0       -3.250071   -6.461162    3.058551
     67          1           0       -3.454845   -5.988428    4.665275
     68          1           0       -1.047220   -3.809733    6.022727
     69          1           0       -1.967816   -2.315883    6.159696
     70          1           0        0.275808   -3.087301    4.451555
     71          1           0        0.072609   -1.559220    5.373709
     72          1           0       -0.771669   -1.844248    3.786050
     73          1           0       -5.489172    2.025445    4.612039
     74          1           0       -5.032436    0.429021    5.306220
     75          1           0       -6.655454    0.619238    4.521879
     76          1           0       -7.281478    1.603821   -0.458900
     77          1           0       -7.271290    5.418788   -2.475188
     78          1           0       -6.261670    4.362807   -3.635060
     79          1           0       -5.610434    5.273268   -2.259313
     80         12           0        3.380793    2.250907    0.066397
     81          6           0        5.073524   -0.742169   -0.960850
     82          6           0        3.301161    0.946166    3.216934
     83          6           0        1.498573    4.661859    0.910173
     84          6           0        2.588796    2.787253   -3.284845
     85          7           0        4.124799    0.340229    0.895868
     86          6           0        4.806521   -0.692345    0.423226
     87          6           0        5.295446   -1.690553    1.506776
     88          6           0        4.208653   -1.363541    2.642919
     89          6           0        3.877012    0.076431    2.256691
     90          6           0        2.942129   -2.194469    2.521227
     91          6           0        6.751996   -1.374336    1.997152
     92          6           0        7.407306   -2.483166    2.823478
     93          1           0        8.843734   -2.702719    2.678710
     94          7           0        2.947247    2.973781    1.863073
     95          6           0        2.990343    2.312137    3.038508
     96          6           0        2.561145    3.279277    4.060564
     97          6           0        2.103375    4.516860    3.372409
     98          6           0        2.146718    4.081639    1.990813
     99          6           0        2.684217    3.015373    5.533190
    100          6           0        1.682453    5.864423    3.875474
    101          8           0        1.096129    6.713858    3.115522
    102          6           0        1.892612    6.124753    5.307104
    103          7           0        2.033806    3.426326   -0.994900
    104          6           0        1.384361    4.442195   -0.399796
    105          6           0        0.684944    5.312622   -1.416451
    106          6           0        1.201724    4.807054   -2.842965
    107          6           0        2.080617    3.621315   -2.388029
    108          6           0       -0.842795    5.274541   -1.386140
    109          6           0        1.827894    5.873304   -3.782999
    110          6           0        3.132622    6.370136   -3.203154
    111          7           0        3.900421    1.335472   -1.820409
    112          6           0        3.436456    1.702031   -3.102772
    113          6           0        3.977333    0.715276   -4.059946
    114          6           0        4.705345   -0.177227   -3.258727
    115          6           0        4.607277    0.213365   -1.895896
    116          6           0        3.731603    0.695022   -5.461845
    117          6           0        5.525725   -1.367039   -3.254766
    118          8           0        6.019348   -2.084743   -4.123657
    119          6           0        5.696335   -1.858225   -1.752761
    120          6           0        7.153482   -2.152091   -1.522845
    121          8           0        7.995955   -1.237997   -1.558882
    122          8           0        7.284106   -3.417932   -1.085854
    123          6           0        8.710848   -3.753104   -0.833062
    124          1           0        3.020913    0.535120    4.187187
    125          1           0        0.924942    5.564393    1.133512
    126          1           0        2.468248    2.941066   -4.359309
    127          1           0        5.234467   -2.734458    1.223370
    128          1           0        4.651170   -1.399947    3.634990
    129          1           0        2.933623   -2.786008    1.617815
    130          1           0        2.124497   -1.485592    2.517005
    131          1           0        2.805489   -2.806810    3.417157
    132          1           0        6.710961   -0.577550    2.750933
    133          1           0        7.385153   -1.117747    1.170154
    134          1           0        6.863545   -3.432375    2.744308
    135          1           0        7.331964   -2.218522    3.880979
    136          1           0        2.899495    1.958984    5.735927
    137          1           0        1.693832    3.179698    5.971355
    138          1           0        3.401212    3.678793    6.021519
    139          1           0        1.354144    5.382805    5.891918
    140          1           0        1.613329    7.169280    5.458266
    141          1           0        2.956420    5.992941    5.534172
    142          1           0        0.961299    6.352311   -1.290844
    143          1           0        0.385428    4.380592   -3.444323
    144          1           0       -1.301501    6.271185   -1.243446
    145          1           0       -1.151856    4.597714   -0.600700
    146          1           0       -1.311390    4.836820   -2.265929
    147          1           0        1.171032    6.743262   -3.859559
    148          1           0        2.002114    5.511631   -4.790893
    149          1           0        2.810443    7.134798   -2.490009
    150          1           0        3.760418    6.796952   -3.982732
    151          1           0        3.636579    5.580211   -2.634211
    152          1           0        4.679406    0.488973   -5.941125
    153          1           0        3.308147    1.636695   -5.804904
    154          1           0        3.011093   -0.125073   -5.521725
    155          1           0        5.074765   -2.745396   -1.625606
    156          1           0        8.938993   -4.645412   -1.424187
    157          1           0        8.807541   -3.838430    0.265628
    158          1           0        9.460551   -3.060596   -1.197513
 ---------------------------------------------------------------------

 SCF Done:  E(RCAM-B3LYP) =  -4069.81260376     A.U. after   19 cycles

 Excitation energies and oscillator strengths:

 Excited State   1:      Singlet-A      1.6408 eV  755.65 nm  f=0.0338  <S**2>=0.000
     309 -> 315        0.10961
     310 -> 316        0.12405
     311 -> 313        0.45647
     312 -> 314        0.51489
 This state for optimization and/or second-order correction.
 Total Energy, E(TD-HF/TD-DFT) =  -4069.75230650
 Copying the excited state density for this state as the 1-particle RhoCI density.

 Excited State   2:      Singlet-A      1.7062 eV  726.65 nm  f=0.6414  <S**2>=0.000
     309 -> 315        0.13646
     310 -> 316       -0.12065
     311 -> 313        0.51168
     312 -> 314       -0.45360

 Excited State   3:      Singlet-A      2.1783 eV  569.17 nm  f=0.0234  <S**2>=0.000
     309 -> 313        0.32086
     310 -> 314        0.56128
     311 -> 315       -0.13099
     312 -> 316       -0.23024

 Excited State   4:      Singlet-A      2.1988 eV  563.87 nm  f=0.1487  <S**2>=0.000
     309 -> 313        0.55417
     310 -> 314       -0.31524
     311 -> 315       -0.24623
     312 -> 316        0.14163

 Excited State   5:      Singlet-A      2.2295 eV  556.12 nm  f=0.0001  <S**2>=0.000
     312 -> 313        0.70692

 The electronic state is 1-A.
 Alpha  occ. eigenvalues --  -46.87938 -46.87377 -19.26465 -19.26174 -19.19250
 Alpha  occ. eigenvalues --  -19.18980 -19.18902 -19.18412 -19.18278 -19.17864
 Alpha  occ. eigenvalues --  -14.42591 -14.42214 -14.41616 -14.41041 -14.39535
 Alpha  occ. eigenvalues --  -14.39070 -14.38723 -14.38338 -10.39282 -10.38905
 Alpha  occ. eigenvalues --  -10.35524 -10.35089 -10.34504 -10.34042 -10.31852
 Alpha  occ. eigenvalues --  -10.31602 -10.31546 -10.31065 -10.31040 -10.30732
 Alpha  occ. eigenvalues --  -10.30706 -10.30655 -10.30380 -10.30133 -10.30121
 Alpha  occ. eigenvalues --  -10.30106 -10.29799 -10.29757 -10.29546 -10.29381
 Alpha  occ. eigenvalues --  -10.29164 -10.29142 -10.28895 -10.28722 -10.28488
 Alpha  occ. eigenvalues --  -10.28448 -10.28441 -10.28248 -10.28135 -10.27911
 Alpha  occ. eigenvalues --  -10.27862 -10.27861 -10.27781 -10.27751 -10.27711
 Alpha  occ. eigenvalues --  -10.27696 -10.27547 -10.27506 -10.27402 -10.27302
 Alpha  occ. eigenvalues --  -10.27273 -10.27217 -10.27204 -10.27094 -10.26885
 Alpha  occ. eigenvalues --  -10.26842 -10.26796 -10.26599 -10.26461 -10.26368
 Alpha  occ. eigenvalues --  -10.26347 -10.26191 -10.26146 -10.25973 -10.25831
 Alpha  occ. eigenvalues --  -10.25755 -10.25674 -10.25659 -10.25653 -10.25258
 Alpha  occ. eigenvalues --  -10.24951 -10.24951 -10.24633 -10.24456 -10.24377
 Alpha  occ. eigenvalues --  -10.24343  -3.16681  -3.16128  -1.91562  -1.91149
 Alpha  occ. eigenvalues --   -1.91010  -1.90991  -1.90598  -1.90436  -1.16817
 Alpha  occ. eigenvalues --   -1.16466  -1.08739  -1.08484  -1.07304  -1.06841
 Alpha  occ. eigenvalues --   -1.06766  -1.06655  -1.04720  -1.04219  -1.03920
 Alpha  occ. eigenvalues --   -1.03374  -1.03372  -1.02736  -1.02557  -1.01817
 Alpha  occ. eigenvalues --   -0.92114  -0.91732  -0.89767  -0.89332  -0.89177
 Alpha  occ. eigenvalues --   -0.88874  -0.88522  -0.87998  -0.87821  -0.87818
 Alpha  occ. eigenvalues --   -0.87588  -0.87382  -0.87353  -0.86871  -0.85133
 Alpha  occ. eigenvalues --   -0.84722  -0.84218  -0.83457  -0.83080  -0.82772
 Alpha  occ. eigenvalues --   -0.82620  -0.82368  -0.81746  -0.81373  -0.80739
 Alpha  occ. eigenvalues --   -0.80190  -0.78899  -0.78395  -0.77407  -0.77112
 Alpha  occ. eigenvalues --   -0.76875  -0.76589  -0.76071  -0.75586  -0.75107
 Alpha  occ. eigenvalues --   -0.74302  -0.72928  -0.72432  -0.71830  -0.71207
 Alpha  occ. eigenvalues --   -0.70234  -0.69368  -0.69015  -0.68556  -0.67778
 Alpha  occ. eigenvalues --   -0.67351  -0.67313  -0.66949  -0.65446  -0.65023
 Alpha  occ. eigenvalues --   -0.65010  -0.64810  -0.64501  -0.64484  -0.64380
 Alpha  occ. eigenvalues --   -0.63845  -0.62475  -0.62039  -0.60565  -0.60038
 Alpha  occ. eigenvalues --   -0.59940  -0.59531  -0.59152  -0.58689  -0.58663
 Alpha  occ. eigenvalues --   -0.58143  -0.57737  -0.57486  -0.57347  -0.56916
 Alpha  occ. eigenvalues --   -0.56437  -0.56143  -0.55971  -0.55660  -0.55646
 Alpha  occ. eigenvalues --   -0.55565  -0.55213  -0.54914  -0.54752  -0.54147
 Alpha  occ. eigenvalues --   -0.54042  -0.53649  -0.53461  -0.53333  -0.53111
 Alpha  occ. eigenvalues --   -0.52955  -0.52895  -0.52852  -0.52744  -0.52642
 Alpha  occ. eigenvalues --   -0.52406  -0.52084  -0.52045  -0.51738  -0.51729
 Alpha  occ. eigenvalues --   -0.51411  -0.51373  -0.50957  -0.50640  -0.50265
 Alpha  occ. eigenvalues --   -0.50210  -0.50019  -0.49701  -0.49632  -0.49418
 Alpha  occ. eigenvalues --   -0.49342  -0.49232  -0.49218  -0.48965  -0.48838
 Alpha  occ. eigenvalues --   -0.48757  -0.48647  -0.48541  -0.48318  -0.48078
 Alpha  occ. eigenvalues --   -0.47932  -0.47846  -0.47430  -0.47307  -0.46987
 Alpha  occ. eigenvalues --   -0.46790  -0.46699  -0.46521  -0.46416  -0.46339
 Alpha  occ. eigenvalues --   -0.46264  -0.45997  -0.45977  -0.45753  -0.45564
 Alpha  occ. eigenvalues --   -0.45421  -0.44754  -0.44671  -0.44650  -0.44357
 Alpha  occ. eigenvalues --   -0.44252  -0.44230  -0.44183  -0.44124  -0.43863
 Alpha  occ. eigenvalues --   -0.43760  -0.43698  -0.43657  -0.43549  -0.43316
 Alpha  occ. eigenvalues --   -0.43204  -0.43071  -0.42958  -0.42862  -0.42717
 Alpha  occ. eigenvalues --   -0.42592  -0.42244  -0.42193  -0.41856  -0.41695
 Alpha  occ. eigenvalues --   -0.41667  -0.41387  -0.41297  -0.41174  -0.41071
 Alpha  occ. eigenvalues --   -0.40920  -0.40789  -0.40655  -0.40444  -0.40418
 Alpha  occ. eigenvalues --   -0.40382  -0.40081  -0.39972  -0.39758  -0.39064
 Alpha  occ. eigenvalues --   -0.38701  -0.37924  -0.37913  -0.37533  -0.37407
 Alpha  occ. eigenvalues --   -0.37382  -0.36960  -0.36920  -0.36898  -0.36531
 Alpha  occ. eigenvalues --   -0.36393  -0.35852  -0.34433  -0.33974  -0.33961
 Alpha  occ. eigenvalues --   -0.33660  -0.33338  -0.32894  -0.31438  -0.31185
 Alpha  occ. eigenvalues --   -0.30963  -0.30675  -0.30142  -0.29773  -0.29560
 Alpha  occ. eigenvalues --   -0.29441  -0.29074  -0.28975  -0.24230  -0.23751
 Alpha  occ. eigenvalues --   -0.21271  -0.20831
 Alpha virt. eigenvalues --   -0.08903  -0.08524  -0.01901  -0.01373  -0.00161
 Alpha virt. eigenvalues --    0.00238   0.02062   0.02344   0.02568   0.03617
 Alpha virt. eigenvalues --    0.04554   0.04887   0.05019   0.05358   0.05938

 Mulliken charges:
               1
     1  Mg   0.838906
     2  C   -0.003066
     3  C   -0.093404
     4  C   -0.046998
     5  C   -0.064289
     6  N   -0.256584
     7  C   -0.052653
     8  C   -0.014039
     9  C   -0.087110
    10  C    0.046301
    11  C    0.104689
    12  C    0.053200
    13  C   -0.071524
    14  H    0.034399
    15  N   -0.433389
    16  C    0.168865
    17  C   -0.176041
    18  C   -0.003398
    19  C    0.148798
    20  C    0.109772
    21  C    0.011752
    22  O   -0.250928
    23  C    0.061988
    24  N   -0.340908
    25  C    0.041669
    26  C   -0.028778
    27  C   -0.023612
    28  C    0.073715
    29  C    0.076187
    30  C    0.039243
    31  C   -0.014892
    32  N   -0.310594
    33  C    0.080220
    34  C   -0.169528
    35  C    0.008902
    36  C    0.083125
    37  C    0.127221
    38  C    0.046564
    39  O   -0.187724
    40  C   -0.005856
    41  C    0.214175
    42  O   -0.257644
    43  O   -0.304329
    44  C    0.157240
    45  H   -0.016916
    46  H   -0.017400
    47  H   -0.042395
    48  H    0.001160
    49  H   -0.003662
    50  H    0.025591
    51  H    0.016634
    52  H    0.017145
    53  H    0.011594
    54  H    0.042907
    55  H    0.018620
    56  H    0.018541
    57  H    0.005955
    58  H    0.027282
    59  H    0.042147
    60  H    0.037497
    61  H    0.036568
    62  H    0.034623
    63  H    0.015186
    64  H    0.010132
    65  H    0.022923
    66  H    0.013496
    67  H    0.005019
    68  H    0.005316
    69  H    0.004240
    70  H    0.010572
    71  H    0.013741
    72  H    0.034763
    73  H    0.048248
    74  H    0.007993
    75  H    0.046184
    76  H    0.035572
    77  H    0.043878
    78  H    0.046266
    79  H    0.053353
    80  Mg   0.836621
    81  C   -0.017445
    82  C   -0.088927
    83  C   -0.043017
    84  C   -0.065201
    85  N   -0.255037
    86  C   -0.050092
    87  C   -0.015133
    88  C   -0.092402
    89  C    0.045808
    90  C    0.110094
    91  C    0.062713
    92  C   -0.077667
    93  H    0.033755
    94  N   -0.424041
    95  C    0.164324
    96  C   -0.174567
    97  C   -0.006116
    98  C    0.152167
    99  C    0.099494
   100  C    0.016200
   101  O   -0.250991
   102  C    0.061238
   103  N   -0.350378
   104  C    0.039843
   105  C   -0.021789
   106  C   -0.032821
   107  C    0.088756
   108  C    0.073384
   109  C    0.034734
   110  C   -0.007283
   111  N   -0.323731
   112  C    0.078047
   113  C   -0.164563
   114  C    0.001113
   115  C    0.095976
   116  C    0.131888
   117  C    0.040481
   118  O   -0.190477
   119  C    0.001476
   120  C    0.210941
   121  O   -0.251332
   122  O   -0.305353
   123  C    0.152393
   124  H   -0.020346
   125  H   -0.012726
   126  H   -0.042172
   127  H    0.000536
   128  H   -0.005518
   129  H    0.026363
   130  H    0.016467
   131  H    0.018944
   132  H    0.013444
   133  H    0.037228
   134  H    0.021618
   135  H    0.018985
   136  H    0.007432
   137  H    0.025955
   138  H    0.039469
   139  H    0.038104
   140  H    0.036557
   141  H    0.032923
   142  H    0.012590
   143  H    0.011100
   144  H    0.023214
   145  H    0.025184
   146  H    0.007189
   147  H    0.005788
   148  H    0.001499
   149  H    0.011176
   150  H    0.016442
   151  H    0.029808
   152  H    0.045196
   153  H    0.008059
   154  H    0.043510
   155  H    0.034438
   156  H    0.043202
   157  H    0.049788
   158  H    0.053055
 Sum of Mulliken charges =  -0.00000

 Dipole moment (field-independent basis, Debye):
    X=             -2.8511    Y=             -3.6358    Z=              0.6449  Tot=              4.6652
 Quadrupole moment (field-independent basis, Debye-Ang):
   XX=           -534.8831   YY=           -530.4406   ZZ=           -455.2882
   XY=             18.6760   XZ=             55.8104   YZ=            -20.5329

 Normal termination of Gaussian 16 at Fri Sep  3 14:16:37 2021.
