 Gaussian 16, Revision A.03,
 Gaussian 16:  ES64L-G16RevA.03 25-Dec-2016

 -----------------------------------
 #p cam-b3lyp/Def2SVP td=(nstates=5)
 -----------------------------------

 --------------------------------
 TDDFT excited states in gaussian
 --------------------------------
 Symbolic Z-matrix:
 Charge =  0 Multiplicity = 1

                         Standard orientation:
 ---------------------------------------------------------------------
 Center     Atomic      Atomic             Coordinates (Angstroms)
 Number     Number       Type             X           Y           Z
 ---------------------------------------------------------------------
      1         12           0        7.972236   -0.997490    0.121093
      2          6           0        8.445664    2.123425   -1.566499
      3          6           0        9.124276    0.526598    2.948287
      4          6           0        7.993816   -3.845037    1.516668
      5          6           0        7.952231   -2.520742   -3.013387
      6          7           0        8.664510    1.067963    0.515185
      7          6           0        8.740164    2.184307   -0.202605
      8          6           0        9.089219    3.442696    0.647096
      9          6           0        9.817005    2.725903    1.871242
     10          6           0        9.137157    1.370046    1.797870
     11          6           0       11.315900    2.535749    1.662294
     12          6           0        7.811428    4.217679    1.114411
     13          6           0        8.065115    5.623933    1.665269
     14          1           0        7.084098    6.666186    1.403234
     15          7           0        8.013061   -1.486059    2.034854
     16          6           0        8.503804   -0.737214    3.051559
     17          6           0        8.304522   -1.536551    4.279576
     18          6           0        7.831737   -2.888400    3.870831
     19          6           0        7.953931   -2.801217    2.438056
     20          6           0        8.510773   -0.990700    5.659162
     21          6           0        7.356706   -4.074725    4.648720
     22          8           0        7.213501   -5.226580    4.112720
     23          6           0        7.145281   -3.871241    6.093342
     24          7           0        8.192415   -2.938262   -0.615493
     25          6           0        8.104501   -3.998247    0.195486
     26          6           0        8.009903   -5.276052   -0.584389
     27          6           0        7.806046   -4.849087   -2.109478
     28          6           0        7.906547   -3.313042   -1.939962
     29          6           0        9.217066   -6.217761   -0.475063
     30          6           0        6.572022   -5.430942   -2.843678
     31          6           0        5.304320   -4.861617   -2.247104
     32          7           0        7.984630   -0.331102   -1.944535
     33          6           0        7.995879   -1.138732   -3.090956
     34          6           0        8.112508   -0.238210   -4.252648
     35          6           0        8.178119    1.037968   -3.696851
     36          6           0        8.133414    0.938994   -2.276817
     37          6           0        8.203794   -0.641703   -5.614005
     38          6           0        8.300400    2.460481   -3.971371
     39          8           0        8.285685    3.151226   -4.991247
     40          6           0        8.601186    3.211449   -2.599729
     41          6           0        7.677348    4.395997   -2.518009
     42          8           0        6.444717    4.239168   -2.402287
     43          8           0        8.401033    5.513418   -2.350102
     44          6           0        7.543272    6.722731   -2.231948
     45          1           0        9.688550    0.830691    3.832065
     46          1           0        7.891653   -4.841241    1.952074
     47          1           0        7.867191   -2.918429   -4.026336
     48          1           0        9.773051    4.141391    0.164786
     49          1           0        9.591328    3.212111    2.820133
     50          1           0       11.614826    2.808410    0.650256
     51          1           0       11.502836    1.476895    1.842226
     52          1           0       11.884158    3.073605    2.421616
     53          1           0        7.407002    3.739201    2.006352
     54          1           0        7.077681    4.272730    0.309481
     55          1           0        9.068387    5.973230    1.419612
     56          1           0        8.055679    5.571109    2.753993
     57          1           0        9.016557   -0.026218    5.636780
     58          1           0        9.213625   -1.654381    6.162388
     59          1           0        7.580290   -0.943325    6.225104
     60          1           0        8.079636   -3.546313    6.551548
     61          1           0        6.721005   -4.801625    6.469141
     62          1           0        6.434781   -3.056311    6.234868
     63          1           0        7.154692   -5.868572   -0.261960
     64          1           0        8.650150   -5.144283   -2.733193
     65          1           0        8.962392   -7.216726   -0.120216
     66          1           0        9.953502   -5.747459    0.175913
     67          1           0        9.787379   -6.338587   -1.395694
     68          1           0        6.529461   -6.512010   -2.715519
     69          1           0        6.570587   -5.223521   -3.913830
     70          1           0        5.130695   -5.504816   -1.385141
     71          1           0        4.482430   -4.934081   -2.960166
     72          1           0        5.460133   -3.849750   -1.872493
     73          1           0        7.550985    0.027110   -6.174809
     74          1           0        7.906380   -1.682593   -5.739289
     75          1           0        9.266300   -0.485726   -5.800034
     76          1           0        9.648518    3.510367   -2.629132
     77          1           0        7.871144    7.424955   -2.998508
     78          1           0        7.602930    7.044560   -1.192105
     79          1           0        6.494173    6.597884   -2.502399
     80         12           0       -7.797425    0.681402    0.724771
     81          6           0       -9.003351   -0.827232   -2.299924
     82          6           0       -9.507057   -1.726976    2.431071
     83          6           0       -7.126426    2.243315    3.403885
     84          6           0       -7.158189    3.561378   -1.130714
     85          7           0       -9.055426   -1.004874    0.042039
     86          6           0       -9.391951   -1.516607   -1.132364
     87          6           0      -10.121066   -2.884678   -1.052723
     88          6           0      -10.709582   -2.757190    0.435997
     89          6           0       -9.677761   -1.797685    1.025390
     90          6           0      -12.071651   -2.085435    0.489213
     91          6           0       -9.132715   -4.096912   -1.177818
     92          6           0       -9.803328   -5.451248   -1.418279
     93          1           0       -9.126232   -6.420879   -2.274909
     94          7           0       -7.828301    0.067081    2.611630
     95          6           0       -8.563478   -0.940227    3.127503
     96          6           0       -8.243588   -0.977578    4.562930
     97          6           0       -7.384918    0.195058    4.882822
     98          6           0       -7.431386    0.907628    3.621804
     99          6           0       -8.675789   -2.097685    5.464032
    100          6           0       -6.654578    0.613266    6.122942
    101          8           0       -6.163910    1.790434    6.250751
    102          6           0       -6.611885   -0.364676    7.219894
    103          7           0       -7.423384    2.685427    1.132608
    104          6           0       -7.106008    3.090593    2.374800
    105          6           0       -6.612383    4.517734    2.373635
    106          6           0       -6.434649    4.909602    0.833370
    107          6           0       -6.964453    3.614329    0.179944
    108          6           0       -7.523899    5.537473    3.056034
    109          6           0       -5.041146    5.440351    0.398477
    110          6           0       -4.013962    4.335686    0.498314
    111          7           0       -7.852407    1.229841   -1.364303
    112          6           0       -7.571712    2.496763   -1.921261
    113          6           0       -7.856120    2.408918   -3.368269
    114          6           0       -8.308081    1.093204   -3.550318
    115          6           0       -8.324704    0.415423   -2.301390
    116          6           0       -7.734209    3.472732   -4.306110
    117          6           0       -8.784975    0.126824   -4.513316
    118          8           0       -8.900076    0.104956   -5.738071
    119          6           0       -9.376512   -1.121109   -3.726465
    120          6           0       -8.821132   -2.370854   -4.352736
    121          8           0       -7.604498   -2.621311   -4.292059
    122          8           0       -9.839740   -3.166200   -4.727214
    123          6           0       -9.339188   -4.423555   -5.343917
    124          1           0      -10.187400   -2.295665    3.065589
    125          1           0       -6.781812    2.797310    4.280135
    126          1           0       -6.891268    4.386825   -1.794090
    127          1           0      -10.929701   -3.010470   -1.762697
    128          1           0      -10.682320   -3.712000    0.954615
    129          1           0      -12.367230   -1.697041   -0.474076
    130          1           0      -11.975548   -1.282035    1.207789
    131          1           0      -12.815014   -2.772724    0.903193
    132          1           0       -8.672572   -4.286172   -0.199461
    133          1           0       -8.401517   -3.915123   -1.941313
    134          1           0      -10.853858   -5.344181   -1.714715
    135          1           0       -9.846365   -5.990589   -0.468916
    136          1           0       -9.432761   -2.730476    4.984494
    137          1           0       -9.199634   -1.642345    6.311451
    138          1           0       -7.834632   -2.682940    5.841662
    139          1           0       -7.626632   -0.618696    7.516935
    140          1           0       -5.971393    0.080652    7.983651
    141          1           0       -6.152429   -1.287403    6.848285
    142          1           0       -5.652333    4.595269    2.869016
    143          1           0       -7.121786    5.715368    0.536018
    144          1           0       -7.022572    6.095735    3.869099
    145          1           0       -8.395329    5.018322    3.432367
    146          1           0       -7.965428    6.279064    2.392488
    147          1           0       -4.710473    6.233574    1.073470
    148          1           0       -5.028493    5.847177   -0.607170
    149          1           0       -3.732330    4.355385    1.555377
    150          1           0       -3.159894    4.547764   -0.141715
    151          1           0       -4.466512    3.357987    0.295917
    152          1           0       -7.259754    3.059169   -5.186091
    153          1           0       -7.159798    4.300640   -3.895765
    154          1           0       -8.787158    3.732409   -4.444450
    155          1           0      -10.463304   -1.072323   -3.804347
    156          1           0       -9.800451   -4.499749   -6.333418
    157          1           0       -9.570140   -5.225183   -4.617427
    158          1           0       -8.286572   -4.473268   -5.596864
 ---------------------------------------------------------------------

 SCF Done:  E(RCAM-B3LYP) =  -4069.81172843     A.U. after   19 cycles

 Excitation energies and oscillator strengths:

 Excited State   1:      Singlet-A      1.6698 eV  742.51 nm  f=0.0186  <S**2>=0.000
     309 -> 315       -0.10364
     310 -> 316        0.13777
     311 -> 313        0.54954
     312 -> 314       -0.41120
 This state for optimization and/or second-order correction.
 Total Energy, E(TD-HF/TD-DFT) =  -4069.75036412
 Copying the excited state density for this state as the 1-particle RhoCI density.

 Excited State   2:      Singlet-A      1.6850 eV  735.81 nm  f=0.7392  <S**2>=0.000
     309 -> 315        0.14160
     310 -> 316        0.10539
     311 -> 313        0.41070
     312 -> 314        0.54873

 Excited State   3:      Singlet-A      2.1854 eV  567.33 nm  f=0.0660  <S**2>=0.000
     309 -> 314        0.12078
     310 -> 313        0.63124
     311 -> 316       -0.26783

 Excited State   4:      Singlet-A      2.1926 eV  565.47 nm  f=0.1288  <S**2>=0.000
     309 -> 314        0.62936
     310 -> 313       -0.11992
     312 -> 315       -0.27338

 Excited State   5:      Singlet-A      2.8032 eV  442.30 nm  f=0.0000  <S**2>=0.000
     312 -> 313        0.70710

 The electronic state is 1-A.
 Alpha  occ. eigenvalues --  -46.87696 -46.87593 -19.26286 -19.26199 -19.19092
 Alpha  occ. eigenvalues --  -19.18929 -19.18727 -19.18668 -19.18072 -19.17983
 Alpha  occ. eigenvalues --  -14.42433 -14.42352 -14.41350 -14.41291 -14.39304
 Alpha  occ. eigenvalues --  -14.39287 -14.38530 -14.38486 -10.39023 -10.38989
 Alpha  occ. eigenvalues --  -10.35362 -10.35347 -10.34292 -10.34160 -10.31697
 Alpha  occ. eigenvalues --  -10.31603 -10.31307 -10.31242 -10.30964 -10.30815
 Alpha  occ. eigenvalues --  -10.30469 -10.30407 -10.30330 -10.30291 -10.30108
 Alpha  occ. eigenvalues --  -10.30075 -10.29824 -10.29820 -10.29532 -10.29373
 Alpha  occ. eigenvalues --  -10.29335 -10.29157 -10.28662 -10.28661 -10.28602
 Alpha  occ. eigenvalues --  -10.28459 -10.28341 -10.28268 -10.28084 -10.28028
 Alpha  occ. eigenvalues --  -10.27935 -10.27694 -10.27630 -10.27605 -10.27487
 Alpha  occ. eigenvalues --  -10.27440 -10.27419 -10.27417 -10.27403 -10.27396
 Alpha  occ. eigenvalues --  -10.27391 -10.27350 -10.27308 -10.27307 -10.27065
 Alpha  occ. eigenvalues --  -10.26985 -10.26635 -10.26617 -10.26385 -10.26331
 Alpha  occ. eigenvalues --  -10.26151 -10.26064 -10.26034 -10.25975 -10.25917
 Alpha  occ. eigenvalues --  -10.25862 -10.25764 -10.25733 -10.25347 -10.25345
 Alpha  occ. eigenvalues --  -10.24805 -10.24734 -10.24690 -10.24625 -10.24601
 Alpha  occ. eigenvalues --  -10.24550  -3.16439  -3.16342  -1.91321  -1.91224
 Alpha  occ. eigenvalues --   -1.90907  -1.90813  -1.90749  -1.90650  -1.16579
 Alpha  occ. eigenvalues --   -1.16547  -1.08589  -1.08530  -1.07129  -1.06922
 Alpha  occ. eigenvalues --   -1.06877  -1.06552  -1.04484  -1.04431  -1.03662
 Alpha  occ. eigenvalues --   -1.03597  -1.03134  -1.02971  -1.02312  -1.02044
 Alpha  occ. eigenvalues --   -0.91921  -0.91875  -0.89419  -0.89415  -0.89098
 Alpha  occ. eigenvalues --   -0.89092  -0.88184  -0.88146  -0.87768  -0.87721
 Alpha  occ. eigenvalues --   -0.87619  -0.87577  -0.87181  -0.87065  -0.84940
 Alpha  occ. eigenvalues --   -0.84891  -0.83832  -0.83797  -0.82878  -0.82876
 Alpha  occ. eigenvalues --   -0.82594  -0.82557  -0.81530  -0.81494  -0.80503
 Alpha  occ. eigenvalues --   -0.80379  -0.78701  -0.78573  -0.77120  -0.77079
 Alpha  occ. eigenvalues --   -0.76842  -0.76832  -0.75832  -0.75777  -0.74801
 Alpha  occ. eigenvalues --   -0.74735  -0.72675  -0.72630  -0.71578  -0.71518
 Alpha  occ. eigenvalues --   -0.69796  -0.69670  -0.68781  -0.68767  -0.67546
 Alpha  occ. eigenvalues --   -0.67538  -0.67144  -0.67130  -0.65210  -0.65193
 Alpha  occ. eigenvalues --   -0.64757  -0.64702  -0.64589  -0.64525  -0.64167
 Alpha  occ. eigenvalues --   -0.64128  -0.62212  -0.62206  -0.60347  -0.60280
 Alpha  occ. eigenvalues --   -0.59735  -0.59711  -0.58926  -0.58890  -0.58407
 Alpha  occ. eigenvalues --   -0.58359  -0.57490  -0.57487  -0.57211  -0.57170
 Alpha  occ. eigenvalues --   -0.56213  -0.56139  -0.55890  -0.55824  -0.55428
 Alpha  occ. eigenvalues --   -0.55395  -0.55240  -0.55175  -0.54426  -0.54414
 Alpha  occ. eigenvalues --   -0.53854  -0.53805  -0.53203  -0.53163  -0.53131
 Alpha  occ. eigenvalues --   -0.53081  -0.52837  -0.52820  -0.52667  -0.52619
 Alpha  occ. eigenvalues --   -0.52324  -0.52306  -0.51810  -0.51806  -0.51602
 Alpha  occ. eigenvalues --   -0.51526  -0.51131  -0.51097  -0.50483  -0.50425
 Alpha  occ. eigenvalues --   -0.49929  -0.49921  -0.49827  -0.49796  -0.49433
 Alpha  occ. eigenvalues --   -0.49424  -0.49142  -0.49120  -0.49042  -0.49005
 Alpha  occ. eigenvalues --   -0.48499  -0.48495  -0.48366  -0.48353  -0.48309
 Alpha  occ. eigenvalues --   -0.48286  -0.47601  -0.47533  -0.47204  -0.47059
 Alpha  occ. eigenvalues --   -0.46697  -0.46640  -0.46495  -0.46465  -0.46260
 Alpha  occ. eigenvalues --   -0.46202  -0.46064  -0.46017  -0.45753  -0.45726
 Alpha  occ. eigenvalues --   -0.45140  -0.45103  -0.44482  -0.44452  -0.44413
 Alpha  occ. eigenvalues --   -0.44411  -0.44066  -0.44044  -0.44004  -0.43997
 Alpha  occ. eigenvalues --   -0.43926  -0.43883  -0.43484  -0.43401  -0.43323
 Alpha  occ. eigenvalues --   -0.43291  -0.42930  -0.42865  -0.42834  -0.42607
 Alpha  occ. eigenvalues --   -0.42551  -0.42477  -0.41906  -0.41885  -0.41607
 Alpha  occ. eigenvalues --   -0.41603  -0.41442  -0.41394  -0.41047  -0.40928
 Alpha  occ. eigenvalues --   -0.40774  -0.40734  -0.40670  -0.40636  -0.40470
 Alpha  occ. eigenvalues --   -0.40418  -0.40173  -0.40146  -0.39333  -0.39327
 Alpha  occ. eigenvalues --   -0.38369  -0.38280  -0.37658  -0.37594  -0.37219
 Alpha  occ. eigenvalues --   -0.37195  -0.37170  -0.37137  -0.36704  -0.36620
 Alpha  occ. eigenvalues --   -0.36148  -0.36097  -0.34187  -0.34186  -0.33794
 Alpha  occ. eigenvalues --   -0.33678  -0.33109  -0.33088  -0.31257  -0.31227
 Alpha  occ. eigenvalues --   -0.30939  -0.30908  -0.29931  -0.29887  -0.29352
 Alpha  occ. eigenvalues --   -0.29265  -0.29222  -0.29143  -0.23982  -0.23969
 Alpha  occ. eigenvalues --   -0.21051  -0.21029
 Alpha virt. eigenvalues --   -0.08727  -0.08676  -0.01652  -0.01619   0.00028
 Alpha virt. eigenvalues --    0.00035   0.02275   0.02299   0.03239   0.03314
 Alpha virt. eigenvalues --    0.04792   0.04811   0.05189   0.05232   0.06239

 Mulliken charges:
               1
     1  Mg   0.839002
     2  C   -0.002953
     3  C   -0.094139
     4  C   -0.045859
     5  C   -0.063851
     6  N   -0.256777
     7  C   -0.052447
     8  C   -0.014051
     9  C   -0.086972
    10  C    0.046331
    11  C    0.104844
    12  C    0.053463
    13  C   -0.071697
    14  H    0.035906
    15  N   -0.433091
    16  C    0.168438
    17  C   -0.177213
    18  C   -0.004047
    19  C    0.148731
    20  C    0.110210
    21  C    0.012261
    22  O   -0.249798
    23  C    0.062475
    24  N   -0.341177
    25  C    0.041255
    26  C   -0.028112
    27  C   -0.024002
    28  C    0.074933
    29  C    0.076244
    30  C    0.035080
    31  C   -0.004545
    32  N   -0.310513
    33  C    0.080564
    34  C   -0.169444
    35  C    0.008357
    36  C    0.083128
    37  C    0.127245
    38  C    0.046235
    39  O   -0.188405
    40  C   -0.005406
    41  C    0.212849
    42  O   -0.256954
    43  O   -0.304830
    44  C    0.157746
    45  H   -0.017766
    46  H   -0.016979
    47  H   -0.041325
    48  H    0.000829
    49  H   -0.004087
    50  H    0.025405
    51  H    0.016410
    52  H    0.016507
    53  H    0.011350
    54  H    0.044171
    55  H    0.017764
    56  H    0.017963
    57  H    0.005812
    58  H    0.026604
    59  H    0.039589
    60  H    0.037240
    61  H    0.035359
    62  H    0.031641
    63  H    0.016550
    64  H    0.009346
    65  H    0.023033
    66  H    0.012408
    67  H    0.004664
    68  H    0.006199
    69  H    0.004917
    70  H    0.008582
    71  H    0.018879
    72  H    0.029075
    73  H    0.047878
    74  H    0.009330
    75  H    0.045841
    76  H    0.035022
    77  H    0.042842
    78  H    0.046302
    79  H    0.053630
    80  Mg   0.838155
    81  C   -0.016828
    82  C   -0.087867
    83  C   -0.045541
    84  C   -0.064729
    85  N   -0.254538
    86  C   -0.049810
    87  C   -0.015130
    88  C   -0.090489
    89  C    0.045731
    90  C    0.114426
    91  C    0.062564
    92  C   -0.077860
    93  H    0.034865
    94  N   -0.423428
    95  C    0.162882
    96  C   -0.174755
    97  C   -0.007942
    98  C    0.152135
    99  C    0.099410
   100  C    0.015475
   101  O   -0.253475
   102  C    0.061255
   103  N   -0.350150
   104  C    0.037554
   105  C   -0.019735
   106  C   -0.034913
   107  C    0.089098
   108  C    0.073777
   109  C    0.034704
   110  C   -0.007807
   111  N   -0.324200
   112  C    0.078685
   113  C   -0.162720
   114  C    0.002257
   115  C    0.096421
   116  C    0.131394
   117  C    0.042564
   118  O   -0.187733
   119  C    0.000840
   120  C    0.211256
   121  O   -0.250780
   122  O   -0.305711
   123  C    0.152039
   124  H   -0.019863
   125  H   -0.015802
   126  H   -0.040130
   127  H   -0.000722
   128  H   -0.004414
   129  H    0.022396
   130  H    0.014364
   131  H    0.016117
   132  H    0.013973
   133  H    0.037806
   134  H    0.020687
   135  H    0.019524
   136  H    0.008687
   137  H    0.025886
   138  H    0.039674
   139  H    0.038168
   140  H    0.035947
   141  H    0.033940
   142  H    0.014343
   143  H    0.012280
   144  H    0.024829
   145  H    0.011460
   146  H    0.005581
   147  H    0.005986
   148  H    0.004021
   149  H    0.010519
   150  H    0.019398
   151  H    0.030106
   152  H    0.046463
   153  H    0.008898
   154  H    0.046749
   155  H    0.034885
   156  H    0.043838
   157  H    0.049378
   158  H    0.053677
 Sum of Mulliken charges =  -0.00000

 Dipole moment (field-independent basis, Debye):
    X=             -0.1837    Y=             -1.4794    Z=              7.2211  Tot=              7.3734
 Quadrupole moment (field-independent basis, Debye-Ang):
   XX=           -437.1848   YY=           -473.6873   ZZ=           -533.5664
   XY=             33.5376   XZ=              2.0525   YZ=             20.2414

 Normal termination of Gaussian 16 at Sat Sep 11 21:31:06 2021.
