 Gaussian 16, Revision A.03,
 Gaussian 16:  ES64L-G16RevA.03 25-Dec-2016

 -----------------------------------
 #p cam-b3lyp/Def2SVP td=(nstates=5)
 -----------------------------------

 --------------------------------
 TDDFT excited states in gaussian
 --------------------------------
 Symbolic Z-matrix:
 Charge =  0 Multiplicity = 1

                         Standard orientation:
 ---------------------------------------------------------------------
 Center     Atomic      Atomic             Coordinates (Angstroms)
 Number     Number       Type             X           Y           Z
 ---------------------------------------------------------------------
      1         12           0       15.506268    0.805535    0.460644
      2          6           0       15.778138   -2.549908   -0.755621
      3          6           0       16.423300    1.851087   -2.655273
      4          6           0       15.715105    3.746816    1.627638
      5          6           0       15.727656   -0.501648    3.683673
      6          7           0       16.008641   -0.304330   -1.387725
      7          6           0       16.016737   -1.586586   -1.738334
      8          6           0       16.228235   -1.808062   -3.265944
      9          6           0       16.968417   -0.440632   -3.618454
     10          6           0       16.407430    0.432088   -2.509591
     11          6           0       18.484564   -0.512101   -3.467810
     12          6           0       14.873981   -1.942601   -4.040299
     13          6           0       14.989009   -2.482142   -5.468941
     14          1           0       13.934461   -3.345697   -5.978401
     15          7           0       15.518198    2.552215   -0.462295
     16          6           0       15.907325    2.791628   -1.737657
     17          6           0       15.731061    4.244141   -1.951708
     18          6           0       15.388132    4.859157   -0.639363
     19          6           0       15.554615    3.733480    0.244103
     20          6           0       15.840660    4.897110   -3.295349
     21          6           0       14.985988    6.244484   -0.242777
     22          8           0       14.959171    6.621584    0.978554
     23          6           0       14.705911    7.187021   -1.341059
     24          7           0       15.914575    1.551131    2.367214
     25          6           0       15.886169    2.865212    2.614937
     26          6           0       15.927153    3.144125    4.088187
     27          6           0       15.743891    1.731989    4.810711
     28          6           0       15.709383    0.826909    3.554562
     29          6           0       17.204050    3.820432    4.606023
     30          6           0       14.590346    1.612182    5.838038
     31          6           0       13.258635    1.710958    5.128188
     32          7           0       15.537989   -1.174454    1.349284
     33          6           0       15.658394   -1.485436    2.711439
     34          6           0       15.741478   -2.954019    2.813561
     35          6           0       15.679909   -3.397368    1.493903
     36          6           0       15.592041   -2.275513    0.620971
     37          6           0       15.915610   -3.697382    4.014195
     38          6           0       15.692725   -4.556777    0.616712
     39          8           0       15.657396   -5.775852    0.790202
     40          6           0       15.879605   -4.049732   -0.881223
     41          6           0       14.857605   -4.754960   -1.730621
     42          8           0       13.639013   -4.528230   -1.585732
     43          8           0       15.478744   -5.399192   -2.730467
     44          6           0       14.519150   -6.095865   -3.628231
     45          1           0       16.927670    2.287324   -3.519709
     46          1           0       15.680830    4.739779    2.080726
     47          1           0       15.713046   -0.985090    4.662205
     48          1           0       16.868335   -2.653656   -3.518264
     49          1           0       16.668531   -0.054957   -4.592643
     50          1           0       18.796240   -1.454673   -3.017990
     51          1           0       18.752711    0.324703   -2.822560
     52          1           0       18.977882   -0.324831   -4.421930
     53          1           0       14.478818   -0.948382   -4.248714
     54          1           0       14.167950   -2.555729   -3.479121
     55          1           0       15.967828   -2.927484   -5.649198
     56          1           0       14.944448   -1.638182   -6.157379
     57          1           0       16.264512    4.220290   -4.036165
     58          1           0       16.577781    5.694466   -3.202690
     59          1           0       14.889517    5.312655   -3.628488
     60          1           0       15.592550    7.282581   -1.968187
     61          1           0       14.347529    8.101046   -0.868862
     62          1           0       13.925090    6.767362   -1.976003
     63          1           0       15.113322    3.804940    4.383871
     64          1           0       16.631836    1.441918    5.372927
     65          1           0       17.021059    4.759867    5.128213
     66          1           0       17.874431    3.967580    3.759720
     67          1           0       17.815559    3.201179    5.261765
     68          1           0       14.633691    2.432090    6.554152
     69          1           0       14.610480    0.678862    6.400852
     70          1           0       13.108175    2.786448    5.041497
     71          1           0       12.472150    1.253943    5.729677
     72          1           0       13.315579    1.307356    4.117075
     73          1           0       15.229990   -4.542378    3.951937
     74          1           0       15.711018   -3.085122    4.892194
     75          1           0       16.967414   -3.970794    3.931664
     76          1           0       16.898652   -4.302081   -1.172745
     77          1           0       14.814813   -7.144512   -3.662262
     78          1           0       14.513849   -5.540949   -4.566551
     79          1           0       13.494691   -6.182594   -3.264500
     80         12           0      -16.232540    0.357087   -0.123355
     81          6           0      -13.774768   -2.235643    0.217469
     82          6           0      -13.726262    2.379109   -1.247889
     83          6           0      -18.273621    2.783683   -0.009009
     84          6           0      -18.252836   -1.463030    2.056383
     85          7           0      -14.071213    0.002541   -0.431926
     86          6           0      -13.261132   -1.040087   -0.326820
     87          6           0      -11.840041   -0.811619   -0.908089
     88          6           0      -11.788410    0.789430   -0.794740
     89          6           0      -13.284706    1.087736   -0.863858
     90          6           0      -11.264653    1.281372    0.544287
     91          6           0      -11.720679   -1.286071   -2.398949
     92          6           0      -10.289076   -1.379458   -2.931438
     93          1           0       -9.965742   -2.445676   -3.875422
     94          7           0      -16.165547    2.134195   -1.004254
     95          6           0      -15.064597    2.797517   -1.415587
     96          6           0      -15.547426    4.067231   -1.980290
     97          6           0      -17.008858    4.171066   -1.719273
     98          6           0      -17.206408    3.018154   -0.863788
     99          6           0      -14.664050    5.001176   -2.755418
    100          6           0      -18.053108    5.153594   -2.155612
    101          8           0      -19.215309    5.185094   -1.616067
    102          6           0      -17.644406    6.138498   -3.167752
    103          7           0      -17.915475    0.730382    1.038848
    104          6           0      -18.653875    1.838173    0.850475
    105          6           0      -19.959789    1.758010    1.604513
    106          6           0      -20.051368    0.256250    2.146656
    107          6           0      -18.680800   -0.269965    1.667041
    108          6           0      -20.113938    2.731007    2.773234
    109          6           0      -21.324922   -0.550538    1.772697
    110          6           0      -21.348618   -0.817129    0.284826
    111          7           0      -16.154731   -1.590095    0.809627
    112          6           0      -17.093185   -2.143623    1.707965
    113          6           0      -16.550304   -3.441060    2.160014
    114          6           0      -15.313253   -3.542559    1.505885
    115          6           0      -15.091068   -2.380535    0.718587
    116          6           0      -17.165527   -4.319623    3.095837
    117          6           0      -14.140060   -4.363654    1.310689
    118          8           0      -13.806041   -5.496975    1.653853
    119          6           0      -13.034682   -3.496928    0.566829
    120          6           0      -12.481593   -4.320719   -0.563642
    121          8           0      -13.203121   -4.640125   -1.524872
    122          8           0      -11.145640   -4.410309   -0.431022
    123          6           0      -10.549822   -5.208905   -1.535132
    124          1           0      -12.979848    3.160236   -1.394855
    125          1           0      -19.060103    3.541871   -0.017744
    126          1           0      -18.866788   -2.135160    2.659694
    127          1           0      -11.036515   -1.251438   -0.329569
    128          1           0      -11.272312    1.229100   -1.644265
    129          1           0      -11.124323    0.471157    1.244296
    130          1           0      -12.007731    1.975994    0.913594
    131          1           0      -10.351262    1.865564    0.400201
    132          1           0      -12.115117   -0.501247   -3.057139
    133          1           0      -12.221155   -2.224052   -2.541511
    134          1           0       -9.546197   -1.341443   -2.125440
    135          1           0      -10.082203   -0.488212   -3.528846
    136          1           0      -13.604585    4.740850   -2.640677
    137          1           0      -14.753508    5.987733   -2.287908
    138          1           0      -14.953271    5.080197   -3.805547
    139          1           0      -16.801449    6.713696   -2.792207
    140          1           0      -18.549983    6.695474   -3.415920
    141          1           0      -17.289162    5.601937   -4.054604
    142          1           0      -20.798835    1.945613    0.945795
    143          1           0      -20.035480    0.218170    3.245805
    144          1           0      -21.003975    3.382189    2.684560
    145          1           0      -19.212972    3.325903    2.843208
    146          1           0      -20.161551    2.267249    3.757033
    147          1           0      -22.221812    0.031680    1.998011
    148          1           0      -21.410767   -1.492712    2.303672
    149          1           0      -21.768788    0.106363   -0.124685
    150          1           0      -21.981636   -1.672896    0.059021
    151          1           0      -20.332319   -0.921476   -0.112538
    152          1           0      -17.062010   -5.320361    2.697947
    153          1           0      -18.210035   -4.060982    3.256716
    154          1           0      -16.553071   -4.122879    3.979844
    155          1           0      -12.269073   -3.242634    1.300829
    156          1           0       -9.975625   -6.016860   -1.071241
    157          1           0       -9.989835   -4.486277   -2.158014
    158          1           0      -11.226298   -5.768159   -2.170792
 ---------------------------------------------------------------------

 SCF Done:  E(RCAM-B3LYP) =  -4069.81177149     A.U. after   19 cycles

 Excitation energies and oscillator strengths:

 Excited State   1:      Singlet-A      1.6753 eV  740.07 nm  f=0.2056  <S**2>=0.000
     310 -> 316        0.16813
     311 -> 313       -0.16927
     312 -> 314        0.66485
     310 <- 316        0.10136
 This state for optimization and/or second-order correction.
 Total Energy, E(TD-HF/TD-DFT) =  -4069.75020559
 Copying the excited state density for this state as the 1-particle RhoCI density.

 Excited State   2:      Singlet-A      1.6801 eV  737.95 nm  f=0.5715  <S**2>=0.000
     309 -> 315        0.17017
     311 -> 313        0.66448
     312 -> 314        0.16922
     309 <- 315        0.10188

 Excited State   3:      Singlet-A      2.1861 eV  567.16 nm  f=0.1019  <S**2>=0.000
     310 -> 314        0.64244
     312 -> 316       -0.27305

 Excited State   4:      Singlet-A      2.1925 eV  565.49 nm  f=0.0994  <S**2>=0.000
     309 -> 313        0.64066
     311 -> 315       -0.27826

 Excited State   5:      Singlet-A      3.0612 eV  405.02 nm  f=0.0000  <S**2>=0.000
     312 -> 313        0.70710

 The electronic state is 1-A.
 Alpha  occ. eigenvalues --  -46.87813 -46.87659 -19.26336 -19.26297 -19.19150
 Alpha  occ. eigenvalues --  -19.19034 -19.18835 -19.18715 -19.18184 -19.18046
 Alpha  occ. eigenvalues --  -14.42495 -14.42466 -14.41466 -14.41358 -14.39420
 Alpha  occ. eigenvalues --  -14.39350 -14.38603 -14.38598 -10.39093 -10.39080
 Alpha  occ. eigenvalues --  -10.35468 -10.35392 -10.34404 -10.34223 -10.31739
 Alpha  occ. eigenvalues --  -10.31690 -10.31421 -10.31305 -10.31020 -10.30925
 Alpha  occ. eigenvalues --  -10.30586 -10.30524 -10.30396 -10.30358 -10.30224
 Alpha  occ. eigenvalues --  -10.30141 -10.29937 -10.29893 -10.29647 -10.29436
 Alpha  occ. eigenvalues --  -10.29399 -10.29271 -10.28764 -10.28712 -10.28642
 Alpha  occ. eigenvalues --  -10.28554 -10.28402 -10.28381 -10.28134 -10.28132
 Alpha  occ. eigenvalues --  -10.27999 -10.27809 -10.27743 -10.27667 -10.27602
 Alpha  occ. eigenvalues --  -10.27519 -10.27518 -10.27500 -10.27481 -10.27467
 Alpha  occ. eigenvalues --  -10.27466 -10.27464 -10.27420 -10.27377 -10.27172
 Alpha  occ. eigenvalues --  -10.27043 -10.26721 -10.26684 -10.26433 -10.26417
 Alpha  occ. eigenvalues --  -10.26248 -10.26201 -10.26140 -10.26036 -10.26017
 Alpha  occ. eigenvalues --  -10.25933 -10.25856 -10.25849 -10.25451 -10.25400
 Alpha  occ. eigenvalues --  -10.24870 -10.24849 -10.24804 -10.24733 -10.24706
 Alpha  occ. eigenvalues --  -10.24689  -3.16556  -3.16409  -1.91438  -1.91291
 Alpha  occ. eigenvalues --   -1.91024  -1.90879  -1.90867  -1.90716  -1.16645
 Alpha  occ. eigenvalues --   -1.16631  -1.08652  -1.08641  -1.07236  -1.06968
 Alpha  occ. eigenvalues --   -1.06935  -1.06656  -1.04597  -1.04492  -1.03777
 Alpha  occ. eigenvalues --   -1.03661  -1.03250  -1.03037  -1.02428  -1.02110
 Alpha  occ. eigenvalues --   -0.91988  -0.91983  -0.89536  -0.89494  -0.89203
 Alpha  occ. eigenvalues --   -0.89145  -0.88304  -0.88220  -0.87885  -0.87791
 Alpha  occ. eigenvalues --   -0.87689  -0.87681  -0.87292  -0.87120  -0.84998
 Alpha  occ. eigenvalues --   -0.84995  -0.83953  -0.83876  -0.82987  -0.82932
 Alpha  occ. eigenvalues --   -0.82665  -0.82648  -0.81600  -0.81589  -0.80612
 Alpha  occ. eigenvalues --   -0.80438  -0.78814  -0.78634  -0.77235  -0.77141
 Alpha  occ. eigenvalues --   -0.76949  -0.76893  -0.75938  -0.75833  -0.74914
 Alpha  occ. eigenvalues --   -0.74802  -0.72790  -0.72697  -0.71688  -0.71578
 Alpha  occ. eigenvalues --   -0.69924  -0.69758  -0.68889  -0.68823  -0.67658
 Alpha  occ. eigenvalues --   -0.67599  -0.67237  -0.67195  -0.65302  -0.65266
 Alpha  occ. eigenvalues --   -0.64869  -0.64767  -0.64649  -0.64636  -0.64286
 Alpha  occ. eigenvalues --   -0.64203  -0.62312  -0.62271  -0.60460  -0.60339
 Alpha  occ. eigenvalues --   -0.59820  -0.59792  -0.59003  -0.58990  -0.58520
 Alpha  occ. eigenvalues --   -0.58422  -0.57599  -0.57548  -0.57325  -0.57235
 Alpha  occ. eigenvalues --   -0.56326  -0.56202  -0.55993  -0.55878  -0.55537
 Alpha  occ. eigenvalues --   -0.55448  -0.55355  -0.55245  -0.54539  -0.54484
 Alpha  occ. eigenvalues --   -0.53910  -0.53907  -0.53316  -0.53238  -0.53226
 Alpha  occ. eigenvalues --   -0.53137  -0.52930  -0.52897  -0.52774  -0.52666
 Alpha  occ. eigenvalues --   -0.52456  -0.52402  -0.51929  -0.51882  -0.51654
 Alpha  occ. eigenvalues --   -0.51633  -0.51211  -0.51197  -0.50592  -0.50475
 Alpha  occ. eigenvalues --   -0.50048  -0.49977  -0.49936  -0.49867  -0.49531
 Alpha  occ. eigenvalues --   -0.49485  -0.49230  -0.49198  -0.49111  -0.49099
 Alpha  occ. eigenvalues --   -0.48608  -0.48553  -0.48478  -0.48462  -0.48375
 Alpha  occ. eigenvalues --   -0.48337  -0.47711  -0.47591  -0.47313  -0.47116
 Alpha  occ. eigenvalues --   -0.46813  -0.46706  -0.46571  -0.46549  -0.46375
 Alpha  occ. eigenvalues --   -0.46268  -0.46178  -0.46083  -0.45836  -0.45817
 Alpha  occ. eigenvalues --   -0.45218  -0.45208  -0.44593  -0.44524  -0.44510
 Alpha  occ. eigenvalues --   -0.44472  -0.44162  -0.44123  -0.44104  -0.44076
 Alpha  occ. eigenvalues --   -0.44035  -0.43936  -0.43546  -0.43509  -0.43402
 Alpha  occ. eigenvalues --   -0.43382  -0.43043  -0.42923  -0.42896  -0.42714
 Alpha  occ. eigenvalues --   -0.42671  -0.42553  -0.42026  -0.41962  -0.41720
 Alpha  occ. eigenvalues --   -0.41665  -0.41550  -0.41454  -0.41157  -0.40986
 Alpha  occ. eigenvalues --   -0.40886  -0.40842  -0.40720  -0.40695  -0.40588
 Alpha  occ. eigenvalues --   -0.40492  -0.40250  -0.40220  -0.39459  -0.39426
 Alpha  occ. eigenvalues --   -0.38486  -0.38349  -0.37764  -0.37647  -0.37337
 Alpha  occ. eigenvalues --   -0.37279  -0.37265  -0.37195  -0.36762  -0.36727
 Alpha  occ. eigenvalues --   -0.36214  -0.36208  -0.34302  -0.34251  -0.33853
 Alpha  occ. eigenvalues --   -0.33785  -0.33203  -0.33173  -0.31364  -0.31274
 Alpha  occ. eigenvalues --   -0.31052  -0.30971  -0.30043  -0.29950  -0.29466
 Alpha  occ. eigenvalues --   -0.29338  -0.29326  -0.29209  -0.24097  -0.24034
 Alpha  occ. eigenvalues --   -0.21144  -0.21115
 Alpha virt. eigenvalues --   -0.08791  -0.08790  -0.01767  -0.01682  -0.00076
 Alpha virt. eigenvalues --   -0.00027   0.02185   0.02210   0.03104   0.03228
 Alpha virt. eigenvalues --    0.04702   0.04734   0.05084   0.05175   0.06163

 Mulliken charges:
               1
     1  Mg   0.838754
     2  C   -0.002971
     3  C   -0.094120
     4  C   -0.045890
     5  C   -0.063963
     6  N   -0.256781
     7  C   -0.052453
     8  C   -0.014002
     9  C   -0.086997
    10  C    0.046293
    11  C    0.104807
    12  C    0.053458
    13  C   -0.071800
    14  H    0.036130
    15  N   -0.433144
    16  C    0.168403
    17  C   -0.177180
    18  C   -0.004036
    19  C    0.148701
    20  C    0.110183
    21  C    0.012251
    22  O   -0.249653
    23  C    0.062496
    24  N   -0.341151
    25  C    0.041238
    26  C   -0.028158
    27  C   -0.024004
    28  C    0.074862
    29  C    0.076168
    30  C    0.035123
    31  C   -0.004494
    32  N   -0.310487
    33  C    0.080419
    34  C   -0.169697
    35  C    0.008386
    36  C    0.082964
    37  C    0.127310
    38  C    0.046133
    39  O   -0.188366
    40  C   -0.005328
    41  C    0.212876
    42  O   -0.257127
    43  O   -0.304780
    44  C    0.157684
    45  H   -0.017596
    46  H   -0.016857
    47  H   -0.041462
    48  H    0.000972
    49  H   -0.004041
    50  H    0.025499
    51  H    0.016448
    52  H    0.016679
    53  H    0.011164
    54  H    0.044113
    55  H    0.017911
    56  H    0.017933
    57  H    0.005886
    58  H    0.026829
    59  H    0.039484
    60  H    0.037372
    61  H    0.035598
    62  H    0.031441
    63  H    0.016513
    64  H    0.009496
    65  H    0.023197
    66  H    0.012559
    67  H    0.004782
    68  H    0.006369
    69  H    0.004770
    70  H    0.008734
    71  H    0.018136
    72  H    0.028966
    73  H    0.047608
    74  H    0.009124
    75  H    0.046049
    76  H    0.035188
    77  H    0.043003
    78  H    0.046394
    79  H    0.053684
    80  Mg   0.837824
    81  C   -0.016857
    82  C   -0.087800
    83  C   -0.045526
    84  C   -0.064897
    85  N   -0.254578
    86  C   -0.049808
    87  C   -0.015111
    88  C   -0.090470
    89  C    0.045743
    90  C    0.114364
    91  C    0.062528
    92  C   -0.077937
    93  H    0.034961
    94  N   -0.423491
    95  C    0.162924
    96  C   -0.174629
    97  C   -0.007816
    98  C    0.152104
    99  C    0.099370
   100  C    0.015556
   101  O   -0.253197
   102  C    0.061196
   103  N   -0.350051
   104  C    0.037523
   105  C   -0.019832
   106  C   -0.034815
   107  C    0.088924
   108  C    0.073661
   109  C    0.034726
   110  C   -0.007670
   111  N   -0.324093
   112  C    0.078440
   113  C   -0.163144
   114  C    0.002278
   115  C    0.096208
   116  C    0.131484
   117  C    0.042393
   118  O   -0.187790
   119  C    0.000941
   120  C    0.211280
   121  O   -0.251039
   122  O   -0.305608
   123  C    0.152002
   124  H   -0.019637
   125  H   -0.015593
   126  H   -0.040464
   127  H   -0.000557
   128  H   -0.004307
   129  H    0.022510
   130  H    0.014389
   131  H    0.016348
   132  H    0.013877
   133  H    0.037674
   134  H    0.020888
   135  H    0.019572
   136  H    0.008782
   137  H    0.026131
   138  H    0.039776
   139  H    0.038252
   140  H    0.036378
   141  H    0.033892
   142  H    0.014388
   143  H    0.012413
   144  H    0.025123
   145  H    0.011641
   146  H    0.005665
   147  H    0.006247
   148  H    0.003656
   149  H    0.010921
   150  H    0.017930
   151  H    0.030119
   152  H    0.046033
   153  H    0.008495
   154  H    0.046968
   155  H    0.035101
   156  H    0.044035
   157  H    0.049526
   158  H    0.053561
 Sum of Mulliken charges =  -0.00000

 Dipole moment (field-independent basis, Debye):
    X=              4.3193    Y=              6.5744    Z=             -3.6144  Tot=              8.6569
 Quadrupole moment (field-independent basis, Debye-Ang):
   XX=           -498.7142   YY=           -563.2727   ZZ=           -462.4094
   XY=              1.3933   XZ=            -60.7465   YZ=             -5.8823

 Normal termination of Gaussian 16 at Sun Sep 12 17:19:28 2021.
