 Gaussian 16, Revision A.03,
 Gaussian 16:  ES64L-G16RevA.03 25-Dec-2016

 -----------------------------------
 #p cam-b3lyp/Def2SVP td=(nstates=5)
 -----------------------------------

 --------------------------------
 TDDFT excited states in gaussian
 --------------------------------
 Symbolic Z-matrix:
 Charge =  0 Multiplicity = 1

                         Standard orientation:
 ---------------------------------------------------------------------
 Center     Atomic      Atomic             Coordinates (Angstroms)
 Number     Number       Type             X           Y           Z
 ---------------------------------------------------------------------
      1         12           0        6.178489    0.989688    0.583262
      2          6           0        6.688998   -2.290470   -0.755455
      3          6           0        7.168100    2.216934   -2.442891
      4          6           0        6.172722    3.884750    1.877558
      5          6           0        6.334506   -0.441748    3.756952
      6          7           0        6.820599   -0.010500   -1.284347
      7          6           0        6.915245   -1.274092   -1.686279
      8          6           0        7.203893   -1.417584   -3.210571
      9          6           0        7.880980    0.001763   -3.473261
     10          6           0        7.225255    0.794178   -2.356110
     11          6           0        9.390923    0.005787   -3.257489
     12          6           0        5.893608   -1.591422   -4.050013
     13          6           0        6.099550   -2.061703   -5.492850
     14          1           0        5.117600   -2.958087   -6.084136
     15          7           0        6.132342    2.772729   -0.266141
     16          6           0        6.561667    3.087706   -1.511835
     17          6           0        6.313905    4.536481   -1.674149
     18          6           0        5.881386    5.074782   -0.354584
     19          6           0        6.072525    3.922593    0.488805
     20          6           0        6.444227    5.251888   -2.983714
     21          6           0        5.385948    6.417943    0.079689
     22          8           0        5.285930    6.739894    1.312943
     23          6           0        5.100904    7.390584   -0.990713
     24          7           0        6.462651    1.673116    2.535136
     25          6           0        6.350367    2.971809    2.834756
     26          6           0        6.312694    3.188578    4.318511
     27          6           0        6.177826    1.738696    4.973803
     28          6           0        6.247633    0.888223    3.681482
     29          6           0        7.526537    3.909801    4.920535
     30          6           0        4.989903    1.512502    5.942356
     31          6           0        3.686322    1.569848    5.177838
     32          7           0        6.282669   -1.022265    1.390873
     33          6           0        6.361899   -1.384889    2.743242
     34          6           0        6.522393   -2.849887    2.788978
     35          6           0        6.542146   -3.238449    1.450892
     36          6           0        6.429191   -2.086286    0.621404
     37          6           0        6.686261   -3.633975    3.964898
     38          6           0        6.657156   -4.356470    0.528580
     39          8           0        6.682550   -5.582034    0.650400
     40          6           0        6.879310   -3.775797   -0.937467
     41          6           0        5.935522   -4.497780   -1.860133
     42          8           0        4.701095   -4.343630   -1.761174
     43          8           0        6.633835   -5.063720   -2.856434
     44          6           0        5.753889   -5.771709   -3.824215
     45          1           0        7.683827    2.716721   -3.265193
     46          1           0        6.063731    4.853899    2.368790
     47          1           0        6.305084   -0.967123    4.713283
     48          1           0        7.900401   -2.215697   -3.468092
     49          1           0        7.601956    0.412443   -4.443421
     50          1           0        9.735214   -0.937151   -2.832927
     51          1           0        9.584106    0.827168   -2.567194
     52          1           0        9.913357    0.260483   -4.179969
     53          1           0        5.452832   -0.611903   -4.235271
     54          1           0        5.199559   -2.265450   -3.546716
     55          1           0        7.108513   -2.445354   -5.646841
     56          1           0        6.037419   -1.192407   -6.147576
     57          1           0        6.936485    4.631591   -3.731684
     58          1           0        7.131051    6.083116   -2.825464
     59          1           0        5.486484    5.629501   -3.342138
     60          1           0        6.006825    7.560883   -1.572825
     61          1           0        4.672196    8.262665   -0.498233
     62          1           0        4.372588    6.957234   -1.676798
     63          1           0        5.451347    3.791101    4.603945
     64          1           0        7.055729    1.472942    5.563154
     65          1           0        7.269231    4.814536    5.471856
     66          1           0        8.223227    4.129366    4.112014
     67          1           0        8.143067    3.296689    5.577346
     68          1           0        4.956754    2.301828    6.692563
     69          1           0        5.038026    0.558173    6.466943
     70          1           0        3.479903    2.638390    5.128424
     71          1           0        2.901580    1.045474    5.724119
     72          1           0        3.808884    1.213996    4.154689
     73          1           0        6.052170   -4.511263    3.837369
     74          1           0        6.410460   -3.072180    4.857043
     75          1           0        7.754253   -3.846394    3.918758
     76          1           0        7.922386   -3.959935   -1.192827
     77          1           0        6.108814   -6.800416   -3.887660
     78          1           0        5.757739   -5.177844   -4.738389
     79          1           0        4.721256   -5.929251   -3.510862
     80         12           0       -6.989615    0.099999   -0.268708
     81          6           0       -4.370212   -2.303536    0.222021
     82          6           0       -4.561387    2.364778   -1.049150
     83          6           0       -9.227286    2.349501   -0.270593
     84          6           0       -9.057827   -1.975260    1.618485
     85          7           0       -4.786305   -0.067575   -0.366537
     86          6           0       -3.906525   -1.046702   -0.219328
     87          6           0       -2.458695   -0.679351   -0.641690
     88          6           0       -2.552387    0.913601   -0.461174
     89          6           0       -4.054025    1.095622   -0.672406
     90          6           0       -2.207380    1.381482    0.942888
     91          6           0       -2.152379   -1.071777   -2.129704
     92          6           0       -0.672115   -1.026399   -2.515077
     93          1           0       -0.168603   -2.017848   -3.461651
     94          7           0       -6.983821    1.916532   -1.067916
     95          6           0       -5.906624    2.683540   -1.337388
     96          6           0       -6.435111    3.936406   -1.898805
     97          6           0       -7.918806    3.911916   -1.785915
     98          6           0       -8.103617    2.707801   -1.001039
     99          6           0       -5.560021    4.972905   -2.541706
    100          6           0       -8.992777    4.828368   -2.288824
    101          8           0      -10.201469    4.742321   -1.871094
    102          6           0       -8.569004    5.889288   -3.214207
    103          7           0       -8.805104    0.283649    0.727589
    104          6           0       -9.610954    1.337273    0.507547
    105          6           0      -10.974147    1.118525    1.119297
    106          6           0      -10.993593   -0.409745    1.590031
    107          6           0       -9.542989   -0.802665    1.234014
    108          6           0      -11.324502    2.019881    2.303011
    109          6           0      -12.151813   -1.296079    1.055602
    110          6           0      -12.004988   -1.492996   -0.436057
    111          7           0       -6.842816   -1.876921    0.590549
    112          6           0       -7.816539   -2.544782    1.365094
    113          6           0       -7.214975   -3.815190    1.819658
    114          6           0       -5.914826   -3.787492    1.293016
    115          6           0       -5.713135   -2.575594    0.578801
    116          6           0       -7.844789   -4.782940    2.652065
    117          6           0       -4.663627   -4.503120    1.187818
    118          8           0       -4.272013   -5.621458    1.519039
    119          6           0       -3.565916   -3.517487    0.596253
    120          6           0       -2.836257   -4.240543   -0.502520
    121          8           0       -3.429361   -4.570129   -1.544728
    122          8           0       -1.517341   -4.230415   -0.236549
    123          6           0       -0.750050   -4.926256   -1.303736
    124          1           0       -3.871857    3.208534   -1.087791
    125          1           0      -10.069502    3.042707   -0.330695
    126          1           0       -9.670537   -2.721620    2.128589
    127          1           0       -1.682838   -1.081158   -0.001086
    128          1           0       -1.992800    1.432409   -1.235164
    129          1           0       -2.070286    0.552675    1.621447
    130          1           0       -3.038876    1.996926    1.260501
    131          1           0       -1.336131    2.042212    0.916621
    132          1           0       -2.543474   -0.290329   -2.793868
    133          1           0       -2.556159   -2.038599   -2.359608
    134          1           0       -0.018919   -0.967963   -1.635950
    135          1           0       -0.481921   -0.094322   -3.052727
    136          1           0       -4.499225    4.792003   -2.328669
    137          1           0       -5.777573    5.926065   -2.047721
    138          1           0       -5.748879    5.078418   -3.612152
    139          1           0       -7.818561    6.510905   -2.731625
    140          1           0       -9.488687    6.384058   -3.532420
    141          1           0       -8.083728    5.425070   -4.080024
    142          1           0      -11.756199    1.270179    0.385457
    143          1           0      -11.084040   -0.498426    2.682632
    144          1           0      -12.252511    2.602130    2.148606
    145          1           0      -10.487778    2.680163    2.488641
    146          1           0      -11.430917    1.507764    3.257800
    147          1           0      -13.112114   -0.797904    1.209867
    148          1           0      -12.211158   -2.266159    1.537693
    149          1           0      -12.457922   -0.587262   -0.850298
    150          1           0      -12.538763   -2.384471   -0.759147
    151          1           0      -10.949049   -1.497740   -0.730354
    152          1           0       -7.619048   -5.752398    2.228170
    153          1           0       -8.918045   -4.615590    2.714434
    154          1           0       -7.341927   -4.580449    3.601478
    155          1           0       -2.901047   -3.238499    1.414600
    156          1           0       -0.159458   -5.707337   -0.815052
    157          1           0       -0.193122   -4.132949   -1.836883
    158          1           0       -1.310873   -5.506522   -2.027073
 ---------------------------------------------------------------------

 SCF Done:  E(RCAM-B3LYP) =  -4069.81201970     A.U. after   19 cycles

 Excitation energies and oscillator strengths:

 Excited State   1:      Singlet-A      1.6635 eV  745.32 nm  f=0.0047  <S**2>=0.000
     309 -> 315       -0.11437
     310 -> 316        0.12661
     311 -> 313       -0.45813
     312 -> 314        0.51162
 This state for optimization and/or second-order correction.
 Total Energy, E(TD-HF/TD-DFT) =  -4069.75088738
 Copying the excited state density for this state as the 1-particle RhoCI density.

 Excited State   2:      Singlet-A      1.6899 eV  733.66 nm  f=0.7317  <S**2>=0.000
     309 -> 315        0.13270
     310 -> 316        0.11790
     311 -> 313        0.51027
     312 -> 314        0.45703

 Excited State   3:      Singlet-A      2.1845 eV  567.57 nm  f=0.0994  <S**2>=0.000
     310 -> 314        0.63872
     312 -> 316       -0.27010

 Excited State   4:      Singlet-A      2.1929 eV  565.38 nm  f=0.1018  <S**2>=0.000
     309 -> 313        0.63659
     311 -> 315       -0.27659

 Excited State   5:      Singlet-A      2.5653 eV  483.31 nm  f=0.0000  <S**2>=0.000
     312 -> 313        0.70678

 The electronic state is 1-A.
 Alpha  occ. eigenvalues --  -46.88043 -46.87488 -19.26520 -19.25809 -19.19285
 Alpha  occ. eigenvalues --  -19.19069 -19.18742 -19.18581 -19.18377 -19.17816
 Alpha  occ. eigenvalues --  -14.42686 -14.42315 -14.41684 -14.41190 -14.39649
 Alpha  occ. eigenvalues --  -14.39183 -14.38824 -14.38422 -10.39337 -10.38672
 Alpha  occ. eigenvalues --  -10.35704 -10.35262 -10.34599 -10.33983 -10.31900
 Alpha  occ. eigenvalues --  -10.31629 -10.31151 -10.31111 -10.31018 -10.30824
 Alpha  occ. eigenvalues --  -10.30797 -10.30741 -10.30440 -10.30225 -10.30177
 Alpha  occ. eigenvalues --  -10.30143 -10.29994 -10.29860 -10.29726 -10.29491
 Alpha  occ. eigenvalues --  -10.29280 -10.29231 -10.28977 -10.28761 -10.28604
 Alpha  occ. eigenvalues --  -10.28450 -10.28332 -10.28259 -10.28218 -10.28017
 Alpha  occ. eigenvalues --  -10.27956 -10.27916 -10.27828 -10.27822 -10.27724
 Alpha  occ. eigenvalues --  -10.27708 -10.27658 -10.27638 -10.27495 -10.27390
 Alpha  occ. eigenvalues --  -10.27382 -10.27349 -10.27301 -10.27283 -10.27244
 Alpha  occ. eigenvalues --  -10.26956 -10.26751 -10.26685 -10.26424 -10.26390
 Alpha  occ. eigenvalues --  -10.26385 -10.26317 -10.26243 -10.26025 -10.25998
 Alpha  occ. eigenvalues --  -10.25808 -10.25773 -10.25693 -10.25619 -10.25281
 Alpha  occ. eigenvalues --  -10.25055 -10.25020 -10.24922 -10.24690 -10.24621
 Alpha  occ. eigenvalues --  -10.24521  -3.16788  -3.16238  -1.91670  -1.91255
 Alpha  occ. eigenvalues --   -1.91120  -1.91097  -1.90709  -1.90546  -1.16873
 Alpha  occ. eigenvalues --   -1.16132  -1.08834  -1.08404  -1.07472  -1.06900
 Alpha  occ. eigenvalues --   -1.06836  -1.06515  -1.04816  -1.04307  -1.03994
 Alpha  occ. eigenvalues --   -1.03488  -1.03470  -1.02871  -1.02645  -1.01938
 Alpha  occ. eigenvalues --   -0.92202  -0.91771  -0.89742  -0.89411  -0.89333
 Alpha  occ. eigenvalues --   -0.88915  -0.88505  -0.88074  -0.88070  -0.87902
 Alpha  occ. eigenvalues --   -0.87619  -0.87518  -0.87492  -0.86976  -0.85210
 Alpha  occ. eigenvalues --   -0.84768  -0.84153  -0.83714  -0.83214  -0.82879
 Alpha  occ. eigenvalues --   -0.82797  -0.82424  -0.81810  -0.81254  -0.80828
 Alpha  occ. eigenvalues --   -0.80159  -0.79029  -0.78477  -0.77439  -0.77154
 Alpha  occ. eigenvalues --   -0.76947  -0.76622  -0.76142  -0.75555  -0.75111
 Alpha  occ. eigenvalues --   -0.74607  -0.72994  -0.72523  -0.71892  -0.71377
 Alpha  occ. eigenvalues --   -0.70124  -0.69617  -0.69100  -0.68601  -0.67871
 Alpha  occ. eigenvalues --   -0.67458  -0.67401  -0.66960  -0.65514  -0.65082
 Alpha  occ. eigenvalues --   -0.65022  -0.64848  -0.64569  -0.64491  -0.64376
 Alpha  occ. eigenvalues --   -0.64025  -0.62527  -0.61907  -0.60679  -0.60188
 Alpha  occ. eigenvalues --   -0.60029  -0.59579  -0.59213  -0.58794  -0.58731
 Alpha  occ. eigenvalues --   -0.58212  -0.57812  -0.57536  -0.57267  -0.57035
 Alpha  occ. eigenvalues --   -0.56532  -0.56208  -0.56021  -0.55751  -0.55558
 Alpha  occ. eigenvalues --   -0.55531  -0.55206  -0.55007  -0.54749  -0.54196
 Alpha  occ. eigenvalues --   -0.54122  -0.53672  -0.53531  -0.53453  -0.53151
 Alpha  occ. eigenvalues --   -0.53034  -0.52998  -0.52909  -0.52656  -0.52626
 Alpha  occ. eigenvalues --   -0.52493  -0.52250  -0.52105  -0.51848  -0.51705
 Alpha  occ. eigenvalues --   -0.51414  -0.51414  -0.50962  -0.50824  -0.50346
 Alpha  occ. eigenvalues --   -0.50249  -0.50155  -0.49807  -0.49746  -0.49715
 Alpha  occ. eigenvalues --   -0.49441  -0.49308  -0.49296  -0.48983  -0.48866
 Alpha  occ. eigenvalues --   -0.48811  -0.48694  -0.48666  -0.48296  -0.48219
 Alpha  occ. eigenvalues --   -0.48132  -0.47924  -0.47523  -0.47375  -0.47018
 Alpha  occ. eigenvalues --   -0.46922  -0.46783  -0.46586  -0.46516  -0.46379
 Alpha  occ. eigenvalues --   -0.46315  -0.46088  -0.46027  -0.45855  -0.45531
 Alpha  occ. eigenvalues --   -0.45416  -0.45040  -0.44795  -0.44738  -0.44373
 Alpha  occ. eigenvalues --   -0.44308  -0.44269  -0.44266  -0.44243  -0.43925
 Alpha  occ. eigenvalues --   -0.43887  -0.43715  -0.43712  -0.43610  -0.43247
 Alpha  occ. eigenvalues --   -0.43243  -0.43121  -0.42930  -0.42879  -0.42708
 Alpha  occ. eigenvalues --   -0.42466  -0.42396  -0.42231  -0.41926  -0.41770
 Alpha  occ. eigenvalues --   -0.41759  -0.41452  -0.41361  -0.41229  -0.41098
 Alpha  occ. eigenvalues --   -0.41070  -0.40792  -0.40787  -0.40551  -0.40491
 Alpha  occ. eigenvalues --   -0.40472  -0.40308  -0.39948  -0.39662  -0.39289
 Alpha  occ. eigenvalues --   -0.38687  -0.38185  -0.37981  -0.37543  -0.37498
 Alpha  occ. eigenvalues --   -0.37388  -0.37093  -0.36959  -0.36951  -0.36424
 Alpha  occ. eigenvalues --   -0.36407  -0.35937  -0.34518  -0.34069  -0.34033
 Alpha  occ. eigenvalues --   -0.33497  -0.33422  -0.32983  -0.31598  -0.31269
 Alpha  occ. eigenvalues --   -0.31138  -0.30785  -0.30236  -0.29710  -0.29690
 Alpha  occ. eigenvalues --   -0.29547  -0.29165  -0.29032  -0.24316  -0.23854
 Alpha  occ. eigenvalues --   -0.21358  -0.20945
 Alpha virt. eigenvalues --   -0.09008  -0.08619  -0.01987  -0.01515  -0.00300
 Alpha virt. eigenvalues --    0.00138   0.01980   0.02404   0.02738   0.03385
 Alpha virt. eigenvalues --    0.04489   0.04847   0.04948   0.05559   0.05946

 Mulliken charges:
               1
     1  Mg   0.836590
     2  C   -0.003549
     3  C   -0.094278
     4  C   -0.046134
     5  C   -0.063647
     6  N   -0.256871
     7  C   -0.052470
     8  C   -0.013891
     9  C   -0.086901
    10  C    0.045911
    11  C    0.104690
    12  C    0.053558
    13  C   -0.072011
    14  H    0.036183
    15  N   -0.433174
    16  C    0.167739
    17  C   -0.177497
    18  C   -0.004467
    19  C    0.148083
    20  C    0.110132
    21  C    0.011415
    22  O   -0.249548
    23  C    0.062879
    24  N   -0.341045
    25  C    0.041089
    26  C   -0.028177
    27  C   -0.024151
    28  C    0.074638
    29  C    0.076015
    30  C    0.035082
    31  C   -0.004569
    32  N   -0.310647
    33  C    0.080326
    34  C   -0.168962
    35  C    0.008791
    36  C    0.082712
    37  C    0.127155
    38  C    0.046196
    39  O   -0.187362
    40  C   -0.005352
    41  C    0.213519
    42  O   -0.259027
    43  O   -0.304269
    44  C    0.157889
    45  H   -0.017246
    46  H   -0.016709
    47  H   -0.040686
    48  H    0.001448
    49  H   -0.003986
    50  H    0.025775
    51  H    0.016619
    52  H    0.017107
    53  H    0.010543
    54  H    0.043112
    55  H    0.018580
    56  H    0.018159
    57  H    0.006161
    58  H    0.027299
    59  H    0.038594
    60  H    0.038021
    61  H    0.035645
    62  H    0.030094
    63  H    0.016279
    64  H    0.010103
    65  H    0.023466
    66  H    0.012725
    67  H    0.005255
    68  H    0.006906
    69  H    0.005595
    70  H    0.008303
    71  H    0.018786
    72  H    0.027770
    73  H    0.048630
    74  H    0.009654
    75  H    0.046500
    76  H    0.035822
    77  H    0.044085
    78  H    0.046723
    79  H    0.052244
    80  Mg   0.837333
    81  C   -0.016668
    82  C   -0.087955
    83  C   -0.045852
    84  C   -0.065408
    85  N   -0.254514
    86  C   -0.049872
    87  C   -0.014987
    88  C   -0.090415
    89  C    0.045765
    90  C    0.114435
    91  C    0.062947
    92  C   -0.078115
    93  H    0.036962
    94  N   -0.423407
    95  C    0.162674
    96  C   -0.174909
    97  C   -0.008212
    98  C    0.152007
    99  C    0.099555
   100  C    0.015290
   101  O   -0.253619
   102  C    0.061334
   103  N   -0.350140
   104  C    0.037365
   105  C   -0.019705
   106  C   -0.034760
   107  C    0.089065
   108  C    0.073808
   109  C    0.034815
   110  C   -0.007600
   111  N   -0.324179
   112  C    0.078696
   113  C   -0.163437
   114  C    0.002552
   115  C    0.096055
   116  C    0.131533
   117  C    0.042056
   118  O   -0.186782
   119  C    0.001511
   120  C    0.211181
   121  O   -0.252580
   122  O   -0.304852
   123  C    0.151788
   124  H   -0.020022
   125  H   -0.016067
   126  H   -0.040801
   127  H    0.001388
   128  H   -0.004989
   129  H    0.022782
   130  H    0.013902
   131  H    0.016238
   132  H    0.012229
   133  H    0.037796
   134  H    0.024025
   135  H    0.016570
   136  H    0.008315
   137  H    0.025753
   138  H    0.038956
   139  H    0.038032
   140  H    0.035913
   141  H    0.033545
   142  H    0.014079
   143  H    0.012174
   144  H    0.024750
   145  H    0.011599
   146  H    0.005382
   147  H    0.005923
   148  H    0.003527
   149  H    0.010736
   150  H    0.017675
   151  H    0.030335
   152  H    0.046123
   153  H    0.008130
   154  H    0.046858
   155  H    0.035729
   156  H    0.048267
   157  H    0.054146
   158  H    0.050271
 Sum of Mulliken charges =  -0.00000

 Dipole moment (field-independent basis, Debye):
    X=              4.4638    Y=              6.5764    Z=             -2.8707  Tot=              8.4508
 Quadrupole moment (field-independent basis, Debye-Ang):
   XX=           -492.3860   YY=           -559.3890   ZZ=           -467.1969
   XY=             17.5076   XZ=            -37.3006   YZ=             -9.8163

 Normal termination of Gaussian 16 at Sat Sep 11 12:08:38 2021.
