 Gaussian 16, Revision A.03,
 Gaussian 16:  ES64L-G16RevA.03 25-Dec-2016

 -----------------------------------
 #p cam-b3lyp/Def2SVP td=(nstates=5)
 -----------------------------------

 --------------------------------
 TDDFT excited states in gaussian
 --------------------------------
 Symbolic Z-matrix:
 Charge =  0 Multiplicity = 1

                         Standard orientation:
 ---------------------------------------------------------------------
 Center     Atomic      Atomic             Coordinates (Angstroms)
 Number     Number       Type             X           Y           Z
 ---------------------------------------------------------------------
      1         12           0        3.884996    1.468146    0.814915
      2          6           0        4.932235   -1.818036   -0.142431
      3          6           0        5.018429    2.550794   -2.215971
      4          6           0        3.388232    4.437374    1.811676
      5          6           0        3.892583    0.348905    4.115355
      6          7           0        4.833395    0.405082   -0.879511
      7          6           0        5.124515   -0.864593   -1.144739
      8          6           0        5.582774   -1.099198   -2.615226
      9          6           0        6.101887    0.369616   -2.954498
     10          6           0        5.242403    1.161078   -1.984550
     11          6           0        7.569711    0.592920   -2.605028
     12          6           0        4.396723   -1.517350   -3.548051
     13          6           0        4.805558   -2.078596   -4.913046
     14          1           0        4.007848   -3.145143   -5.499123
     15          7           0        3.705043    3.149371   -0.206824
     16          6           0        4.216872    3.410146   -1.433736
     17          6           0        3.809248    4.793706   -1.759750
     18          6           0        3.180923    5.381373   -0.544040
     19          6           0        3.426376    4.341793    0.422606
     20          6           0        3.982821    5.404601   -3.116374
     21          6           0        2.481047    6.679113   -0.290712
     22          8           0        2.216543    7.089933    0.890744
     23          6           0        2.188340    7.509374   -1.473096
     24          7           0        3.881523    2.348855    2.707526
     25          6           0        3.579084    3.642031    2.866309
     26          6           0        3.363592    3.978862    4.312008
     27          6           0        3.343378    2.585804    5.092222
     28          6           0        3.649627    1.644032    3.901614
     29          6           0        4.410809    4.904214    4.946887
     30          6           0        2.100074    2.287964    5.967382
     31          6           0        0.884327    2.105423    5.086622
     32          7           0        4.154877   -0.434984    1.823034
     33          6           0        4.140024   -0.666005    3.206176
     34          6           0        4.475423   -2.087226    3.410394
     35          6           0        4.679662   -2.583517    2.124382
     36          6           0        4.509963   -1.532370    1.178557
     37          6           0        4.614377   -2.738336    4.667845
     38          6           0        5.025939   -3.751576    1.330917
     39          8           0        5.190537   -4.947795    1.574761
     40          6           0        5.322829   -3.274984   -0.159232
     41          6           0        4.574980   -4.192803   -1.087477
     42          8           0        3.327362   -4.196189   -1.115808
     43          8           0        5.436083   -4.744577   -1.956147
     44          6           0        4.754117   -5.643977   -2.924732
     45          1           0        5.549411    3.042002   -3.033720
     46          1           0        3.110349    5.422109    2.193142
     47          1           0        3.831087   -0.091370    5.112264
     48          1           0        6.395488   -1.816816   -2.729008
     49          1           0        5.874574    0.654446   -3.981592
     50          1           0        7.983125   -0.255767   -2.060289
     51          1           0        7.588088    1.489073   -1.984492
     52          1           0        8.147929    0.834395   -3.497290
     53          1           0        3.859118   -0.624757   -3.867928
     54          1           0        3.743895   -2.231786   -3.045335
     55          1           0        5.864713   -2.336528   -4.936938
     56          1           0        4.703263   -1.284935   -5.653206
     57          1           0        4.621940    4.793153   -3.752143
     58          1           0        4.541509    6.330276   -2.979618
     59          1           0        3.027266    5.619242   -3.595097
     60          1           0        3.120795    7.747821   -1.985170
     61          1           0        1.606800    8.355868   -1.109627
     62          1           0        1.593232    6.925569   -2.175924
     63          1           0        2.409583    4.483850    4.457886
     64          1           0        4.182692    2.490887    5.781583
     65          1           0        3.988392    5.810806    5.380892
     66          1           0        5.153747    5.143985    4.186726
     67          1           0        5.028328    4.437387    5.713802
     68          1           0        1.892917    3.127538    6.630063
     69          1           0        2.212369    1.397270    6.585691
     70          1           0        0.553134    3.128772    4.913708
     71          1           0        0.119040    1.530396    5.609011
     72          1           0        1.153843    1.682226    4.118763
     73          1           0        4.110313   -3.699832    4.570826
     74          1           0        4.181445   -2.143453    5.471765
     75          1           0        5.699555   -2.810058    4.739274
     76          1           0        6.401260   -3.340118   -0.300182
     77          1           0        5.238467   -6.617972   -2.854215
     78          1           0        4.777578   -5.135845   -3.888918
     79          1           0        3.722443   -5.909824   -2.691682
     80         12           0       -4.820023   -0.370636   -0.510258
     81          6           0       -2.158769   -2.762557   -0.235512
     82          6           0       -2.575677    1.734037   -1.982613
     83          6           0       -7.015576    1.915086   -0.360430
     84          6           0       -6.504636   -2.169502    1.953859
     85          7           0       -2.673551   -0.599049   -0.992665
     86          6           0       -1.783255   -1.575111   -0.897626
     87          6           0       -0.438595   -1.291695   -1.619499
     88          6           0       -0.494634    0.313188   -1.610900
     89          6           0       -2.009089    0.504606   -1.561215
     90          6           0        0.106053    0.929640   -0.358492
     91          6           0       -0.414794   -1.857782   -3.082713
     92          6           0        0.968123   -1.890703   -3.737106
     93          1           0        1.285389   -2.994724   -4.638744
     94          7           0       -4.960078    1.342595   -1.502126
     95          6           0       -3.950546    2.048904   -2.052804
     96          6           0       -4.572242    3.241653   -2.648649
     97          6           0       -6.009141    3.264402   -2.261980
     98          6           0       -6.046700    2.161958   -1.322149
     99          6           0       -3.830295    4.177828   -3.557768
    100          6           0       -7.156450    4.142246   -2.661068
    101          8           0       -8.266575    4.132181   -2.020472
    102          6           0       -6.910424    5.080969   -3.765496
    103          7           0       -6.418419   -0.033012    0.775629
    104          6           0       -7.249495    1.007052    0.587231
    105          6           0       -8.475573    0.890826    1.461086
    106          6           0       -8.409540   -0.573131    2.101442
    107          6           0       -7.050988   -1.037361    1.532036
    108          6           0       -8.598403    1.928803    2.576381
    109          6           0       -9.648272   -1.487537    1.896337
    110          6           0       -9.781568   -1.856163    0.436283
    111          7           0       -4.519133   -2.239841    0.530692
    112          6           0       -5.332946   -2.792640    1.543706
    113          6           0       -4.659340   -4.016634    2.023822
    114          6           0       -3.479698   -4.079034    1.266829
    115          6           0       -3.412403   -2.961203    0.391941
    116          6           0       -5.124960   -4.868647    3.064689
    117          6           0       -2.270952   -4.830663    1.016435
    118          8           0       -1.826324   -5.912806    1.397248
    119          6           0       -1.300805   -3.944298    0.122254
    120          6           0       -0.789204   -4.804281   -1.000778
    121          8           0       -1.566197   -5.236500   -1.870313
    122          8           0        0.556178   -4.794400   -0.985628
    123          6           0        1.110678   -5.624621   -2.087937
    124          1           0       -1.904040    2.551799   -2.245419
    125          1           0       -7.853217    2.616211   -0.344198
    126          1           0       -7.013004   -2.838661    2.651324
    127          1           0        0.442193   -1.635831   -1.090756
    128          1           0       -0.087871    0.727547   -2.529703
    129          1           0        0.365595    0.180450    0.374639
    130          1           0       -0.650973    1.596243    0.033427
    131          1           0        0.958250    1.562820   -0.621501
    132          1           0       -0.921314   -1.148128   -3.749467
    133          1           0       -0.855756   -2.834898   -3.120429
    134          1           0        1.773430   -1.747742   -3.006365
    135          1           0        1.056510   -1.030449   -4.405076
    136          1           0       -2.748661    3.997909   -3.524510
    137          1           0       -3.950768    5.185753   -3.146151
    138          1           0       -4.214655    4.165247   -4.579918
    139          1           0       -6.082404    5.735958   -3.505058
    140          1           0       -7.872468    5.557420   -3.963858
    141          1           0       -6.595249    4.510211   -4.646125
    142          1           0       -9.380145    0.976031    0.871526
    143          1           0       -8.295473   -0.534852    3.194765
    144          1           0       -9.538051    2.510975    2.529273
    145          1           0       -7.740736    2.586427    2.526604
    146          1           0       -8.526291    1.531200    3.587278
    147          1           0      -10.562401   -0.953016    2.166191
    148          1           0       -9.618473   -2.394858    2.490358
    149          1           0      -10.302197   -0.993216    0.010429
    150          1           0      -10.367460   -2.766047    0.322863
    151          1           0       -8.798729   -1.918718   -0.045140
    152          1           0       -4.983436   -5.884978    2.721850
    153          1           0       -6.167660   -4.670568    3.304086
    154          1           0       -4.454077   -4.571145    3.875048
    155          1           0       -0.494996   -3.589462    0.765937
    156          1           0        1.780596   -6.358477   -1.629296
    157          1           0        1.560024   -4.910169   -2.803058
    158          1           0        0.424279   -6.270297   -2.623123
 ---------------------------------------------------------------------

 SCF Done:  E(RCAM-B3LYP) =  -4069.80982347     A.U. after   19 cycles

 Excitation energies and oscillator strengths:

 Excited State   1:      Singlet-A      1.6408 eV  755.61 nm  f=0.0022  <S**2>=0.000
     309 -> 315        0.12190
     310 -> 316        0.11165
     311 -> 313        0.50422
     312 -> 314       -0.46813
 This state for optimization and/or second-order correction.
 Total Energy, E(TD-HF/TD-DFT) =  -4069.74952351
 Copying the excited state density for this state as the 1-particle RhoCI density.

 Excited State   2:      Singlet-A      1.7054 eV  727.01 nm  f=0.6808  <S**2>=0.000
     309 -> 315        0.12458
     310 -> 316       -0.13251
     311 -> 313        0.46518
     312 -> 314        0.50123

 Excited State   3:      Singlet-A      2.1779 eV  569.28 nm  f=0.0562  <S**2>=0.000
     309 -> 313        0.29723
     310 -> 314        0.54876
     311 -> 315       -0.12505
     312 -> 313       -0.17649
     312 -> 316        0.22882

 Excited State   4:      Singlet-A      2.1872 eV  566.86 nm  f=0.0992  <S**2>=0.000
     309 -> 313        0.40978
     310 -> 314       -0.32954
     311 -> 315       -0.18145
     312 -> 313       -0.40162
     312 -> 316       -0.14231

 Excited State   5:      Singlet-A      2.2050 eV  562.28 nm  f=0.0394  <S**2>=0.000
     309 -> 313        0.39266
     311 -> 315       -0.17086
     312 -> 313        0.55330

 The electronic state is 1-A.
 Alpha  occ. eigenvalues --  -46.88259 -46.87335 -19.26915 -19.24769 -19.19646
 Alpha  occ. eigenvalues --  -19.19211 -19.18518 -19.18445 -19.18004 -19.17514
 Alpha  occ. eigenvalues --  -14.42874 -14.42183 -14.41845 -14.41031 -14.39840
 Alpha  occ. eigenvalues --  -14.39029 -14.38994 -14.38258 -10.39706 -10.37903
 Alpha  occ. eigenvalues --  -10.35845 -10.35131 -10.34755 -10.33652 -10.32294
 Alpha  occ. eigenvalues --  -10.31821 -10.31377 -10.30984 -10.30963 -10.30903
 Alpha  occ. eigenvalues --  -10.30647 -10.30593 -10.30279 -10.30055 -10.30019
 Alpha  occ. eigenvalues --  -10.29995 -10.29989 -10.29879 -10.29663 -10.29562
 Alpha  occ. eigenvalues --  -10.29190 -10.29160 -10.29066 -10.28991 -10.28800
 Alpha  occ. eigenvalues --  -10.28533 -10.28211 -10.28176 -10.28137 -10.28044
 Alpha  occ. eigenvalues --  -10.28032 -10.27994 -10.27913 -10.27907 -10.27841
 Alpha  occ. eigenvalues --  -10.27794 -10.27742 -10.27667 -10.27611 -10.27384
 Alpha  occ. eigenvalues --  -10.27283 -10.27278 -10.27196 -10.27136 -10.27125
 Alpha  occ. eigenvalues --  -10.27081 -10.26834 -10.26589 -10.26421 -10.26398
 Alpha  occ. eigenvalues --  -10.26261 -10.26222 -10.26161 -10.26147 -10.26063
 Alpha  occ. eigenvalues --  -10.25932 -10.25693 -10.25630 -10.25560 -10.25215
 Alpha  occ. eigenvalues --  -10.25180 -10.25178 -10.24913 -10.24528 -10.24509
 Alpha  occ. eigenvalues --  -10.24354  -3.16949  -3.16086  -1.91831  -1.91419
 Alpha  occ. eigenvalues --   -1.91261  -1.90969  -1.90557  -1.90393  -1.17277
 Alpha  occ. eigenvalues --   -1.15168  -1.08984  -1.08062  -1.07611  -1.07338
 Alpha  occ. eigenvalues --   -1.06703  -1.05736  -1.05012  -1.04162  -1.04156
 Alpha  occ. eigenvalues --   -1.03640  -1.03333  -1.02813  -1.02716  -1.01780
 Alpha  occ. eigenvalues --   -0.92400  -0.91523  -0.89869  -0.89624  -0.89174
 Alpha  occ. eigenvalues --   -0.88838  -0.88619  -0.88210  -0.88087  -0.87930
 Alpha  occ. eigenvalues --   -0.87688  -0.87467  -0.87336  -0.86846  -0.85423
 Alpha  occ. eigenvalues --   -0.84647  -0.84272  -0.83555  -0.83358  -0.83092
 Alpha  occ. eigenvalues --   -0.82675  -0.82281  -0.82081  -0.81046  -0.80848
 Alpha  occ. eigenvalues --   -0.79747  -0.79192  -0.78337  -0.77598  -0.77365
 Alpha  occ. eigenvalues --   -0.76833  -0.76432  -0.76354  -0.75349  -0.75243
 Alpha  occ. eigenvalues --   -0.74373  -0.73149  -0.72378  -0.72065  -0.71234
 Alpha  occ. eigenvalues --   -0.70205  -0.69505  -0.69312  -0.68532  -0.68050
 Alpha  occ. eigenvalues --   -0.67738  -0.67206  -0.66794  -0.65723  -0.65315
 Alpha  occ. eigenvalues --   -0.65063  -0.64790  -0.64618  -0.64416  -0.64090
 Alpha  occ. eigenvalues --   -0.63804  -0.62811  -0.61259  -0.60834  -0.60225
 Alpha  occ. eigenvalues --   -0.60046  -0.59439  -0.59388  -0.58931  -0.58613
 Alpha  occ. eigenvalues --   -0.58191  -0.57951  -0.57702  -0.57022  -0.56808
 Alpha  occ. eigenvalues --   -0.56613  -0.56493  -0.55929  -0.55878  -0.55717
 Alpha  occ. eigenvalues --   -0.55259  -0.55040  -0.54836  -0.54600  -0.54366
 Alpha  occ. eigenvalues --   -0.53784  -0.53712  -0.53646  -0.53596  -0.53385
 Alpha  occ. eigenvalues --   -0.53187  -0.52824  -0.52773  -0.52729  -0.52395
 Alpha  occ. eigenvalues --   -0.52372  -0.52212  -0.52062  -0.51914  -0.51580
 Alpha  occ. eigenvalues --   -0.51528  -0.51257  -0.50988  -0.50699  -0.50382
 Alpha  occ. eigenvalues --   -0.50292  -0.50245  -0.49969  -0.49749  -0.49668
 Alpha  occ. eigenvalues --   -0.49596  -0.49483  -0.49228  -0.49094  -0.48870
 Alpha  occ. eigenvalues --   -0.48806  -0.48757  -0.48716  -0.48141  -0.48094
 Alpha  occ. eigenvalues --   -0.47952  -0.47919  -0.47705  -0.47245  -0.47142
 Alpha  occ. eigenvalues --   -0.46995  -0.46849  -0.46639  -0.46572  -0.46350
 Alpha  occ. eigenvalues --   -0.46280  -0.46175  -0.45926  -0.45568  -0.45502
 Alpha  occ. eigenvalues --   -0.45140  -0.44984  -0.44891  -0.44859  -0.44540
 Alpha  occ. eigenvalues --   -0.44485  -0.44435  -0.44223  -0.44052  -0.43995
 Alpha  occ. eigenvalues --   -0.43841  -0.43793  -0.43706  -0.43448  -0.43409
 Alpha  occ. eigenvalues --   -0.43304  -0.43080  -0.42987  -0.42561  -0.42513
 Alpha  occ. eigenvalues --   -0.42360  -0.42282  -0.42095  -0.41945  -0.41697
 Alpha  occ. eigenvalues --   -0.41523  -0.41415  -0.41286  -0.41268  -0.41222
 Alpha  occ. eigenvalues --   -0.41095  -0.40898  -0.40823  -0.40650  -0.40371
 Alpha  occ. eigenvalues --   -0.40347  -0.40149  -0.39750  -0.39496  -0.39160
 Alpha  occ. eigenvalues --   -0.38815  -0.38142  -0.38040  -0.37683  -0.37644
 Alpha  occ. eigenvalues --   -0.37293  -0.37207  -0.36954  -0.36801  -0.36604
 Alpha  occ. eigenvalues --   -0.36095  -0.35231  -0.34684  -0.34276  -0.33909
 Alpha  occ. eigenvalues --   -0.33597  -0.33010  -0.32627  -0.31739  -0.31447
 Alpha  occ. eigenvalues --   -0.31001  -0.30598  -0.30384  -0.29860  -0.29703
 Alpha  occ. eigenvalues --   -0.29383  -0.29010  -0.28852  -0.24497  -0.23676
 Alpha  occ. eigenvalues --   -0.21530  -0.20803
 Alpha virt. eigenvalues --   -0.09181  -0.08455  -0.02167  -0.01378  -0.00474
 Alpha virt. eigenvalues --    0.00246   0.01832   0.02611   0.03079   0.03610
 Alpha virt. eigenvalues --    0.04045   0.04374   0.04786   0.05395   0.06224

 Mulliken charges:
               1
     1  Mg   0.811280
     2  C   -0.005827
     3  C   -0.093385
     4  C   -0.043113
     5  C   -0.061869
     6  N   -0.251979
     7  C   -0.058380
     8  C    0.000974
     9  C   -0.086607
    10  C    0.043837
    11  C    0.105000
    12  C    0.007983
    13  C   -0.067997
    14  H    0.037516
    15  N   -0.438367
    16  C    0.164659
    17  C   -0.179228
    18  C   -0.006161
    19  C    0.147587
    20  C    0.110620
    21  C    0.011620
    22  O   -0.248338
    23  C    0.063313
    24  N   -0.335786
    25  C    0.038796
    26  C   -0.027857
    27  C   -0.024680
    28  C    0.076148
    29  C    0.075863
    30  C    0.034804
    31  C   -0.004979
    32  N   -0.310505
    33  C    0.080034
    34  C   -0.168141
    35  C    0.009732
    36  C    0.081468
    37  C    0.126534
    38  C    0.049341
    39  O   -0.185333
    40  C   -0.007419
    41  C    0.216860
    42  O   -0.252861
    43  O   -0.302332
    44  C    0.172288
    45  H   -0.017816
    46  H   -0.016589
    47  H   -0.040437
    48  H   -0.001029
    49  H   -0.004147
    50  H    0.025972
    51  H    0.017193
    52  H    0.017427
    53  H    0.014445
    54  H    0.077299
    55  H    0.017735
    56  H    0.018207
    57  H    0.006235
    58  H    0.027946
    59  H    0.037253
    60  H    0.038363
    61  H    0.036665
    62  H    0.028306
    63  H    0.017145
    64  H    0.010362
    65  H    0.023966
    66  H    0.012698
    67  H    0.005504
    68  H    0.007298
    69  H    0.005718
    70  H    0.009144
    71  H    0.019716
    72  H    0.028211
    73  H    0.051014
    74  H    0.010126
    75  H    0.046653
    76  H    0.036608
    77  H    0.044718
    78  H    0.047607
    79  H    0.024533
    80  Mg   0.836701
    81  C   -0.016888
    82  C   -0.087882
    83  C   -0.046055
    84  C   -0.066408
    85  N   -0.253879
    86  C   -0.051673
    87  C   -0.020972
    88  C   -0.093554
    89  C    0.044465
    90  C    0.079058
    91  C    0.077226
    92  C   -0.090161
    93  H    0.029567
    94  N   -0.423269
    95  C    0.162017
    96  C   -0.175010
    97  C   -0.008618
    98  C    0.151852
    99  C    0.100095
   100  C    0.015119
   101  O   -0.254047
   102  C    0.061393
   103  N   -0.350380
   104  C    0.037150
   105  C   -0.019504
   106  C   -0.034817
   107  C    0.089585
   108  C    0.073943
   109  C    0.034918
   110  C   -0.007552
   111  N   -0.324292
   112  C    0.079256
   113  C   -0.164138
   114  C    0.003366
   115  C    0.095416
   116  C    0.131660
   117  C    0.040979
   118  O   -0.184982
   119  C    0.005574
   120  C    0.206044
   121  O   -0.259323
   122  O   -0.290438
   123  C    0.171213
   124  H   -0.020830
   125  H   -0.016522
   126  H   -0.041249
   127  H    0.016201
   128  H   -0.004639
   129  H    0.037471
   130  H    0.016390
   131  H    0.046248
   132  H    0.007757
   133  H    0.038149
   134  H    0.028807
   135  H    0.013168
   136  H    0.006145
   137  H    0.025208
   138  H    0.038214
   139  H    0.037694
   140  H    0.035534
   141  H    0.033160
   142  H    0.013810
   143  H    0.011766
   144  H    0.024441
   145  H    0.011695
   146  H    0.004839
   147  H    0.005636
   148  H    0.003334
   149  H    0.010644
   150  H    0.017433
   151  H    0.030583
   152  H    0.046313
   153  H    0.007649
   154  H    0.046435
   155  H    0.041532
   156  H    0.047890
   157  H    0.047735
   158  H    0.039444
 Sum of Mulliken charges =  -0.00000

 Dipole moment (field-independent basis, Debye):
    X=              4.7066    Y=              6.1323    Z=             -3.1535  Tot=              8.3488
 Quadrupole moment (field-independent basis, Debye-Ang):
   XX=           -499.0634   YY=           -562.0366   ZZ=           -461.3485
   XY=             18.7891   XZ=            -36.7665   YZ=             -6.3345

 Normal termination of Gaussian 16 at Fri Sep 10 01:44:17 2021.
