 Gaussian 16, Revision A.03,
 Gaussian 16:  ES64L-G16RevA.03 25-Dec-2016

 -----------------------------------
 #p cam-b3lyp/Def2SVP td=(nstates=5)
 -----------------------------------

 --------------------------------
 TDDFT excited states in gaussian
 --------------------------------
 Symbolic Z-matrix:
 Charge =  0 Multiplicity = 1

                         Standard orientation:
 ---------------------------------------------------------------------
 Center     Atomic      Atomic             Coordinates (Angstroms)
 Number     Number       Type             X           Y           Z
 ---------------------------------------------------------------------
      1         12           0       16.012982    0.547566    0.705722
      2          6           0       16.325859   -2.381963   -1.327055
      3          6           0       17.002400    2.357936   -2.012123
      4          6           0       16.183270    3.088158    2.595965
      5          6           0       16.159902   -1.546656    3.487503
      6          7           0       16.564156   -0.050047   -1.353334
      7          6           0       16.585160   -1.198673   -2.022205
      8          6           0       16.834701   -1.019674   -3.549642
      9          6           0       17.578655    0.390160   -3.519647
     10          6           0       16.987770    0.949373   -2.237438
     11          6           0       19.090897    0.277684   -3.355407
     12          6           0       15.500252   -0.946020   -4.365455
     13          6           0       15.652007   -1.099552   -5.881619
     14          1           0       14.613160   -1.799462   -6.622072
     15          7           0       16.041573    2.473041    0.264609
     16          6           0       16.460961    3.031824   -0.896063
     17          6           0       16.285073    4.490971   -0.732858
     18          6           0       15.908076    4.748087    0.684836
     19          6           0       16.056709    3.432271    1.252211
     20          6           0       16.425291    5.467785   -1.859767
     21          6           0       15.491671    5.985653    1.415022
     22          8           0       15.433719    6.035383    2.691244
     23          6           0       15.235352    7.180213    0.590177
     24          7           0       16.372017    0.775451    2.749443
     25          6           0       16.333118    1.981402    3.326637
     26          6           0       16.337118    1.871140    4.822554
     27          6           0       16.141017    0.321074    5.152088
     28          6           0       16.140299   -0.229646    3.704684
     29          6           0       17.598675    2.387292    5.528296
     30          6           0       14.963105   -0.055909    6.085269
     31          6           0       13.648826    0.226489    5.392436
     32          7           0       16.029656   -1.594632    1.054655
     33          6           0       16.117763   -2.246478    2.293205
     34          6           0       16.203290   -3.692027    2.015461
     35          6           0       16.175512   -3.780164    0.625028
     36          6           0       16.105226   -2.470993    0.068769
     37          6           0       16.350522   -4.720194    2.987896
     38          6           0       16.213697   -4.674416   -0.520709
     39          8           0       16.178258   -5.896915   -0.668125
     40          6           0       16.435439   -3.799073   -1.832361
     41          6           0       15.436906   -4.258505   -2.859574
     42          8           0       14.214376   -4.073069   -2.691056
     43          8           0       16.084487   -4.625221   -3.976131
     44          6           0       15.149496   -5.064114   -5.046327
     45          1           0       17.526281    3.000659   -2.722332
     46          1           0       16.134567    3.930935    3.288635
     47          1           0       16.123001   -2.265875    4.307756
     48          1           0       17.483636   -1.773633   -3.995571
     49          1           0       17.301381    1.014750   -4.368604
     50          1           0       19.394665   -0.749908   -3.156159
     51          1           0       19.340353    0.919142   -2.509950
     52          1           0       19.606764    0.702992   -4.216668
     53          1           0       15.106944    0.069523   -4.320261
     54          1           0       14.782785   -1.680902   -3.998690
     55          1           0       16.636442   -1.486375   -6.146505
     56          1           0       15.621443   -0.106564   -6.330216
     57          1           0       16.869419    5.003433   -2.739354
     58          1           0       17.157224    6.212096   -1.546745
     59          1           0       15.481180    5.958026   -2.097780
     60          1           0       16.136734    7.431454    0.030769
     61          1           0       14.862440    7.942778    1.273026
     62          1           0       14.471715    6.940712   -0.150395
     63          1           0       15.514069    2.435913    5.258499
     64          1           0       17.015923   -0.106769    5.642154
     65          1           0       17.399793    3.160994    6.270278
     66          1           0       18.289051    2.745511    4.765177
     67          1           0       18.196055    1.618124    6.017105
     68          1           0       14.986152    0.551645    6.989312
     69          1           0       14.972625   -1.102794    6.388901
     70          1           0       13.496894    1.288449    5.582143
     71          1           0       12.849416   -0.367696    5.836394
     72          1           0       13.731844    0.096891    4.313177
     73          1           0       15.669490   -5.518526    2.693226
     74          1           0       16.122450   -4.354237    3.988727
     75          1           0       17.404947   -4.966298    2.863495
     76          1           0       17.462158   -3.970872   -2.154006
     77          1           0       15.449446   -6.069470   -5.342168
     78          1           0       15.165267   -4.286135   -5.809810
     79          1           0       14.116747   -5.238531   -4.742440
     80         12           0      -15.701752    0.364718   -0.732918
     81          6           0      -17.302707   -1.690290    1.735470
     82          6           0      -17.731763    2.909609    0.285504
     83          6           0      -14.633467    2.066867   -3.188300
     84          6           0      -14.646069   -2.569200   -2.289629
     85          7           0      -17.273218    0.472983    0.819826
     86          6           0      -17.752127   -0.353340    1.737531
     87          6           0      -18.710198    0.309923    2.763080
     88          6           0      -19.194059    1.554060    1.870402
     89          6           0      -17.979724    1.683728    0.953204
     90          6           0      -20.409347    1.242842    1.012756
     91          6           0      -17.962556    0.787798    4.057181
     92          6           0      -18.876045    1.162195    5.226412
     93          1           0      -18.425860    0.866510    6.583762
     94          7           0      -15.751646    2.321961   -1.057365
     95          6           0      -16.629979    3.209516   -0.545430
     96          6           0      -16.253391    4.516799   -1.105216
     97          6           0      -15.183889    4.303012   -2.117729
     98          6           0      -15.162300    2.855200   -2.176662
     99          6           0      -16.835741    5.810403   -0.614415
    100          6           0      -14.331638    5.245792   -2.912105
    101          8           0      -13.632165    4.844471   -3.908346
    102          6           0      -14.412449    6.667878   -2.547906
    103          7           0      -14.955053   -0.167297   -2.598857
    104          6           0      -14.510819    0.766984   -3.457748
    105          6           0      -13.769789    0.137500   -4.613166
    106          6           0      -13.598851   -1.404462   -4.224957
    107          6           0      -14.383235   -1.418935   -2.894576
    108          6           0      -14.449694    0.246118   -5.977838
    109          6           0      -12.155262   -1.977666   -4.238166
    110          6           0      -11.339358   -1.346863   -3.132832
    111          7           0      -15.757753   -1.746000   -0.274905
    112          6           0      -15.281396   -2.805876   -1.077294
    113          6           0      -15.646145   -4.065240   -0.396563
    114          6           0      -16.335042   -3.647782    0.752185
    115          6           0      -16.412986   -2.229010    0.774781
    116          6           0      -15.380541   -5.378204   -0.877924
    117          6           0      -17.023297   -4.085050    1.945418
    118          8           0      -17.199172   -5.169856    2.498586
    119          6           0      -17.790636   -2.841390    2.570642
    120          6           0      -17.499242   -2.809653    4.045966
    121          8           0      -16.345806   -2.594047    4.457906
    122          8           0      -18.660817   -2.822025    4.724903
    123          6           0      -18.424205   -2.780471    6.192596
    124          1           0      -18.471807    3.705804    0.370817
    125          1           0      -14.153342    2.608921   -4.006307
    126          1           0      -14.267567   -3.523920   -2.660995
    127          1           0      -19.561438   -0.296779    3.047795
    128          1           0      -19.313666    2.450230    2.473669
    129          1           0      -20.676382    0.197422    1.056620
    130          1           0      -20.136244    1.521540    0.003400
    131          1           0      -21.243190    1.894093    1.290073
    132          1           0      -17.497362    1.762713    3.862551
    133          1           0      -17.248140    0.054438    4.377212
    134          1           0      -19.903328    0.808357    5.076609
    135          1           0      -18.969487    2.250409    5.259137
    136          1           0      -17.716121    5.641008    0.017761
    137          1           0      -17.228056    6.337398   -1.490895
    138          1           0      -16.096093    6.445354   -0.122046
    139          1           0      -15.440843    7.007660   -2.645016
    140          1           0      -13.666511    7.170782   -3.166403
    141          1           0      -14.144409    6.774076   -1.490799
    142          1           0      -12.788735    0.581050   -4.731050
    143          1           0      -14.143745   -2.061988   -4.918199
    144          1           0      -13.817866    0.736162   -6.742499
    145          1           0      -15.381029    0.782482   -5.853462
    146          1           0      -14.782366   -0.698583   -6.404547
    147          1           0      -11.655595   -1.723915   -5.176302
    148          1           0      -12.118160   -3.057034   -4.135237
    149          1           0      -11.008299   -0.403786   -3.577901
    150          1           0      -10.492848   -1.979235   -2.872868
    151          1           0      -11.969175   -1.101000   -2.269971
    152          1           0      -15.030826   -5.955081   -0.032106
    153          1           0      -14.647863   -5.366166   -1.682167
    154          1           0      -16.375224   -5.660679   -1.233005
    155          1           0      -18.853510   -2.975657    2.366073
    156          1           0      -18.938662   -3.644839    6.623742
    157          1           0      -18.760063   -1.778961    6.521105
    158          1           0      -17.410980   -2.941621    6.541678
 ---------------------------------------------------------------------

 SCF Done:  E(RCAM-B3LYP) =  -4069.81176546     A.U. after   19 cycles

 Excitation energies and oscillator strengths:

 Excited State   1:      Singlet-A      1.6753 eV  740.07 nm  f=0.2140  <S**2>=0.000
     310 -> 316       -0.16865
     311 -> 313        0.66675
     312 -> 314        0.16161
     310 <- 316       -0.10167
 This state for optimization and/or second-order correction.
 Total Energy, E(TD-HF/TD-DFT) =  -4069.75019893
 Copying the excited state density for this state as the 1-particle RhoCI density.

 Excited State   2:      Singlet-A      1.6801 eV  737.95 nm  f=0.5635  <S**2>=0.000
     309 -> 315        0.17067
     311 -> 313       -0.16156
     312 -> 314        0.66638
     309 <- 315        0.10218

 Excited State   3:      Singlet-A      2.1861 eV  567.15 nm  f=0.0980  <S**2>=0.000
     310 -> 313        0.64226
     311 -> 316        0.27302

 Excited State   4:      Singlet-A      2.1925 eV  565.49 nm  f=0.1026  <S**2>=0.000
     309 -> 314        0.64049
     312 -> 315       -0.27820

 Excited State   5:      Singlet-A      3.0594 eV  405.26 nm  f=0.0000  <S**2>=0.000
     312 -> 313        0.70711

 The electronic state is 1-A.
 Alpha  occ. eigenvalues --  -46.87755 -46.87661 -19.26347 -19.26242 -19.19158
 Alpha  occ. eigenvalues --  -19.18977 -19.18774 -19.18716 -19.18128 -19.18051
 Alpha  occ. eigenvalues --  -14.42498 -14.42409 -14.41408 -14.41359 -14.39362
 Alpha  occ. eigenvalues --  -14.39352 -14.38600 -14.38545 -10.39088 -10.39037
 Alpha  occ. eigenvalues --  -10.35408 -10.35393 -10.34348 -10.34228 -10.31754
 Alpha  occ. eigenvalues --  -10.31637 -10.31364 -10.31309 -10.31024 -10.30868
 Alpha  occ. eigenvalues --  -10.30529 -10.30466 -10.30398 -10.30361 -10.30166
 Alpha  occ. eigenvalues --  -10.30141 -10.29895 -10.29880 -10.29590 -10.29437
 Alpha  occ. eigenvalues --  -10.29401 -10.29213 -10.28720 -10.28708 -10.28654
 Alpha  occ. eigenvalues --  -10.28497 -10.28405 -10.28324 -10.28142 -10.28077
 Alpha  occ. eigenvalues --  -10.28001 -10.27752 -10.27686 -10.27670 -10.27543
 Alpha  occ. eigenvalues --  -10.27517 -10.27484 -10.27469 -10.27466 -10.27460
 Alpha  occ. eigenvalues --  -10.27441 -10.27409 -10.27376 -10.27362 -10.27117
 Alpha  occ. eigenvalues --  -10.27050 -10.26692 -10.26663 -10.26417 -10.26370
 Alpha  occ. eigenvalues --  -10.26196 -10.26141 -10.26133 -10.26028 -10.25978
 Alpha  occ. eigenvalues --  -10.25934 -10.25849 -10.25802 -10.25400 -10.25397
 Alpha  occ. eigenvalues --  -10.24873 -10.24792 -10.24747 -10.24724 -10.24690
 Alpha  occ. eigenvalues --  -10.24642  -3.16498  -3.16411  -1.91380  -1.91293
 Alpha  occ. eigenvalues --   -1.90966  -1.90881  -1.90808  -1.90718  -1.16641
 Alpha  occ. eigenvalues --   -1.16591  -1.08658  -1.08586  -1.07176  -1.06968
 Alpha  occ. eigenvalues --   -1.06943  -1.06600  -1.04540  -1.04496  -1.03719
 Alpha  occ. eigenvalues --   -1.03664  -1.03193  -1.03039  -1.02370  -1.02112
 Alpha  occ. eigenvalues --   -0.91987  -0.91931  -0.89494  -0.89478  -0.89152
 Alpha  occ. eigenvalues --   -0.89147  -0.88246  -0.88220  -0.87829  -0.87793
 Alpha  occ. eigenvalues --   -0.87684  -0.87632  -0.87233  -0.87121  -0.85000
 Alpha  occ. eigenvalues --   -0.84941  -0.83895  -0.83875  -0.82932  -0.82926
 Alpha  occ. eigenvalues --   -0.82653  -0.82608  -0.81596  -0.81544  -0.80555
 Alpha  occ. eigenvalues --   -0.80443  -0.78756  -0.78636  -0.77177  -0.77145
 Alpha  occ. eigenvalues --   -0.76898  -0.76893  -0.75882  -0.75839  -0.74857
 Alpha  occ. eigenvalues --   -0.74803  -0.72733  -0.72699  -0.71632  -0.71582
 Alpha  occ. eigenvalues --   -0.69865  -0.69755  -0.68832  -0.68828  -0.67602
 Alpha  occ. eigenvalues --   -0.67600  -0.67200  -0.67179  -0.65272  -0.65245
 Alpha  occ. eigenvalues --   -0.64812  -0.64770  -0.64654  -0.64579  -0.64228
 Alpha  occ. eigenvalues --   -0.64203  -0.62277  -0.62256  -0.60401  -0.60340
 Alpha  occ. eigenvalues --   -0.59797  -0.59764  -0.58993  -0.58946  -0.58463
 Alpha  occ. eigenvalues --   -0.58426  -0.57554  -0.57543  -0.57268  -0.57236
 Alpha  occ. eigenvalues --   -0.56269  -0.56204  -0.55937  -0.55886  -0.55479
 Alpha  occ. eigenvalues --   -0.55452  -0.55298  -0.55247  -0.54486  -0.54482
 Alpha  occ. eigenvalues --   -0.53913  -0.53854  -0.53258  -0.53228  -0.53181
 Alpha  occ. eigenvalues --   -0.53142  -0.52902  -0.52873  -0.52715  -0.52669
 Alpha  occ. eigenvalues --   -0.52398  -0.52395  -0.51884  -0.51873  -0.51659
 Alpha  occ. eigenvalues --   -0.51576  -0.51201  -0.51154  -0.50532  -0.50476
 Alpha  occ. eigenvalues --   -0.49990  -0.49981  -0.49878  -0.49867  -0.49489
 Alpha  occ. eigenvalues --   -0.49474  -0.49203  -0.49174  -0.49105  -0.49056
 Alpha  occ. eigenvalues --   -0.48559  -0.48552  -0.48421  -0.48404  -0.48376
 Alpha  occ. eigenvalues --   -0.48340  -0.47654  -0.47595  -0.47256  -0.47119
 Alpha  occ. eigenvalues --   -0.46756  -0.46709  -0.46554  -0.46514  -0.46318
 Alpha  occ. eigenvalues --   -0.46270  -0.46121  -0.46086  -0.45822  -0.45781
 Alpha  occ. eigenvalues --   -0.45209  -0.45161  -0.44536  -0.44514  -0.44476
 Alpha  occ. eigenvalues --   -0.44466  -0.44128  -0.44103  -0.44077  -0.44048
 Alpha  occ. eigenvalues --   -0.43978  -0.43940  -0.43552  -0.43453  -0.43386
 Alpha  occ. eigenvalues --   -0.43345  -0.42986  -0.42929  -0.42901  -0.42657
 Alpha  occ. eigenvalues --   -0.42613  -0.42552  -0.41968  -0.41963  -0.41669
 Alpha  occ. eigenvalues --   -0.41663  -0.41493  -0.41459  -0.41100  -0.40990
 Alpha  occ. eigenvalues --   -0.40828  -0.40782  -0.40723  -0.40699  -0.40530
 Alpha  occ. eigenvalues --   -0.40493  -0.40227  -0.40193  -0.39423  -0.39398
 Alpha  occ. eigenvalues --   -0.38428  -0.38350  -0.37707  -0.37654  -0.37279
 Alpha  occ. eigenvalues --   -0.37266  -0.37222  -0.37200  -0.36770  -0.36671
 Alpha  occ. eigenvalues --   -0.36217  -0.36151  -0.34254  -0.34245  -0.33860
 Alpha  occ. eigenvalues --   -0.33728  -0.33176  -0.33145  -0.31304  -0.31275
 Alpha  occ. eigenvalues --   -0.30994  -0.30973  -0.29988  -0.29955  -0.29408
 Alpha  occ. eigenvalues --   -0.29328  -0.29281  -0.29212  -0.24039  -0.24037
 Alpha  occ. eigenvalues --   -0.21117  -0.21086
 Alpha virt. eigenvalues --   -0.08792  -0.08733  -0.01709  -0.01684  -0.00030
 Alpha virt. eigenvalues --   -0.00017   0.02207   0.02241   0.03165   0.03229
 Alpha virt. eigenvalues --    0.04729   0.04758   0.05140   0.05167   0.06183

 Mulliken charges:
               1
     1  Mg   0.838713
     2  C   -0.002959
     3  C   -0.094110
     4  C   -0.045847
     5  C   -0.063969
     6  N   -0.256768
     7  C   -0.052470
     8  C   -0.014006
     9  C   -0.087008
    10  C    0.046322
    11  C    0.104824
    12  C    0.053464
    13  C   -0.071812
    14  H    0.036169
    15  N   -0.433109
    16  C    0.168426
    17  C   -0.177157
    18  C   -0.004009
    19  C    0.148715
    20  C    0.110189
    21  C    0.012301
    22  O   -0.249638
    23  C    0.062464
    24  N   -0.341120
    25  C    0.041225
    26  C   -0.028170
    27  C   -0.023975
    28  C    0.074858
    29  C    0.076187
    30  C    0.035126
    31  C   -0.004509
    32  N   -0.310477
    33  C    0.080434
    34  C   -0.169702
    35  C    0.008353
    36  C    0.083018
    37  C    0.127306
    38  C    0.046130
    39  O   -0.188437
    40  C   -0.005326
    41  C    0.212860
    42  O   -0.257050
    43  O   -0.304820
    44  C    0.157689
    45  H   -0.017635
    46  H   -0.016855
    47  H   -0.041487
    48  H    0.000914
    49  H   -0.004032
    50  H    0.025456
    51  H    0.016428
    52  H    0.016625
    53  H    0.011234
    54  H    0.044154
    55  H    0.017831
    56  H    0.017949
    57  H    0.005861
    58  H    0.026781
    59  H    0.039578
    60  H    0.037311
    61  H    0.035638
    62  H    0.031548
    63  H    0.016572
    64  H    0.009429
    65  H    0.023191
    66  H    0.012516
    67  H    0.004724
    68  H    0.006348
    69  H    0.004738
    70  H    0.008785
    71  H    0.018211
    72  H    0.028999
    73  H    0.047604
    74  H    0.009126
    75  H    0.045971
    76  H    0.035116
    77  H    0.042923
    78  H    0.046393
    79  H    0.053728
    80  Mg   0.837902
    81  C   -0.016790
    82  C   -0.087793
    83  C   -0.045526
    84  C   -0.064888
    85  N   -0.254566
    86  C   -0.049847
    87  C   -0.015095
    88  C   -0.090503
    89  C    0.045767
    90  C    0.114378
    91  C    0.062521
    92  C   -0.077907
    93  H    0.034945
    94  N   -0.423495
    95  C    0.162917
    96  C   -0.174640
    97  C   -0.007790
    98  C    0.152123
    99  C    0.099372
   100  C    0.015567
   101  O   -0.253183
   102  C    0.061195
   103  N   -0.350082
   104  C    0.037539
   105  C   -0.019835
   106  C   -0.034849
   107  C    0.088981
   108  C    0.073661
   109  C    0.034721
   110  C   -0.007696
   111  N   -0.324130
   112  C    0.078459
   113  C   -0.163096
   114  C    0.002256
   115  C    0.096197
   116  C    0.131478
   117  C    0.042401
   118  O   -0.187831
   119  C    0.000899
   120  C    0.211266
   121  O   -0.250966
   122  O   -0.305650
   123  C    0.152009
   124  H   -0.019682
   125  H   -0.015577
   126  H   -0.040412
   127  H   -0.000658
   128  H   -0.004317
   129  H    0.022448
   130  H    0.014409
   131  H    0.016270
   132  H    0.013934
   133  H    0.037710
   134  H    0.020768
   135  H    0.019591
   136  H    0.008758
   137  H    0.026115
   138  H    0.039810
   139  H    0.038231
   140  H    0.036384
   141  H    0.033923
   142  H    0.014433
   143  H    0.012406
   144  H    0.025134
   145  H    0.011600
   146  H    0.005663
   147  H    0.006281
   148  H    0.003702
   149  H    0.010933
   150  H    0.018065
   151  H    0.030092
   152  H    0.046075
   153  H    0.008566
   154  H    0.046915
   155  H    0.035002
   156  H    0.043920
   157  H    0.049486
   158  H    0.053628
 Sum of Mulliken charges =  -0.00000

 Dipole moment (field-independent basis, Debye):
    X=             -0.4149    Y=              7.1189    Z=             -2.6198  Tot=              7.5970
 Quadrupole moment (field-independent basis, Debye-Ang):
   XX=           -357.9568   YY=           -538.3847   ZZ=           -472.1594
   XY=            -21.4867   XZ=            -42.0912   YZ=              9.5768

 Normal termination of Gaussian 16 at Sun Sep 12 11:24:51 2021.
