 Gaussian 16, Revision A.03,
 Gaussian 16:  ES64L-G16RevA.03 25-Dec-2016

 -----------------------------------
 #p cam-b3lyp/Def2SVP td=(nstates=5)
 -----------------------------------

 --------------------------------
 TDDFT excited states in gaussian
 --------------------------------
 Symbolic Z-matrix:
 Charge =  0 Multiplicity = 1

                         Standard orientation:
 ---------------------------------------------------------------------
 Center     Atomic      Atomic             Coordinates (Angstroms)
 Number     Number       Type             X           Y           Z
 ---------------------------------------------------------------------
      1         12           0       -3.943115   -0.343742    0.239051
      2          6           0       -3.742411    3.228099    0.356863
      3          6           0       -4.926845   -0.032580   -3.013412
      4          6           0       -4.564211   -3.453541    0.242995
      5          6           0       -4.054974   -0.304989    3.722103
      6          7           0       -4.255864    1.426695   -1.052610
      7          6           0       -4.086572    2.736869   -0.904442
      8          6           0       -4.235521    3.533458   -2.235094
      9          6           0       -5.143237    2.502970   -3.045121
     10          6           0       -4.725812    1.216605   -2.354508
     11          6           0       -6.639255    2.711276   -2.832895
     12          6           0       -2.859837    3.766583   -2.945641
     13          6           0       -2.873010    4.806485   -4.069823
     14          1           0       -1.703003    5.651332   -4.256012
     15          7           0       -4.167826   -1.607252   -1.262914
     16          6           0       -4.559111   -1.304677   -2.524116
     17          6           0       -4.572799   -2.584522   -3.264717
     18          6           0       -4.341424   -3.680622   -2.283328
     19          6           0       -4.375105   -2.950357   -1.041976
     20          6           0       -4.740565   -2.673625   -4.750538
     21          6           0       -4.134853   -5.154153   -2.438792
     22          8           0       -4.183298   -5.956402   -1.444497
     23          6           0       -3.959912   -5.651345   -3.815469
     24          7           0       -4.485656   -1.681551    1.746882
     25          6           0       -4.636941   -2.985587    1.490783
     26          6           0       -4.744697   -3.781868    2.757379
     27          6           0       -4.390496   -2.774321    3.944453
     28          6           0       -4.210512   -1.481586    3.110959
     29          6           0       -6.110365   -4.428505    3.027237
     30          6           0       -3.252512   -3.195118    4.907957
     31          6           0       -1.931444   -3.197510    4.171837
     32          7           0       -3.730000    1.152760    1.796648
     33          6           0       -3.835913    0.950544    3.180326
     34          6           0       -3.725467    2.274397    3.820080
     35          6           0       -3.578634    3.162401    2.756250
     36          6           0       -3.622566    2.442036    1.528473
     37          6           0       -3.823944    2.536667    5.215053
     38          6           0       -3.419550    4.555037    2.370097
     39          8           0       -3.226329    5.607503    2.980403
     40          6           0       -3.641379    4.667349    0.797200
     41          6           0       -2.517680    5.496605    0.237785
     42          8           0       -1.343169    5.075065    0.251720
     43          8           0       -3.027261    6.540342   -0.434138
     44          6           0       -1.965550    7.387787   -1.039745
     45          1           0       -5.466851   -0.048009   -3.962146
     46          1           0       -4.671271   -4.538971    0.296060
     47          1           0       -3.996363   -0.224298    4.809074
     48          1           0       -4.752463    4.488300   -2.137767
     49          1           0       -4.877315    2.469461   -4.101475
     50          1           0       -6.832240    3.452565   -2.057545
     51          1           0       -7.029208    1.737932   -2.534516
     52          1           0       -7.133439    2.956579   -3.773313
     53          1           0       -2.595912    2.877550   -3.518375
     54          1           0       -2.090320    4.030541   -2.219351
     55          1           0       -3.780187    5.410823   -4.043129
     56          1           0       -2.926756    4.279123   -5.022293
     57          1           0       -5.055619   -1.721559   -5.175811
     58          1           0       -5.578709   -3.344885   -4.936639
     59          1           0       -3.846358   -3.056980   -5.242234
     60          1           0       -4.838376   -5.391231   -4.406392
     61          1           0       -3.735716   -6.713635   -3.725315
     62          1           0       -3.117488   -5.132553   -4.273862
     63          1           0       -4.031966   -4.605521    2.763312
     64          1           0       -5.243412   -2.599399    4.600662
     65          1           0       -6.064366   -5.509721    3.159751
     66          1           0       -6.776891   -4.163030    2.207141
     67          1           0       -6.647582   -4.021569    3.883519
     68          1           0       -3.418906   -4.208544    5.271587
     69          1           0       -3.160133   -2.542279    5.776012
     70          1           0       -1.923280   -4.174326    3.689555
     71          1           0       -1.103741   -3.102579    4.875475
     72          1           0       -1.913637   -2.444725    3.383494
     73          1           0       -3.031135    3.247233    5.448545
     74          1           0       -3.720405    1.621903    5.798226
     75          1           0       -4.828258    2.956256    5.271227
     76          1           0       -4.611753    5.140606    0.650490
     77          1           0       -2.118694    8.403573   -0.675107
     78          1           0       -2.014735    7.223873   -2.116368
     79          1           0       -0.946297    7.198981   -0.700900
     80         12           0        3.945629   -1.223371   -0.100586
     81          6           0        4.151554    2.342960    0.242803
     82          6           0        2.983816   -0.706936   -3.332128
     83          6           0        3.320603   -4.327325   -0.306187
     84          6           0        3.802080   -1.410641    3.376475
     85          7           0        3.643809    0.625111   -1.277146
     86          6           0        3.811943    1.920750   -1.059440
     87          6           0        3.683011    2.807926   -2.326664
     88          6           0        2.770840    1.828502   -3.214104
     89          6           0        3.178487    0.491104   -2.599393
     90          6           0        1.280959    2.023990   -2.987485
     91          6           0        5.069087    3.078436   -3.010485
     92          6           0        5.059488    4.184441   -4.068046
     93          1           0        6.238747    5.036320   -4.194996
     94          7           0        3.731941   -2.387630   -1.693519
     95          6           0        3.356608   -2.009392   -2.933413
     96          6           0        3.330626   -3.240115   -3.738891
     97          6           0        3.561269   -4.398342   -2.833336
     98          6           0        3.525398   -3.736575   -1.544587
     99          6           0        3.182214   -3.231991   -5.232653
    100          6           0        3.765866   -5.861596   -3.084812
    101          8           0        3.710474   -6.722000   -2.136412
    102          6           0        3.940069   -6.267727   -4.487018
    103          7           0        3.397277   -2.647755    1.311065
    104          6           0        3.238662   -3.937624    0.966108
    105          6           0        3.116755   -4.817794    2.187102
    106          6           0        3.470214   -3.877560    3.431530
    107          6           0        3.656481   -2.535641    2.689940
    108          6           0        1.748478   -5.462042    2.408817
    109          6           0        4.601230   -4.361069    4.380048
    110          6           0        5.928537   -4.332800    3.656951
    111          7           0        4.154642    0.164820    1.541749
    112          6           0        4.032233   -0.119265    2.919572
    113          6           0        4.141729    1.165584    3.640421
    114          6           0        4.298452    2.118345    2.622497
    115          6           0        4.267159    1.475220    1.355641
    116          6           0        4.044240    1.339672    5.049784
    117          6           0        4.472590    3.523153    2.331130
    118          8           0        4.656512    4.534311    3.007485
    119          6           0        4.258476    3.746209    0.772024
    120          6           0        5.387338    4.601790    0.265889
    121          8           0        6.555954    4.176523    0.275067
    122          8           0        4.878059    5.688297   -0.342818
    123          6           0        5.958899    6.562463   -0.871429
    124          1           0        2.457737   -0.652269   -4.285611
    125          1           0        3.210678   -5.414210   -0.314646
    126          1           0        3.865356   -1.396085    4.466649
    127          1           0        3.173274    3.751152   -2.170888
    128          1           0        3.053398    1.868012   -4.262894
    129          1           0        1.083264    2.710022   -2.177290
    130          1           0        0.887226    1.042725   -2.756933
    131          1           0        0.795452    2.332589   -3.917746
    132          1           0        5.331556    2.218620   -3.640206
    133          1           0        5.822080    3.287600   -2.275706
    134          1           0        4.148774    4.793658   -4.019091
    135          1           0        5.018128    3.719495   -5.056034
    136          1           0        2.865826   -2.247979   -5.600111
    137          1           0        2.344047   -3.894523   -5.474319
    138          1           0        4.076263   -3.591250   -5.746732
    139          1           0        3.068770   -5.963398   -5.062058
    140          1           0        4.162020   -7.336227   -4.456365
    141          1           0        4.796949   -5.726905   -4.904022
    142          1           0        3.829051   -5.632832    2.148981
    143          1           0        2.608323   -3.748728    4.102634
    144          1           0        1.790806   -6.565816    2.471803
    145          1           0        1.091234   -5.151815    1.607363
    146          1           0        1.213721   -5.117886    3.292440
    147          1           0        4.430358   -5.399420    4.674665
    148          1           0        4.680481   -3.776791    5.290726
    149          1           0        5.931841   -5.280424    3.110051
    150          1           0        6.751029   -4.284424    4.367724
    151          1           0        5.956257   -3.524848    2.916622
    152          1           0        4.829343    2.027864    5.333525
    153          1           0        4.136871    0.391276    5.574890
    154          1           0        3.035424    1.754128    5.125789
    155          1           0        3.288821    4.227811    0.640115
    156          1           0        5.802489    7.557778   -0.444157
    157          1           0        5.903977    6.472707   -1.972651
    158          1           0        6.973528    6.352890   -0.553516
 ---------------------------------------------------------------------

 SCF Done:  E(RCAM-B3LYP) =  -4069.81159193     A.U. after   19 cycles

 Excitation energies and oscillator strengths:

 Excited State   1:      Singlet-A      1.6380 eV  756.94 nm  f=0.0009  <S**2>=0.000
     309 -> 315       -0.11347
     310 -> 316        0.11874
     311 -> 313       -0.47268
     312 -> 314        0.50031
 This state for optimization and/or second-order correction.
 Total Energy, E(TD-HF/TD-DFT) =  -4069.75139796
 Copying the excited state density for this state as the 1-particle RhoCI density.

 Excited State   2:      Singlet-A      1.7115 eV  724.40 nm  f=0.6786  <S**2>=0.000
     309 -> 315        0.13397
     310 -> 316        0.12505
     311 -> 313        0.49691
     312 -> 314        0.46949

 Excited State   3:      Singlet-A      2.1770 eV  569.51 nm  f=0.0111  <S**2>=0.000
     309 -> 313       -0.33279
     310 -> 314        0.55428
     311 -> 315        0.13558
     312 -> 316       -0.22759

 Excited State   4:      Singlet-A      2.1982 eV  564.03 nm  f=0.1562  <S**2>=0.000
     309 -> 313        0.54768
     310 -> 314        0.32646
     311 -> 315       -0.24356
     312 -> 316       -0.14689

 Excited State   5:      Singlet-A      2.2315 eV  555.61 nm  f=0.0000  <S**2>=0.000
     312 -> 313        0.70708

 The electronic state is 1-A.
 Alpha  occ. eigenvalues --  -46.87921 -46.87377 -19.26440 -19.26001 -19.19197
 Alpha  occ. eigenvalues --  -19.18884 -19.18814 -19.18485 -19.18247 -19.17656
 Alpha  occ. eigenvalues --  -14.42591 -14.42211 -14.41577 -14.41077 -14.39522
 Alpha  occ. eigenvalues --  -14.39074 -14.38702 -14.38297 -10.39250 -10.38728
 Alpha  occ. eigenvalues --  -10.35519 -10.35170 -10.34474 -10.33820 -10.31824
 Alpha  occ. eigenvalues --  -10.31551 -10.31480 -10.31063 -10.30997 -10.30730
 Alpha  occ. eigenvalues --  -10.30697 -10.30615 -10.30334 -10.30099 -10.30055
 Alpha  occ. eigenvalues --  -10.30034 -10.29907 -10.29742 -10.29597 -10.29372
 Alpha  occ. eigenvalues --  -10.29183 -10.29115 -10.28969 -10.28889 -10.28486
 Alpha  occ. eigenvalues --  -10.28477 -10.28391 -10.28310 -10.28094 -10.27899
 Alpha  occ. eigenvalues --  -10.27868 -10.27831 -10.27704 -10.27697 -10.27646
 Alpha  occ. eigenvalues --  -10.27637 -10.27566 -10.27537 -10.27405 -10.27338
 Alpha  occ. eigenvalues --  -10.27313 -10.27282 -10.27194 -10.27168 -10.27135
 Alpha  occ. eigenvalues --  -10.27035 -10.26569 -10.26486 -10.26449 -10.26396
 Alpha  occ. eigenvalues --  -10.26360 -10.26271 -10.26146 -10.25971 -10.25908
 Alpha  occ. eigenvalues --  -10.25673 -10.25623 -10.25543 -10.25531 -10.25135
 Alpha  occ. eigenvalues --  -10.24936 -10.24917 -10.24903 -10.24563 -10.24555
 Alpha  occ. eigenvalues --  -10.24394  -3.16663  -3.16127  -1.91544  -1.91132
 Alpha  occ. eigenvalues --   -1.91010  -1.90973  -1.90598  -1.90435  -1.16790
 Alpha  occ. eigenvalues --   -1.16295  -1.08705  -1.08248  -1.07280  -1.06808
 Alpha  occ. eigenvalues --   -1.06741  -1.06597  -1.04722  -1.04198  -1.03888
 Alpha  occ. eigenvalues --   -1.03376  -1.03351  -1.02756  -1.02532  -1.01819
 Alpha  occ. eigenvalues --   -0.92098  -0.91643  -0.89657  -0.89392  -0.89236
 Alpha  occ. eigenvalues --   -0.88847  -0.88420  -0.87972  -0.87971  -0.87828
 Alpha  occ. eigenvalues --   -0.87490  -0.87410  -0.87391  -0.86898  -0.85172
 Alpha  occ. eigenvalues --   -0.84719  -0.84077  -0.83628  -0.83079  -0.82811
 Alpha  occ. eigenvalues --   -0.82730  -0.82378  -0.81725  -0.81290  -0.80731
 Alpha  occ. eigenvalues --   -0.80154  -0.78916  -0.78384  -0.77377  -0.77108
 Alpha  occ. eigenvalues --   -0.76883  -0.76614  -0.76075  -0.75529  -0.75028
 Alpha  occ. eigenvalues --   -0.74531  -0.72898  -0.72414  -0.71806  -0.71279
 Alpha  occ. eigenvalues --   -0.70064  -0.69537  -0.69046  -0.68552  -0.67767
 Alpha  occ. eigenvalues --   -0.67418  -0.67319  -0.66959  -0.65469  -0.64989
 Alpha  occ. eigenvalues --   -0.64971  -0.64773  -0.64486  -0.64405  -0.64364
 Alpha  occ. eigenvalues --   -0.63947  -0.62436  -0.61969  -0.60559  -0.60097
 Alpha  occ. eigenvalues --   -0.59975  -0.59495  -0.59118  -0.58702  -0.58632
 Alpha  occ. eigenvalues --   -0.58125  -0.57712  -0.57434  -0.57180  -0.56947
 Alpha  occ. eigenvalues --   -0.56432  -0.56138  -0.55931  -0.55640  -0.55585
 Alpha  occ. eigenvalues --   -0.55476  -0.55188  -0.54971  -0.54670  -0.54207
 Alpha  occ. eigenvalues --   -0.54098  -0.53626  -0.53423  -0.53376  -0.53071
 Alpha  occ. eigenvalues --   -0.52971  -0.52899  -0.52865  -0.52624  -0.52600
 Alpha  occ. eigenvalues --   -0.52446  -0.52188  -0.52005  -0.51797  -0.51571
 Alpha  occ. eigenvalues --   -0.51394  -0.51329  -0.50900  -0.50698  -0.50293
 Alpha  occ. eigenvalues --   -0.50183  -0.50052  -0.49723  -0.49665  -0.49622
 Alpha  occ. eigenvalues --   -0.49346  -0.49254  -0.49225  -0.48899  -0.48775
 Alpha  occ. eigenvalues --   -0.48730  -0.48577  -0.48546  -0.48256  -0.48126
 Alpha  occ. eigenvalues --   -0.48068  -0.47841  -0.47426  -0.47333  -0.46947
 Alpha  occ. eigenvalues --   -0.46878  -0.46746  -0.46488  -0.46444  -0.46286
 Alpha  occ. eigenvalues --   -0.46284  -0.46015  -0.45946  -0.45792  -0.45506
 Alpha  occ. eigenvalues --   -0.45328  -0.44935  -0.44700  -0.44665  -0.44286
 Alpha  occ. eigenvalues --   -0.44254  -0.44221  -0.44205  -0.44138  -0.43836
 Alpha  occ. eigenvalues --   -0.43833  -0.43652  -0.43628  -0.43543  -0.43258
 Alpha  occ. eigenvalues --   -0.43158  -0.43097  -0.42840  -0.42809  -0.42631
 Alpha  occ. eigenvalues --   -0.42575  -0.42317  -0.42174  -0.41834  -0.41721
 Alpha  occ. eigenvalues --   -0.41711  -0.41337  -0.41279  -0.41192  -0.41057
 Alpha  occ. eigenvalues --   -0.40950  -0.40717  -0.40693  -0.40495  -0.40476
 Alpha  occ. eigenvalues --   -0.40442  -0.40226  -0.39978  -0.39609  -0.39216
 Alpha  occ. eigenvalues --   -0.38622  -0.38102  -0.37988  -0.37460  -0.37438
 Alpha  occ. eigenvalues --   -0.37404  -0.37006  -0.36918  -0.36865  -0.36458
 Alpha  occ. eigenvalues --   -0.36344  -0.35936  -0.34412  -0.33961  -0.33934
 Alpha  occ. eigenvalues --   -0.33521  -0.33314  -0.32887  -0.31418  -0.31163
 Alpha  occ. eigenvalues --   -0.31042  -0.30673  -0.30109  -0.29556  -0.29551
 Alpha  occ. eigenvalues --   -0.29423  -0.29062  -0.28890  -0.24209  -0.23734
 Alpha  occ. eigenvalues --   -0.21254  -0.20832
 Alpha virt. eigenvalues --   -0.08891  -0.08501  -0.01873  -0.01408  -0.00167
 Alpha virt. eigenvalues --    0.00238   0.02095   0.02389   0.02641   0.03610
 Alpha virt. eigenvalues --    0.04527   0.04869   0.05040   0.05527   0.05858

 Mulliken charges:
               1
     1  Mg   0.838535
     2  C   -0.003687
     3  C   -0.095443
     4  C   -0.045131
     5  C   -0.063709
     6  N   -0.256604
     7  C   -0.053369
     8  C   -0.013514
     9  C   -0.086864
    10  C    0.045988
    11  C    0.104797
    12  C    0.050564
    13  C   -0.071467
    14  H    0.034035
    15  N   -0.433339
    16  C    0.168404
    17  C   -0.177892
    18  C   -0.003474
    19  C    0.149213
    20  C    0.110398
    21  C    0.013642
    22  O   -0.248427
    23  C    0.062451
    24  N   -0.340898
    25  C    0.041047
    26  C   -0.028679
    27  C   -0.024093
    28  C    0.074660
    29  C    0.076027
    30  C    0.035971
    31  C   -0.009941
    32  N   -0.310773
    33  C    0.080757
    34  C   -0.169282
    35  C    0.009022
    36  C    0.083353
    37  C    0.127045
    38  C    0.046852
    39  O   -0.186666
    40  C   -0.005990
    41  C    0.213872
    42  O   -0.258727
    43  O   -0.304609
    44  C    0.156874
    45  H   -0.017896
    46  H   -0.016268
    47  H   -0.041364
    48  H    0.001477
    49  H   -0.005042
    50  H    0.025859
    51  H    0.016943
    52  H    0.016662
    53  H    0.010536
    54  H    0.044900
    55  H    0.019497
    56  H    0.017024
    57  H    0.005197
    58  H    0.027325
    59  H    0.037875
    60  H    0.036874
    61  H    0.037015
    62  H    0.030354
    63  H    0.017054
    64  H    0.009917
    65  H    0.023621
    66  H    0.012741
    67  H    0.004916
    68  H    0.006392
    69  H    0.004657
    70  H    0.011862
    71  H    0.017183
    72  H    0.031208
    73  H    0.048870
    74  H    0.008898
    75  H    0.046301
    76  H    0.035444
    77  H    0.044378
    78  H    0.045176
    79  H    0.054530
    80  Mg   0.836793
    81  C   -0.014955
    82  C   -0.088256
    83  C   -0.045346
    84  C   -0.065675
    85  N   -0.254687
    86  C   -0.047262
    87  C   -0.015153
    88  C   -0.092091
    89  C    0.045842
    90  C    0.108969
    91  C    0.062739
    92  C   -0.076874
    93  H    0.033805
    94  N   -0.423391
    95  C    0.162690
    96  C   -0.176253
    97  C   -0.008175
    98  C    0.151562
    99  C    0.100350
   100  C    0.015017
   101  O   -0.253200
   102  C    0.061610
   103  N   -0.350290
   104  C    0.037202
   105  C   -0.020272
   106  C   -0.034868
   107  C    0.089625
   108  C    0.072879
   109  C    0.034731
   110  C   -0.007392
   111  N   -0.324794
   112  C    0.079599
   113  C   -0.162659
   114  C    0.004716
   115  C    0.095726
   116  C    0.130775
   117  C    0.045298
   118  O   -0.186345
   119  C   -0.001356
   120  C    0.210187
   121  O   -0.252415
   122  O   -0.304221
   123  C    0.152428
   124  H   -0.022070
   125  H   -0.015671
   126  H   -0.041467
   127  H    0.002569
   128  H   -0.006694
   129  H    0.037340
   130  H    0.012950
   131  H    0.011741
   132  H    0.013094
   133  H    0.037601
   134  H    0.020089
   135  H    0.018364
   136  H    0.007296
   137  H    0.023039
   138  H    0.039021
   139  H    0.036663
   140  H    0.035880
   141  H    0.033505
   142  H    0.013829
   143  H    0.011315
   144  H    0.024580
   145  H    0.014073
   146  H    0.004844
   147  H    0.005557
   148  H    0.002971
   149  H    0.010813
   150  H    0.017395
   151  H    0.030549
   152  H    0.045744
   153  H    0.006970
   154  H    0.049529
   155  H    0.046343
   156  H    0.043491
   157  H    0.048235
   158  H    0.052857
 Sum of Mulliken charges =  -0.00000

 Dipole moment (field-independent basis, Debye):
    X=             -4.7653    Y=             -1.4270    Z=             -6.9922  Tot=              8.5811
 Quadrupole moment (field-independent basis, Debye-Ang):
   XX=           -519.7545   YY=           -549.1470   ZZ=           -449.7125
   XY=             -8.5093   XZ=             -2.2861   YZ=            -47.7225

 Normal termination of Gaussian 16 at Fri Sep  3 17:39:01 2021.
