 Gaussian 16, Revision A.03,
 Gaussian 16:  ES64L-G16RevA.03 25-Dec-2016

 -----------------------------------
 #p cam-b3lyp/Def2SVP td=(nstates=5)
 -----------------------------------

 --------------------------------
 TDDFT excited states in gaussian
 --------------------------------
 Symbolic Z-matrix:
 Charge =  0 Multiplicity = 1

                         Standard orientation:
 ---------------------------------------------------------------------
 Center     Atomic      Atomic             Coordinates (Angstroms)
 Number     Number       Type             X           Y           Z
 ---------------------------------------------------------------------
      1         12           0       15.773384    0.779021    0.228813
      2          6           0       16.156278   -2.741860   -0.289842
      3          6           0       16.643574    1.204854   -3.042960
      4          6           0       15.884971    3.900385    0.777681
      5          6           0       16.050280    0.156186    3.646571
      6          7           0       16.307413   -0.663381   -1.363335
      7          6           0       16.358374   -1.989006   -1.448726
      8          6           0       16.572259   -2.506688   -2.902560
      9          6           0       17.263863   -1.214706   -3.530625
     10          6           0       16.676934   -0.155411   -2.614474
     11          6           0       18.782063   -1.204327   -3.384128
     12          6           0       15.220851   -2.839088   -3.620150
     13          6           0       15.349578   -3.651369   -4.912041
     14          1           0       14.323618   -4.634162   -5.226480
     15          7           0       15.722242    2.303299   -1.026897
     16          6           0       16.098663    2.293485   -2.328242
     17          6           0       15.871904    3.666446   -2.828482
     18          6           0       15.512432    4.521661   -1.663373
     19          6           0       15.720423    3.603228   -0.573144
     20          6           0       15.954533    4.038498   -4.277102
     21          6           0       15.064272    5.944461   -1.549683
     22          8           0       15.028592    6.558854   -0.429049
     23          6           0       14.748330    6.636577   -2.812298
     24          7           0       16.162197    1.906580    1.942018
     25          6           0       16.089503    3.241958    1.920434
     26          6           0       16.125795    3.813235    3.306892
     27          6           0       15.993549    2.570416    4.300705
     28          6           0       15.985959    1.430129    3.252870
     29          6           0       17.380430    4.621744    3.664962
     30          6           0       14.848232    2.622130    5.342814
     31          6           0       13.511555    2.531871    4.641211
     32          7           0       15.876050   -0.979124    1.497447
     33          6           0       16.011605   -1.005081    2.893021
     34          6           0       16.145417   -2.419401    3.287813
     35          6           0       16.094712   -3.121377    2.085106
     36          6           0       15.965457   -2.201970    1.005163
     37          6           0       16.348979   -2.899408    4.611667
     38          6           0       16.144415   -4.432705    1.459163
     39          8           0       16.151554   -5.592297    1.874842
     40          6           0       16.308776   -4.232048   -0.111998
     41          6           0       15.308773   -5.127281   -0.791601
     42          8           0       14.083603   -4.916305   -0.682914
     43          8           0       15.948335   -5.938950   -1.647578
     44          6           0       15.010246   -6.833498   -2.376911
     45          1           0       17.129779    1.474326   -3.982604
     46          1           0       15.818125    4.962602    1.021945
     47          1           0       16.055544   -0.120357    4.702483
     48          1           0       17.240179   -3.364209   -2.986011
     49          1           0       16.947662   -1.043363   -4.559401
     50          1           0       19.127425   -2.026114   -2.756982
     51          1           0       19.023462   -0.246282   -2.923291
     52          1           0       19.265474   -1.197013   -4.361388
     53          1           0       14.791083   -1.920846   -4.020391
     54          1           0       14.538168   -3.349485   -2.939881
     55          1           0       16.342508   -4.091383   -5.008925
     56          1           0       15.273764   -2.965395   -5.755779
     57          1           0       16.398907    3.240623   -4.870796
     58          1           0       16.664139    4.862028   -4.354352
     59          1           0       14.988574    4.346795   -4.677363
     60          1           0       15.629068    6.632976   -3.454822
     61          1           0       14.360344    7.614686   -2.530126
     62          1           0       13.980270    6.072065   -3.341787
     63          1           0       15.290739    4.492882    3.471781
     64          1           0       16.892802    2.429029    4.900728
     65          1           0       17.167025    5.640583    3.989200
     66          1           0       18.042537    4.617345    2.799580
     67          1           0       18.015030    4.167845    4.425669
     68          1           0       14.865779    3.570502    5.878751
     69          1           0       14.902284    1.822558    6.081742
     70          1           0       13.323958    3.562269    4.341346
     71          1           0       12.743239    2.179768    5.330360
     72          1           0       13.578955    1.934890    3.731510
     73          1           0       15.692580   -3.761749    4.727759
     74          1           0       16.126409   -2.129859    5.350490
     75          1           0       17.409271   -3.149015    4.575152
     76          1           0       17.334912   -4.504231   -0.357122
     77          1           0       15.341634   -7.857159   -2.202173
     78          1           0       14.982762   -6.479540   -3.407621
     79          1           0       13.990589   -6.878875   -1.992752
     80         12           0      -15.943960   -0.817414    0.086380
     81          6           0      -15.907899    2.645447   -0.855089
     82          6           0      -15.131213    0.186613    3.243271
     83          6           0      -15.525968   -3.870358    0.842855
     84          6           0      -15.621147   -1.596707   -3.295066
     85          7           0      -15.592709    1.184945    0.957830
     86          6           0      -15.667480    2.432166    0.518289
     87          6           0      -15.553449    3.512726    1.626858
     88          6           0      -14.754379    2.651027    2.721307
     89          6           0      -15.210167    1.252153    2.311330
     90          6           0      -13.244990    2.727291    2.562379
     91          6           0      -16.955506    3.966940    2.165312
     92          6           0      -16.935205    5.233680    3.023624
     93          1           0      -18.064252    6.155198    2.931242
     94          7           0      -15.891319   -1.705344    1.860468
     95          6           0      -15.561976   -1.143196    3.042327
     96          6           0      -15.657174   -2.219784    4.040343
     97          6           0      -15.909377   -3.500707    3.325949
     98          6           0      -15.761398   -3.068995    1.950518
     99          6           0      -15.591008   -1.967168    5.518595
    100          6           0      -16.218350   -4.887710    3.802345
    101          8           0      -16.164586   -5.897695    3.015023
    102          6           0      -16.494482   -5.041425    5.238176
    103          7           0      -15.408602   -2.486509   -1.031583
    104          6           0      -15.349963   -3.706058   -0.468388
    105          6           0      -15.216132   -4.785016   -1.516393
    106          6           0      -15.441224   -4.051378   -2.919496
    107          6           0      -15.584002   -2.595593   -2.423840
    108          6           0      -13.880563   -5.528056   -1.539395
    109          6           0      -16.546248   -4.628442   -3.846101
    110          6           0      -17.907001   -4.409092   -3.225108
    111          7           0      -15.975263    0.282323   -1.773092
    112          6           0      -15.795127   -0.236466   -3.074045
    113          6           0      -15.784446    0.912049   -4.003139
    114          6           0      -15.937259    2.029967   -3.169241
    115          6           0      -16.015931    1.609396   -1.814095
    116          6           0      -15.598846    0.840187   -5.412579
    117          6           0      -16.039237    3.470967   -3.126274
    118          8           0      -16.122234    4.361524   -3.971114
    119          6           0      -15.897803    3.942739   -1.615043
    120          6           0      -16.997265    4.929337   -1.331609
    121          8           0      -18.187849    4.570280   -1.345908
    122          8           0      -16.455519    6.074957   -0.879452
    123          6           0      -17.507212    7.081126   -0.573873
    124          1           0      -14.656036    0.374033    4.206580
    125          1           0      -15.484671   -4.944430    1.038171
    126          1           0      -15.623270   -1.763267   -4.374382
    127          1           0      -14.978084    4.388137    1.350459
    128          1           0      -15.091238    2.881879    3.728580
    129          1           0      -12.960602    3.255293    1.664341
    130          1           0      -12.901118    1.701968    2.523380
    131          1           0      -12.793150    3.162835    3.458195
    132          1           0      -17.305350    3.240776    2.910317
    133          1           0      -17.652384    4.087995    1.358882
    134          1           0      -15.986963    5.777450    2.933567
    135          1           0      -16.977379    4.940837    4.075517
    136          1           0      -15.234597   -0.953109    5.737832
    137          1           0      -14.810361   -2.622219    5.920310
    138          1           0      -16.532671   -2.187176    6.026075
    139          1           0      -15.638874   -4.690259    5.810097
    140          1           0      -16.780592   -6.086662    5.370475
    141          1           0      -17.337629   -4.393906    5.503573
    142          1           0      -15.978883   -5.543550   -1.390098
    143          1           0      -14.537339   -4.083007   -3.545449
    144          1           0      -13.988098   -6.622867   -1.421442
    145          1           0      -13.250382   -5.121654   -0.759502
    146          1           0      -13.277549   -5.366563   -2.431298
    147          1           0      -16.424491   -5.709121   -3.953131
    148          1           0      -16.538647   -4.203100   -4.844111
    149          1           0      -17.999500   -5.249201   -2.530296
    150          1           0      -18.684492   -4.438585   -3.985809
    151          1           0      -17.925003   -3.487332   -2.632068
    152          1           0      -16.322691    1.510604   -5.856509
    153          1           0      -15.721379   -0.177145   -5.778370
    154          1           0      -14.563489    1.182552   -5.490669
    155          1           0      -14.908747    4.388374   -1.502166
    156          1           0      -17.265756    7.980394   -1.148942
    157          1           0      -17.518705    7.175974    0.528220
    158          1           0      -18.513888    6.874154   -0.917728
 ---------------------------------------------------------------------

 SCF Done:  E(RCAM-B3LYP) =  -4069.81179152     A.U. after   19 cycles

 Excitation energies and oscillator strengths:

 Excited State   1:      Singlet-A      1.6754 eV  740.05 nm  f=0.2360  <S**2>=0.000
     310 -> 316        0.16929
     311 -> 314        0.15148
     312 -> 313        0.66912
     310 <- 316        0.10205
 This state for optimization and/or second-order correction.
 Total Energy, E(TD-HF/TD-DFT) =  -4069.75022330
 Copying the excited state density for this state as the 1-particle RhoCI density.

 Excited State   2:      Singlet-A      1.6801 eV  737.95 nm  f=0.5412  <S**2>=0.000
     309 -> 315        0.17127
     311 -> 314        0.66876
     312 -> 313       -0.15143
     309 <- 315        0.10254

 Excited State   3:      Singlet-A      2.1861 eV  567.14 nm  f=0.0959  <S**2>=0.000
     310 -> 313        0.64213
     312 -> 316       -0.27298

 Excited State   4:      Singlet-A      2.1926 eV  565.47 nm  f=0.1043  <S**2>=0.000
     309 -> 314        0.64035
     311 -> 315       -0.27815

 Excited State   5:      Singlet-A      3.0658 eV  404.41 nm  f=0.0000  <S**2>=0.000
     311 -> 313        0.70711

 The electronic state is 1-A.
 Alpha  occ. eigenvalues --  -46.87796 -46.87660 -19.26353 -19.26282 -19.19164
 Alpha  occ. eigenvalues --  -19.19018 -19.18813 -19.18711 -19.18169 -19.18054
 Alpha  occ. eigenvalues --  -14.42497 -14.42449 -14.41450 -14.41360 -14.39402
 Alpha  occ. eigenvalues --  -14.39352 -14.38600 -14.38586 -10.39093 -10.39078
 Alpha  occ. eigenvalues --  -10.35447 -10.35389 -10.34389 -10.34231 -10.31760
 Alpha  occ. eigenvalues --  -10.31676 -10.31404 -10.31309 -10.31023 -10.30907
 Alpha  occ. eigenvalues --  -10.30569 -10.30507 -10.30398 -10.30361 -10.30207
 Alpha  occ. eigenvalues --  -10.30140 -10.29922 -10.29895 -10.29630 -10.29436
 Alpha  occ. eigenvalues --  -10.29401 -10.29254 -10.28746 -10.28719 -10.28654
 Alpha  occ. eigenvalues --  -10.28532 -10.28405 -10.28364 -10.28139 -10.28114
 Alpha  occ. eigenvalues --  -10.28001 -10.27792 -10.27726 -10.27669 -10.27583
 Alpha  occ. eigenvalues --  -10.27518 -10.27504 -10.27484 -10.27477 -10.27466
 Alpha  occ. eigenvalues --  -10.27462 -10.27452 -10.27403 -10.27376 -10.27157
 Alpha  occ. eigenvalues --  -10.27052 -10.26700 -10.26693 -10.26410 -10.26406
 Alpha  occ. eigenvalues --  -10.26231 -10.26189 -10.26139 -10.26023 -10.26020
 Alpha  occ. eigenvalues --  -10.25935 -10.25855 -10.25846 -10.25438 -10.25395
 Alpha  occ. eigenvalues --  -10.24874 -10.24832 -10.24788 -10.24733 -10.24693
 Alpha  occ. eigenvalues --  -10.24690  -3.16539  -3.16410  -1.91420  -1.91293
 Alpha  occ. eigenvalues --   -1.91007  -1.90881  -1.90849  -1.90718  -1.16646
 Alpha  occ. eigenvalues --   -1.16631  -1.08661  -1.08627  -1.07215  -1.06964
 Alpha  occ. eigenvalues --   -1.06948  -1.06641  -1.04580  -1.04495  -1.03760
 Alpha  occ. eigenvalues --   -1.03663  -1.03233  -1.03039  -1.02411  -1.02112
 Alpha  occ. eigenvalues --   -0.91988  -0.91971  -0.89521  -0.89495  -0.89185
 Alpha  occ. eigenvalues --   -0.89151  -0.88288  -0.88220  -0.87871  -0.87796
 Alpha  occ. eigenvalues --   -0.87684  -0.87672  -0.87272  -0.87118  -0.84999
 Alpha  occ. eigenvalues --   -0.84980  -0.83939  -0.83877  -0.82966  -0.82929
 Alpha  occ. eigenvalues --   -0.82652  -0.82647  -0.81598  -0.81584  -0.80595
 Alpha  occ. eigenvalues --   -0.80443  -0.78796  -0.78635  -0.77218  -0.77145
 Alpha  occ. eigenvalues --   -0.76933  -0.76899  -0.75921  -0.75839  -0.74899
 Alpha  occ. eigenvalues --   -0.74803  -0.72774  -0.72700  -0.71672  -0.71581
 Alpha  occ. eigenvalues --   -0.69910  -0.69758  -0.68871  -0.68827  -0.67640
 Alpha  occ. eigenvalues --   -0.67602  -0.67217  -0.67199  -0.65284  -0.65272
 Alpha  occ. eigenvalues --   -0.64853  -0.64771  -0.64654  -0.64620  -0.64271
 Alpha  occ. eigenvalues --   -0.64204  -0.62297  -0.62280  -0.60441  -0.60339
 Alpha  occ. eigenvalues --   -0.59802  -0.59796  -0.58993  -0.58987  -0.58503
 Alpha  occ. eigenvalues --   -0.58426  -0.57583  -0.57556  -0.57309  -0.57237
 Alpha  occ. eigenvalues --   -0.56309  -0.56205  -0.55976  -0.55888  -0.55519
 Alpha  occ. eigenvalues --   -0.55452  -0.55340  -0.55249  -0.54524  -0.54489
 Alpha  occ. eigenvalues --   -0.53912  -0.53892  -0.53298  -0.53228  -0.53220
 Alpha  occ. eigenvalues --   -0.53142  -0.52914  -0.52903  -0.52753  -0.52666
 Alpha  occ. eigenvalues --   -0.52442  -0.52402  -0.51916  -0.51888  -0.51658
 Alpha  occ. eigenvalues --   -0.51614  -0.51203  -0.51196  -0.50570  -0.50472
 Alpha  occ. eigenvalues --   -0.50033  -0.49979  -0.49917  -0.49867  -0.49512
 Alpha  occ. eigenvalues --   -0.49487  -0.49213  -0.49202  -0.49105  -0.49094
 Alpha  occ. eigenvalues --   -0.48592  -0.48559  -0.48462  -0.48444  -0.48376
 Alpha  occ. eigenvalues --   -0.48337  -0.47693  -0.47594  -0.47296  -0.47117
 Alpha  occ. eigenvalues --   -0.46797  -0.46709  -0.46553  -0.46553  -0.46359
 Alpha  occ. eigenvalues --   -0.46271  -0.46163  -0.46087  -0.45824  -0.45821
 Alpha  occ. eigenvalues --   -0.45208  -0.45202  -0.44577  -0.44515  -0.44505
 Alpha  occ. eigenvalues --   -0.44476  -0.44145  -0.44127  -0.44086  -0.44078
 Alpha  occ. eigenvalues --   -0.44018  -0.43938  -0.43555  -0.43494  -0.43386
 Alpha  occ. eigenvalues --   -0.43385  -0.43027  -0.42932  -0.42903  -0.42698
 Alpha  occ. eigenvalues --   -0.42656  -0.42554  -0.42010  -0.41965  -0.41703
 Alpha  occ. eigenvalues --   -0.41670  -0.41531  -0.41459  -0.41140  -0.40989
 Alpha  occ. eigenvalues --   -0.40868  -0.40821  -0.40721  -0.40697  -0.40572
 Alpha  occ. eigenvalues --   -0.40494  -0.40230  -0.40226  -0.39444  -0.39427
 Alpha  occ. eigenvalues --   -0.38470  -0.38350  -0.37745  -0.37654  -0.37321
 Alpha  occ. eigenvalues --   -0.37266  -0.37261  -0.37199  -0.36774  -0.36712
 Alpha  occ. eigenvalues --   -0.36218  -0.36192  -0.34286  -0.34254  -0.33864
 Alpha  occ. eigenvalues --   -0.33769  -0.33186  -0.33176  -0.31343  -0.31271
 Alpha  occ. eigenvalues --   -0.31035  -0.30973  -0.30028  -0.29958  -0.29448
 Alpha  occ. eigenvalues --   -0.29327  -0.29321  -0.29213  -0.24080  -0.24036
 Alpha  occ. eigenvalues --   -0.21127  -0.21117
 Alpha virt. eigenvalues --   -0.08792  -0.08773  -0.01749  -0.01684  -0.00056
 Alpha virt. eigenvalues --   -0.00028   0.02200   0.02206   0.03120   0.03226
 Alpha virt. eigenvalues --    0.04720   0.04729   0.05100   0.05162   0.06181

 Mulliken charges:
               1
     1  Mg   0.838699
     2  C   -0.002955
     3  C   -0.094090
     4  C   -0.045875
     5  C   -0.063992
     6  N   -0.256782
     7  C   -0.052461
     8  C   -0.014018
     9  C   -0.087001
    10  C    0.046335
    11  C    0.104808
    12  C    0.053450
    13  C   -0.071832
    14  H    0.036170
    15  N   -0.433148
    16  C    0.168426
    17  C   -0.177121
    18  C   -0.003987
    19  C    0.148717
    20  C    0.110168
    21  C    0.012287
    22  O   -0.249641
    23  C    0.062468
    24  N   -0.341110
    25  C    0.041238
    26  C   -0.028156
    27  C   -0.023956
    28  C    0.074830
    29  C    0.076172
    30  C    0.035128
    31  C   -0.004491
    32  N   -0.310472
    33  C    0.080395
    34  C   -0.169746
    35  C    0.008339
    36  C    0.082993
    37  C    0.127320
    38  C    0.046109
    39  O   -0.188463
    40  C   -0.005336
    41  C    0.212878
    42  O   -0.257111
    43  O   -0.304791
    44  C    0.157683
    45  H   -0.017564
    46  H   -0.016847
    47  H   -0.041538
    48  H    0.000942
    49  H   -0.003992
    50  H    0.025469
    51  H    0.016438
    52  H    0.016689
    53  H    0.011228
    54  H    0.044114
    55  H    0.017872
    56  H    0.017989
    57  H    0.005906
    58  H    0.026847
    59  H    0.039610
    60  H    0.037368
    61  H    0.035665
    62  H    0.031541
    63  H    0.016529
    64  H    0.009441
    65  H    0.023195
    66  H    0.012568
    67  H    0.004737
    68  H    0.006328
    69  H    0.004695
    70  H    0.008773
    71  H    0.018073
    72  H    0.029023
    73  H    0.047535
    74  H    0.009068
    75  H    0.046001
    76  H    0.035155
    77  H    0.042943
    78  H    0.046434
    79  H    0.053685
    80  Mg   0.837790
    81  C   -0.016817
    82  C   -0.087751
    83  C   -0.045473
    84  C   -0.064866
    85  N   -0.254552
    86  C   -0.049839
    87  C   -0.015094
    88  C   -0.090498
    89  C    0.045733
    90  C    0.114354
    91  C    0.062515
    92  C   -0.077905
    93  H    0.034883
    94  N   -0.423485
    95  C    0.162939
    96  C   -0.174567
    97  C   -0.007765
    98  C    0.152122
    99  C    0.099335
   100  C    0.015603
   101  O   -0.253142
   102  C    0.061180
   103  N   -0.350052
   104  C    0.037510
   105  C   -0.019844
   106  C   -0.034794
   107  C    0.088894
   108  C    0.073636
   109  C    0.034728
   110  C   -0.007677
   111  N   -0.324086
   112  C    0.078432
   113  C   -0.163167
   114  C    0.002221
   115  C    0.096172
   116  C    0.131495
   117  C    0.042372
   118  O   -0.187937
   119  C    0.000912
   120  C    0.211272
   121  O   -0.251031
   122  O   -0.305636
   123  C    0.152031
   124  H   -0.019595
   125  H   -0.015523
   126  H   -0.040489
   127  H   -0.000651
   128  H   -0.004299
   129  H    0.022451
   130  H    0.014472
   131  H    0.016344
   132  H    0.013928
   133  H    0.037657
   134  H    0.020797
   135  H    0.019622
   136  H    0.008795
   137  H    0.026241
   138  H    0.039825
   139  H    0.038315
   140  H    0.036446
   141  H    0.033888
   142  H    0.014414
   143  H    0.012418
   144  H    0.025186
   145  H    0.011697
   146  H    0.005688
   147  H    0.006277
   148  H    0.003618
   149  H    0.010954
   150  H    0.017908
   151  H    0.030101
   152  H    0.045966
   153  H    0.008493
   154  H    0.046915
   155  H    0.035019
   156  H    0.043887
   157  H    0.049513
   158  H    0.053573
 Sum of Mulliken charges =  -0.00000

 Dipole moment (field-independent basis, Debye):
    X=              3.9071    Y=              1.9303    Z=              0.4223  Tot=              4.3783
 Quadrupole moment (field-independent basis, Debye-Ang):
   XX=           -518.9810   YY=           -547.1643   ZZ=           -451.5022
   XY=             39.8116   XZ=           -124.8610   YZ=             44.1979

 Normal termination of Gaussian 16 at Sat Sep  4 18:01:00 2021.
