 Gaussian 16, Revision A.03,
 Gaussian 16:  ES64L-G16RevA.03 25-Dec-2016

 -----------------------------------
 #p cam-b3lyp/Def2SVP td=(nstates=5)
 -----------------------------------

 --------------------------------
 TDDFT excited states in gaussian
 --------------------------------
 Symbolic Z-matrix:
 Charge =  0 Multiplicity = 1

                         Standard orientation:
 ---------------------------------------------------------------------
 Center     Atomic      Atomic             Coordinates (Angstroms)
 Number     Number       Type             X           Y           Z
 ---------------------------------------------------------------------
      1         12           0        4.050751   -1.337345    0.445391
      2          6           0        4.892384    1.751120   -1.156249
      3          6           0        4.896728    0.138043    3.403535
      4          6           0        3.750780   -4.177907    1.823014
      5          6           0        4.365922   -2.868188   -2.669549
      6          7           0        4.785668    0.693139    0.932912
      7          6           0        5.008850    1.802073    0.234608
      8          6           0        5.304980    3.044729    1.126509
      9          6           0        5.830770    2.297319    2.433001
     10          6           0        5.100927    0.976038    2.267269
     11          6           0        7.333024    2.033517    2.421026
     12          6           0        4.016488    3.882720    1.425324
     13          6           0        4.264433    5.276730    2.008945
     14          1           0        3.378125    6.364763    1.624249
     15          7           0        3.817370   -1.820976    2.346570
     16          6           0        4.207107   -1.093617    3.420972
     17          6           0        3.810348   -1.878195    4.609964
     18          6           0        3.329542   -3.206696    4.138790
     19          6           0        3.641926   -3.130335    2.734524
     20          6           0        3.861063   -1.338494    6.006353
     21          6           0        2.699617   -4.365828    4.844298
     22          8           0        2.571558   -5.511088    4.290626
     23          6           0        2.311521   -4.147474    6.249555
     24          7           0        4.270194   -3.288984   -0.262128
     25          6           0        4.025452   -4.340718    0.527139
     26          6           0        3.971226   -5.614959   -0.262360
     27          6           0        3.989396   -5.183609   -1.799682
     28          6           0        4.141796   -3.653750   -1.613742
     29          6           0        5.106325   -6.614117    0.000783
     30          6           0        2.834900   -5.706950   -2.690565
     31          6           0        1.529473   -5.074434   -2.262917
     32          7           0        4.365349   -0.679210   -1.598853
     33          6           0        4.486771   -1.490222   -2.736477
     34          6           0        4.797964   -0.600326   -3.870193
     35          6           0        4.852672    0.672962   -3.306644
     36          6           0        4.618108    0.580998   -1.904925
     37          6           0        5.046450   -1.012306   -5.209208
     38          6           0        5.079086    2.086890   -3.558439
     39          8           0        5.231451    2.774144   -4.569359
     40          6           0        5.234469    2.826820   -2.156945
     41          6           0        4.366836    4.055327   -2.192924
     42          8           0        3.123473    3.959253   -2.239671
     43          8           0        5.116096    5.136632   -1.928479
     44          6           0        4.310345    6.386768   -1.919628
     45          1           0        5.354916    0.417151    4.354378
     46          1           0        3.544095   -5.166485    2.238264
     47          1           0        4.394585   -3.264606   -3.686153
     48          1           0        6.079247    3.707599    0.739809
     49          1           0        5.507114    2.797110    3.345787
     50          1           0        7.774522    2.287901    1.457549
     51          1           0        7.442920    0.967401    2.620556
     52          1           0        7.822829    2.545501    3.249724
     53          1           0        3.476153    3.427519    2.255318
     54          1           0        3.397725    3.970862    0.531629
     55          1           0        5.307047    5.575810    1.897510
     56          1           0        4.110317    5.228039    3.086942
     57          1           0        4.411934   -0.399936    6.053205
     58          1           0        4.458912   -2.034028    6.595011
     59          1           0        2.868070   -1.243868    6.446060
     60          1           0        3.192774   -3.867036    6.826873
     61          1           0        1.796870   -5.054782    6.563840
     62          1           0        1.629279   -3.298361    6.299590
     63          1           0        3.053320   -6.163944   -0.056226
     64          1           0        4.892297   -5.521733   -2.308717
     65          1           0        4.759005   -7.598273    0.316236
     66          1           0        5.773516   -6.178177    0.743820
     67          1           0        5.785404   -6.765696   -0.837842
     68          1           0        2.723218   -6.784221   -2.572408
     69          1           0        2.983376   -5.503256   -3.751090
     70          1           0        1.213554   -5.705527   -1.433008
     71          1           0        0.805202   -5.109047   -3.077438
     72          1           0        1.684257   -4.070145   -1.868036
     73          1           0        4.505927   -0.314282   -5.848399
     74          1           0        4.717468   -2.037844   -5.375483
     75          1           0        6.130491   -0.909010   -5.254387
     76          1           0        6.290009    3.074147   -2.048380
     77          1           0        4.769427    7.069601   -2.634623
     78          1           0        4.249330    6.708747   -0.879911
     79          1           0        3.300719    6.312396   -2.325170
     80         12           0       -4.802162    0.064889   -0.384574
     81          6           0       -2.027258    2.296090    0.063401
     82          6           0       -6.630721    2.187824    1.560709
     83          6           0       -7.126210   -2.095255   -0.385231
     84          6           0       -2.502671   -2.388482   -1.300562
     85          7           0       -4.284659    1.964623    0.623123
     86          6           0       -3.217171    2.747224    0.671685
     87          6           0       -3.459672    4.124801    1.344761
     88          6           0       -4.724891    3.729997    2.251528
     89          6           0       -5.275321    2.577175    1.414444
     90          6           0       -4.340181    3.187059    3.617743
     91          6           0       -3.824299    5.242073    0.305168
     92          6           0       -3.771242    6.670627    0.851233
     93          1           0       -3.320158    7.738790   -0.036466
     94          7           0       -6.732212    0.254871    0.036612
     95          6           0       -7.304792    1.187556    0.826253
     96          6           0       -8.744132    0.883462    0.829336
     97          6           0       -8.953400   -0.402509    0.110174
     98          6           0       -7.579849   -0.817049   -0.093756
     99          6           0       -9.771393    1.815053    1.404044
    100          6           0      -10.185944   -1.143637   -0.311472
    101          8           0      -10.135905   -2.359445   -0.714123
    102          6           0      -11.464109   -0.435169   -0.150691
    103          7           0       -4.803106   -2.005066   -0.578576
    104          6           0       -5.955780   -2.697088   -0.597821
    105          6           0       -5.725860   -4.128119   -1.021718
    106          6           0       -4.207034   -4.190265   -1.518608
    107          6           0       -3.776549   -2.741976   -1.198395
    108          6           0       -5.951501   -5.186207    0.058056
    109          6           0       -3.956998   -4.736091   -2.951171
    110          6           0       -4.518612   -3.775704   -3.974706
    111          7           0       -2.677426   -0.009437   -0.769306
    112          6           0       -1.912313   -1.144977   -1.114618
    113          6           0       -0.498232   -0.719847   -1.159866
    114          6           0       -0.536709    0.638949   -0.812465
    115          6           0       -1.877751    1.027939   -0.548296
    116          6           0        0.614692   -1.561041   -1.442537
    117          6           0        0.253391    1.830083   -0.598814
    118          8           0        1.436607    2.127685   -0.757428
    119          6           0       -0.662066    2.924968    0.100867
    120          6           0       -0.469840    4.226234   -0.628716
    121          8           0       -0.835477    4.347894   -1.811137
    122          8           0       -0.088498    5.171614    0.249467
    123          6           0        0.104138    6.483085   -0.424885
    124          1           0       -7.225897    2.663489    2.340704
    125          1           0       -7.902062   -2.854876   -0.505688
    126          1           0       -1.735700   -3.070548   -1.673670
    127          1           0       -2.647497    4.473497    1.971314
    128          1           0       -5.444589    4.542999    2.300817
    129          1           0       -3.273568    3.045187    3.709158
    130          1           0       -4.857319    2.241442    3.714779
    131          1           0       -4.740133    3.831553    4.405786
    132          1           0       -4.892974    5.172417    0.064709
    133          1           0       -3.206455    5.165965   -0.568391
    134          1           0       -3.248734    6.724731    1.814043
    135          1           0       -4.789959    6.992472    1.080690
    136          1           0       -9.306276    2.601893    2.010642
    137          1           0      -10.364218    1.235112    2.119661
    138          1           0      -10.438746    2.226818    0.643948
    139          1           0      -11.596848   -0.162212    0.893496
    140          1           0      -12.218937   -1.091146   -0.588659
    141          1           0      -11.418667    0.501459   -0.717500
    142          1           0       -6.376237   -4.396805   -1.845068
    143          1           0       -3.596643   -4.847561   -0.882034
    144          1           0       -6.698485   -5.950249   -0.228874
    145          1           0       -6.250432   -4.685551    0.969383
    146          1           0       -5.058201   -5.723485    0.371980
    147          1           0       -4.483246   -5.683284   -3.092756
    148          1           0       -2.909177   -4.914194   -3.168749
    149          1           0       -5.577103   -4.049632   -4.015423
    150          1           0       -4.036412   -3.919047   -4.939574
    151          1           0       -4.459399   -2.740992   -3.617607
    152          1           0        1.258293   -1.010223   -2.115506
    153          1           0        0.298038   -2.506213   -1.878599
    154          1           0        1.022684   -1.689402   -0.436386
    155          1           0       -0.353413    2.991481    1.144840
    156          1           0        1.122220    6.813300   -0.196471
    157          1           0       -0.724736    7.125079   -0.071958
    158          1           0        0.116885    6.492401   -1.508491
 ---------------------------------------------------------------------

 SCF Done:  E(RCAM-B3LYP) =  -4069.81141900     A.U. after   18 cycles

 Excitation energies and oscillator strengths:

 Excited State   1:      Singlet-A      1.6486 eV  752.05 nm  f=0.3288  <S**2>=0.000
     309 -> 315        0.13041
     310 -> 316       -0.10349
     311 -> 313        0.53206
     312 -> 314       -0.42963
 This state for optimization and/or second-order correction.
 Total Energy, E(TD-HF/TD-DFT) =  -4069.75083355
 Copying the excited state density for this state as the 1-particle RhoCI density.

 Excited State   2:      Singlet-A      1.6921 eV  732.71 nm  f=0.4728  <S**2>=0.000
     309 -> 315        0.11056
     310 -> 316        0.13671
     311 -> 313        0.42679
     312 -> 314        0.53193

 Excited State   3:      Singlet-A      2.1653 eV  572.61 nm  f=0.0048  <S**2>=0.000
     309 -> 313       -0.37564
     310 -> 314        0.52618
     311 -> 315        0.15094
     312 -> 316       -0.21040

 Excited State   4:      Singlet-A      2.1867 eV  566.99 nm  f=0.0015  <S**2>=0.000
     312 -> 313        0.69672

 Excited State   5:      Singlet-A      2.1899 eV  566.18 nm  f=0.1620  <S**2>=0.000
     309 -> 313        0.52170
     310 -> 314        0.36617
     311 -> 315       -0.22337
     312 -> 316       -0.16140

 The electronic state is 1-A.
 Alpha  occ. eigenvalues --  -46.87559 -46.87123 -19.26095 -19.25463 -19.18706
 Alpha  occ. eigenvalues --  -19.18631 -19.18352 -19.18045 -19.17878 -19.17495
 Alpha  occ. eigenvalues --  -14.42417 -14.41756 -14.41248 -14.40833 -14.39256
 Alpha  occ. eigenvalues --  -14.38785 -14.38494 -14.37854 -10.38715 -10.37957
 Alpha  occ. eigenvalues --  -10.35310 -10.34998 -10.33990 -10.33687 -10.31626
 Alpha  occ. eigenvalues --  -10.31281 -10.31220 -10.30926 -10.30687 -10.30303
 Alpha  occ. eigenvalues --  -10.30264 -10.30142 -10.30040 -10.29902 -10.29893
 Alpha  occ. eigenvalues --  -10.29792 -10.29745 -10.29361 -10.29360 -10.29311
 Alpha  occ. eigenvalues --  -10.29020 -10.28703 -10.28653 -10.28603 -10.28294
 Alpha  occ. eigenvalues --  -10.28090 -10.28011 -10.27991 -10.27888 -10.27618
 Alpha  occ. eigenvalues --  -10.27593 -10.27448 -10.27400 -10.27400 -10.27380
 Alpha  occ. eigenvalues --  -10.27374 -10.27264 -10.27225 -10.27187 -10.27125
 Alpha  occ. eigenvalues --  -10.27124 -10.27036 -10.26987 -10.26883 -10.26677
 Alpha  occ. eigenvalues --  -10.26600 -10.26359 -10.26347 -10.26136 -10.26062
 Alpha  occ. eigenvalues --  -10.26050 -10.26025 -10.25947 -10.25814 -10.25710
 Alpha  occ. eigenvalues --  -10.25673 -10.25492 -10.25369 -10.25273 -10.25132
 Alpha  occ. eigenvalues --  -10.24851 -10.24806 -10.24641 -10.24584 -10.24192
 Alpha  occ. eigenvalues --  -10.24189  -3.16309  -3.15826  -1.91191  -1.90780
 Alpha  occ. eigenvalues --   -1.90710  -1.90617  -1.90295  -1.90138  -1.16315
 Alpha  occ. eigenvalues --   -1.15765  -1.08489  -1.07924  -1.06885  -1.06767
 Alpha  occ. eigenvalues --   -1.06516  -1.05526  -1.04405  -1.03873  -1.03567
 Alpha  occ. eigenvalues --   -1.03145  -1.02935  -1.02605  -1.02008  -1.01766
 Alpha  occ. eigenvalues --   -0.91858  -0.91244  -0.89383  -0.89139  -0.89088
 Alpha  occ. eigenvalues --   -0.88477  -0.88114  -0.87866  -0.87788  -0.87596
 Alpha  occ. eigenvalues --   -0.87284  -0.87042  -0.87037  -0.86750  -0.84923
 Alpha  occ. eigenvalues --   -0.84340  -0.83762  -0.83632  -0.82845  -0.82563
 Alpha  occ. eigenvalues --   -0.82550  -0.82067  -0.81469  -0.80985  -0.80336
 Alpha  occ. eigenvalues --   -0.79985  -0.78576  -0.78238  -0.77097  -0.76801
 Alpha  occ. eigenvalues --   -0.76763  -0.76354  -0.75753  -0.75327  -0.74695
 Alpha  occ. eigenvalues --   -0.74468  -0.72647  -0.72200  -0.71483  -0.71095
 Alpha  occ. eigenvalues --   -0.69716  -0.69646  -0.68746  -0.68274  -0.67497
 Alpha  occ. eigenvalues --   -0.67121  -0.67064  -0.66544  -0.65181  -0.64670
 Alpha  occ. eigenvalues --   -0.64631  -0.64533  -0.64279  -0.64091  -0.64074
 Alpha  occ. eigenvalues --   -0.63770  -0.62104  -0.61667  -0.60246  -0.59940
 Alpha  occ. eigenvalues --   -0.59735  -0.59117  -0.58883  -0.58397  -0.58298
 Alpha  occ. eigenvalues --   -0.57902  -0.57388  -0.57112  -0.56919  -0.56667
 Alpha  occ. eigenvalues --   -0.56172  -0.55761  -0.55700  -0.55425  -0.55294
 Alpha  occ. eigenvalues --   -0.55118  -0.55026  -0.54874  -0.54328  -0.53954
 Alpha  occ. eigenvalues --   -0.53832  -0.53212  -0.53181  -0.53055  -0.52825
 Alpha  occ. eigenvalues --   -0.52738  -0.52646  -0.52603  -0.52395  -0.52316
 Alpha  occ. eigenvalues --   -0.52279  -0.52028  -0.51989  -0.51565  -0.51350
 Alpha  occ. eigenvalues --   -0.51089  -0.50968  -0.50633  -0.50400  -0.50155
 Alpha  occ. eigenvalues --   -0.49918  -0.49787  -0.49731  -0.49405  -0.49392
 Alpha  occ. eigenvalues --   -0.49164  -0.49086  -0.48861  -0.48653  -0.48499
 Alpha  occ. eigenvalues --   -0.48437  -0.48280  -0.48256  -0.48075  -0.47887
 Alpha  occ. eigenvalues --   -0.47790  -0.47465  -0.47217  -0.47012  -0.46746
 Alpha  occ. eigenvalues --   -0.46630  -0.46499  -0.46372  -0.46142  -0.46045
 Alpha  occ. eigenvalues --   -0.45900  -0.45849  -0.45740  -0.45516  -0.45216
 Alpha  occ. eigenvalues --   -0.45098  -0.44787  -0.44433  -0.44422  -0.44108
 Alpha  occ. eigenvalues --   -0.44027  -0.43982  -0.43894  -0.43836  -0.43709
 Alpha  occ. eigenvalues --   -0.43488  -0.43455  -0.43374  -0.43256  -0.42914
 Alpha  occ. eigenvalues --   -0.42835  -0.42791  -0.42672  -0.42458  -0.42455
 Alpha  occ. eigenvalues --   -0.42291  -0.41987  -0.41827  -0.41542  -0.41480
 Alpha  occ. eigenvalues --   -0.41334  -0.41057  -0.40938  -0.40835  -0.40653
 Alpha  occ. eigenvalues --   -0.40627  -0.40569  -0.40387  -0.40352  -0.40336
 Alpha  occ. eigenvalues --   -0.40156  -0.40040  -0.39509  -0.39326  -0.39234
 Alpha  occ. eigenvalues --   -0.38251  -0.38046  -0.37572  -0.37160  -0.37112
 Alpha  occ. eigenvalues --   -0.37102  -0.36816  -0.36591  -0.36467  -0.36032
 Alpha  occ. eigenvalues --   -0.35978  -0.35380  -0.34147  -0.33612  -0.33489
 Alpha  occ. eigenvalues --   -0.33034  -0.32756  -0.32406  -0.31188  -0.30884
 Alpha  occ. eigenvalues --   -0.30868  -0.30368  -0.29717  -0.29329  -0.29234
 Alpha  occ. eigenvalues --   -0.29118  -0.28866  -0.28664  -0.23930  -0.23364
 Alpha  occ. eigenvalues --   -0.21029  -0.20514
 Alpha virt. eigenvalues --   -0.08701  -0.08148  -0.01594  -0.01163   0.00052
 Alpha virt. eigenvalues --    0.00547   0.02224   0.02823   0.03334   0.04475
 Alpha virt. eigenvalues --    0.04769   0.05047   0.05543   0.05963   0.06222

 Mulliken charges:
               1
     1  Mg   0.793465
     2  C    0.030531
     3  C   -0.094273
     4  C   -0.048063
     5  C   -0.068315
     6  N   -0.254666
     7  C   -0.042878
     8  C   -0.020089
     9  C   -0.087456
    10  C    0.048358
    11  C    0.105525
    12  C    0.057465
    13  C   -0.069691
    14  H    0.027900
    15  N   -0.427251
    16  C    0.167893
    17  C   -0.178694
    18  C   -0.005583
    19  C    0.146117
    20  C    0.110779
    21  C    0.010775
    22  O   -0.252104
    23  C    0.063138
    24  N   -0.336737
    25  C    0.038356
    26  C   -0.027805
    27  C   -0.024626
    28  C    0.073314
    29  C    0.077234
    30  C    0.043987
    31  C   -0.024509
    32  N   -0.310563
    33  C    0.077166
    34  C   -0.173749
    35  C    0.005264
    36  C    0.092451
    37  C    0.127607
    38  C    0.052907
    39  O   -0.189306
    40  C   -0.014941
    41  C    0.207387
    42  O   -0.234159
    43  O   -0.307759
    44  C    0.157748
    45  H   -0.019771
    46  H   -0.020161
    47  H   -0.045790
    48  H   -0.001728
    49  H   -0.006388
    50  H    0.024733
    51  H    0.015388
    52  H    0.014302
    53  H    0.007577
    54  H    0.055250
    55  H    0.015583
    56  H    0.015110
    57  H    0.004893
    58  H    0.025160
    59  H    0.037040
    60  H    0.036821
    61  H    0.033705
    62  H    0.030351
    63  H    0.013611
    64  H    0.009105
    65  H    0.021508
    66  H    0.013240
    67  H    0.003661
    68  H    0.004488
    69  H    0.004429
    70  H    0.007420
    71  H    0.016247
    72  H    0.041800
    73  H    0.047516
    74  H    0.006763
    75  H    0.044984
    76  H    0.032000
    77  H    0.040777
    78  H    0.042891
    79  H    0.050193
    80  Mg   0.838408
    81  C   -0.018252
    82  C   -0.087841
    83  C   -0.045785
    84  C   -0.067680
    85  N   -0.254272
    86  C   -0.050418
    87  C   -0.014671
    88  C   -0.090429
    89  C    0.045548
    90  C    0.114648
    91  C    0.062716
    92  C   -0.077386
    93  H    0.034839
    94  N   -0.423431
    95  C    0.162848
    96  C   -0.174796
    97  C   -0.007918
    98  C    0.152196
    99  C    0.099473
   100  C    0.015497
   101  O   -0.253259
   102  C    0.061220
   103  N   -0.350146
   104  C    0.037938
   105  C   -0.020019
   106  C   -0.034181
   107  C    0.088444
   108  C    0.073459
   109  C    0.033907
   110  C   -0.007481
   111  N   -0.324482
   112  C    0.081492
   113  C   -0.157560
   114  C    0.007524
   115  C    0.099392
   116  C    0.091445
   117  C    0.048767
   118  O   -0.161452
   119  C   -0.005178
   120  C    0.226040
   121  O   -0.246481
   122  O   -0.309769
   123  C    0.155548
   124  H   -0.020194
   125  H   -0.015692
   126  H   -0.039047
   127  H   -0.001720
   128  H   -0.004558
   129  H    0.021269
   130  H    0.014421
   131  H    0.015542
   132  H    0.013851
   133  H    0.039117
   134  H    0.019605
   135  H    0.019220
   136  H    0.008441
   137  H    0.025835
   138  H    0.039682
   139  H    0.038045
   140  H    0.036233
   141  H    0.033876
   142  H    0.014158
   143  H    0.013931
   144  H    0.024786
   145  H    0.011560
   146  H    0.006719
   147  H    0.005951
   148  H    0.003632
   149  H    0.010851
   150  H    0.017374
   151  H    0.030560
   152  H    0.071346
   153  H    0.017100
   154  H    0.065722
   155  H    0.031840
   156  H    0.032355
   157  H    0.046723
   158  H    0.058149
 Sum of Mulliken charges =  -0.00000

 Dipole moment (field-independent basis, Debye):
    X=             -1.6459    Y=              2.3167    Z=              6.3388  Tot=              6.9467
 Quadrupole moment (field-independent basis, Debye-Ang):
   XX=           -496.9978   YY=           -484.9808   ZZ=           -506.0615
   XY=            -28.0861   XZ=              5.6245   YZ=             48.9435

 Normal termination of Gaussian 16 at Fri Sep 10 00:04:01 2021.
