 Gaussian 16, Revision A.03,
 Gaussian 16:  ES64L-G16RevA.03 25-Dec-2016

 -----------------------------------
 #p cam-b3lyp/Def2SVP td=(nstates=5)
 -----------------------------------

 --------------------------------
 TDDFT excited states in gaussian
 --------------------------------
 Symbolic Z-matrix:
 Charge =  0 Multiplicity = 1

                         Standard orientation:
 ---------------------------------------------------------------------
 Center     Atomic      Atomic             Coordinates (Angstroms)
 Number     Number       Type             X           Y           Z
 ---------------------------------------------------------------------
      1         12           0        5.204840   -0.597060   -0.492343
      2          6           0        5.396486    2.840733    0.485953
      3          6           0        6.358402   -1.392337    2.618910
      4          6           0        5.476493   -3.598597   -1.479055
      5          6           0        5.167764    0.499427   -3.800213
      6          7           0        5.768208    0.654131    1.244834
      7          6           0        5.738922    1.956205    1.511133
      8          6           0        6.033377    2.288142    3.004615
      9          6           0        6.855801    0.979518    3.395918
     10          6           0        6.268485    0.011813    2.383727
     11          6           0        8.354961    1.104025    3.143892
     12          6           0        4.724450    2.417539    3.854143
     13          6           0        4.902042    3.055888    5.234841
     14          1           0        3.842211    3.906807    5.754498
     15          7           0        5.353573   -2.275975    0.538177
     16          6           0        5.830816   -2.412962    1.798637
     17          6           0        5.734898   -3.853971    2.116403
     18          6           0        5.340679   -4.569293    0.871011
     19          6           0        5.400770   -3.499344   -0.091785
     20          6           0        5.956614   -4.410330    3.489377
     21          6           0        4.978988   -5.993662    0.590864
     22          8           0        4.894612   -6.452507   -0.599479
     23          6           0        4.810412   -6.871401    1.763126
     24          7           0        5.529175   -1.450964   -2.369386
     25          6           0        5.545986   -2.778723   -2.529876
     26          6           0        5.509244   -3.153726   -3.981758
     27          6           0        5.217342   -1.802047   -4.780200
     28          6           0        5.218468   -0.817101   -3.585148
     29          6           0        6.781658   -3.809252   -4.536067
     30          6           0        3.998644   -1.799621   -5.736854
     31          6           0        2.718948   -1.906190   -4.938030
     32          7           0        5.091021    1.318557   -1.506493
     33          6           0        5.113199    1.542367   -2.890723
     34          6           0        5.122341    3.002998   -3.092066
     35          6           0        5.121584    3.530778   -1.802379
     36          6           0        5.139055    2.467218   -0.855370
     37          6           0        5.188149    3.670904   -4.346660
     38          6           0        5.134960    4.745855   -1.004090
     39          8           0        5.033114    5.948031   -1.252877
     40          6           0        5.436499    4.348529    0.508204
     41          6           0        4.437251    5.065742    1.374470
     42          8           0        3.223762    4.779097    1.323038
     43          8           0        5.088343    5.800884    2.288903
     44          6           0        4.154679    6.515416    3.199874
     45          1           0        6.934367   -1.748242    3.475377
     46          1           0        5.460106   -4.620240   -1.864303
     47          1           0        5.070947    0.915210   -4.804804
     48          1           0        6.648254    3.174743    3.160463
     49          1           0        6.634291    0.647764    4.410115
     50          1           0        8.594838    2.026551    2.615377
     51          1           0        8.621143    0.237820    2.537816
     52          1           0        8.913980    1.001856    4.074395
     53          1           0        4.388890    1.423870    4.150931
     54          1           0        3.957905    2.961666    3.301278
     55          1           0        5.868596    3.552813    5.322863
     56          1           0        4.938612    2.258809    5.977490
     57          1           0        6.393606   -3.668294    4.156434
     58          1           0        6.722491   -5.180603    3.400941
     59          1           0        5.047793   -4.842008    3.908936
     60          1           0        5.737316   -6.887612    2.336828
     61          1           0        4.466073   -7.829174    1.374603
     62          1           0        4.051584   -6.443151    2.418666
     63          1           0        4.710003   -3.866288   -4.181494
     64          1           0        6.054854   -1.513435   -5.415771
     65          1           0        6.610294   -4.788375   -4.984014
     66          1           0        7.508761   -3.871246   -3.726888
     67          1           0        7.322694   -3.210299   -5.268155
     68          1           0        4.035560   -2.663122   -6.400141
     69          1           0        3.941326   -0.906068   -6.358569
     70          1           0        2.623631   -2.978804   -4.772967
     71          1           0        1.876880   -1.523749   -5.515846
     72          1           0        2.819244   -1.433747   -3.960675
     73          1           0        4.469568    4.488784   -4.294869
     74          1           0        4.958389    2.993200   -5.168567
     75          1           0        6.229369    3.992939   -4.349609
     76          1           0        6.458852    4.662195    0.716840
     77          1           0        4.403411    7.575423    3.147428
     78          1           0        4.232456    6.024856    4.170290
     79          1           0        3.106929    6.534707    2.897901
     80         12           0       -5.346783   -0.872627    0.374782
     81          6           0       -5.345959    2.407758   -1.080598
     82          6           0       -4.268634    0.574140    3.269436
     83          6           0       -4.905190   -3.786554    1.550133
     84          6           0       -5.308740   -2.158287   -2.864256
     85          7           0       -4.902123    1.228845    0.902386
     86          6           0       -4.997451    2.397371    0.286098
     87          6           0       -4.780971    3.629060    1.205681
     88          6           0       -3.906054    2.922473    2.352032
     89          6           0       -4.410235    1.489269    2.195852
     90          6           0       -2.413728    2.937701    2.065524
     91          6           0       -6.129201    4.192535    1.777329
     92          6           0       -6.024222    5.572930    2.429449
     93          1           0       -7.145971    6.497012    2.287281
     94          7           0       -5.160935   -1.485153    2.253295
     95          6           0       -4.730093   -0.760018    3.306790
     96          6           0       -4.756817   -1.671972    4.460818
     97          6           0       -5.081411   -3.039188    3.970838
     98          6           0       -5.040401   -2.822546    2.538535
     99          6           0       -4.567909   -1.201944    5.873896
    100          6           0       -5.367206   -4.331119    4.674706
    101          8           0       -5.389555   -5.448850    4.047803
    102          6           0       -5.527729   -4.260845    6.134424
    103          7           0       -4.923834   -2.703029   -0.515771
    104          6           0       -4.834230   -3.825247    0.219423
    105          6           0       -4.798743   -5.052221   -0.660159
    106          6           0       -5.128197   -4.532356   -2.136230
    107          6           0       -5.212914   -3.015643   -1.857315
    108          6           0       -3.478397   -5.822193   -0.674929
    109          6           0       -6.311562   -5.215251   -2.875125
    110          6           0       -7.614722   -4.872504   -2.189784
    111          7           0       -5.515766   -0.064086   -1.621657
    112          6           0       -5.447984   -0.776495   -2.839021
    113          6           0       -5.499039    0.218932   -3.929409
    114          6           0       -5.570347    1.452724   -3.265210
    115          6           0       -5.543803    1.242385   -1.860026
    116          6           0       -5.429290   -0.068167   -5.321835
    117          6           0       -5.651327    2.885859   -3.433297
    118          8           0       -5.791977    3.641226   -4.394216
    119          6           0       -5.382118    3.575635   -2.026842
    120          6           0       -6.443110    4.619752   -1.810896
    121          8           0       -7.635119    4.291343   -1.677205
    122          8           0       -5.852854    5.806904   -1.581504
    123          6           0       -6.864210    6.872544   -1.350457
    124          1           0       -3.714652    0.892580    4.152951
    125          1           0       -4.860989   -4.819803    1.902147
    126          1           0       -5.400415   -2.484900   -3.902329
    127          1           0       -4.219543    4.438961    0.755535
    128          1           0       -4.157287    3.309964    3.335947
    129          1           0       -2.196886    3.317905    1.078321
    130          1           0       -2.086405    1.910178    2.155543
    131          1           0       -1.885528    3.491810    2.846735
    132          1           0       -6.426067    3.595075    2.648912
    133          1           0       -6.887729    4.207864    1.019023
    134          1           0       -5.080006    6.074052    2.183937
    135          1           0       -5.984386    5.442420    3.513610
    136          1           0       -4.182823   -0.175334    5.908266
    137          1           0       -3.765109   -1.807844    6.307800
    138          1           0       -5.467832   -1.320575    6.481125
    139          1           0       -4.624416   -3.848470    6.577631
    140          1           0       -5.814604   -5.267181    6.445657
    141          1           0       -6.338786   -3.560734    6.363900
    142          1           0       -5.557719   -5.764638   -0.360936
    143          1           0       -4.278523   -4.679321   -2.819093
    144          1           0       -3.589053   -6.883979   -0.384325
    145          1           0       -2.782207   -5.318577   -0.017483
    146          1           0       -2.947869   -5.810979   -1.625503
    147          1           0       -6.211782   -6.302366   -2.826328
    148          1           0       -6.379896   -4.944870   -3.923562
    149          1           0       -7.660539   -5.596308   -1.370577
    150          1           0       -8.451682   -4.997164   -2.873891
    151          1           0       -7.573565   -3.872008   -1.743752
    152          1           0       -6.178734    0.545223   -5.804113
    153          1           0       -5.593220   -1.125641   -5.518437
    154          1           0       -4.399685    0.233610   -5.531853
    155          1           0       -4.381917    4.009255   -2.060730
    156          1           0       -6.659515    7.669218   -2.072325
    157          1           0       -6.785103    7.132035   -0.277997
    158          1           0       -7.897860    6.640558   -1.578948
 ---------------------------------------------------------------------

 SCF Done:  E(RCAM-B3LYP) =  -4069.81196199     A.U. after   19 cycles

 Excitation energies and oscillator strengths:

 Excited State   1:      Singlet-A      1.6609 eV  746.49 nm  f=0.0785  <S**2>=0.000
     309 -> 315       -0.10974
     310 -> 316        0.12974
     311 -> 313       -0.44118
     312 -> 314        0.52649
 This state for optimization and/or second-order correction.
 Total Energy, E(TD-HF/TD-DFT) =  -4069.75092527
 Copying the excited state density for this state as the 1-particle RhoCI density.

 Excited State   2:      Singlet-A      1.6912 eV  733.12 nm  f=0.6367  <S**2>=0.000
     309 -> 315        0.13709
     310 -> 316        0.11328
     311 -> 313        0.52491
     312 -> 314        0.43989

 Excited State   3:      Singlet-A      2.1824 eV  568.12 nm  f=0.0509  <S**2>=0.000
     309 -> 313       -0.21782
     310 -> 314        0.60596
     312 -> 316       -0.25345

 Excited State   4:      Singlet-A      2.1948 eV  564.89 nm  f=0.1362  <S**2>=0.000
     309 -> 313        0.60233
     310 -> 314        0.21519
     311 -> 315       -0.26394

 Excited State   5:      Singlet-A      2.4782 eV  500.31 nm  f=0.0000  <S**2>=0.000
     312 -> 313        0.70709

 The electronic state is 1-A.
 Alpha  occ. eigenvalues --  -46.87890 -46.87473 -19.26487 -19.26105 -19.19224
 Alpha  occ. eigenvalues --  -19.18936 -19.18878 -19.18603 -19.18270 -19.17854
 Alpha  occ. eigenvalues --  -14.42551 -14.42289 -14.41538 -14.41176 -14.39492
 Alpha  occ. eigenvalues --  -14.39174 -14.38679 -14.38414 -10.39274 -10.38861
 Alpha  occ. eigenvalues --  -10.35510 -10.35285 -10.34495 -10.34024 -10.31913
 Alpha  occ. eigenvalues --  -10.31520 -10.31511 -10.31082 -10.31021 -10.30812
 Alpha  occ. eigenvalues --  -10.30663 -10.30593 -10.30285 -10.30225 -10.30174
 Alpha  occ. eigenvalues --  -10.30004 -10.29977 -10.29718 -10.29714 -10.29336
 Alpha  occ. eigenvalues --  -10.29269 -10.29237 -10.28903 -10.28782 -10.28462
 Alpha  occ. eigenvalues --  -10.28425 -10.28417 -10.28249 -10.28216 -10.27876
 Alpha  occ. eigenvalues --  -10.27827 -10.27823 -10.27809 -10.27666 -10.27565
 Alpha  occ. eigenvalues --  -10.27557 -10.27518 -10.27508 -10.27467 -10.27369
 Alpha  occ. eigenvalues --  -10.27364 -10.27310 -10.27289 -10.27283 -10.27222
 Alpha  occ. eigenvalues --  -10.26919 -10.26810 -10.26450 -10.26447 -10.26352
 Alpha  occ. eigenvalues --  -10.26349 -10.26237 -10.26099 -10.26012 -10.25885
 Alpha  occ. eigenvalues --  -10.25763 -10.25710 -10.25513 -10.25495 -10.25237
 Alpha  occ. eigenvalues --  -10.24920 -10.24876 -10.24746 -10.24694 -10.24613
 Alpha  occ. eigenvalues --  -10.24514  -3.16633  -3.16223  -1.91514  -1.91105
 Alpha  occ. eigenvalues --   -1.91101  -1.90943  -1.90694  -1.90531  -1.16835
 Alpha  occ. eigenvalues --   -1.16404  -1.08734  -1.08456  -1.07278  -1.06859
 Alpha  occ. eigenvalues --   -1.06842  -1.06719  -1.04684  -1.04286  -1.03851
 Alpha  occ. eigenvalues --   -1.03475  -1.03322  -1.02861  -1.02501  -1.01927
 Alpha  occ. eigenvalues --   -0.92079  -0.91782  -0.89599  -0.89328  -0.89328
 Alpha  occ. eigenvalues --   -0.88859  -0.88365  -0.88057  -0.87946  -0.87779
 Alpha  occ. eigenvalues --   -0.87624  -0.87484  -0.87349  -0.86988  -0.85115
 Alpha  occ. eigenvalues --   -0.84757  -0.84016  -0.83717  -0.83033  -0.82816
 Alpha  occ. eigenvalues --   -0.82769  -0.82431  -0.81727  -0.81388  -0.80709
 Alpha  occ. eigenvalues --   -0.80248  -0.78876  -0.78481  -0.77320  -0.77068
 Alpha  occ. eigenvalues --   -0.76947  -0.76667  -0.76049  -0.75581  -0.74985
 Alpha  occ. eigenvalues --   -0.74621  -0.72861  -0.72516  -0.71773  -0.71358
 Alpha  occ. eigenvalues --   -0.69978  -0.69603  -0.68995  -0.68599  -0.67740
 Alpha  occ. eigenvalues --   -0.67424  -0.67358  -0.67002  -0.65421  -0.65031
 Alpha  occ. eigenvalues --   -0.64966  -0.64737  -0.64575  -0.64441  -0.64353
 Alpha  occ. eigenvalues --   -0.64033  -0.62445  -0.62069  -0.60519  -0.60193
 Alpha  occ. eigenvalues --   -0.59925  -0.59546  -0.59086  -0.58802  -0.58605
 Alpha  occ. eigenvalues --   -0.58235  -0.57717  -0.57401  -0.57340  -0.57067
 Alpha  occ. eigenvalues --   -0.56404  -0.56143  -0.56028  -0.55671  -0.55610
 Alpha  occ. eigenvalues --   -0.55442  -0.55277  -0.55068  -0.54646  -0.54299
 Alpha  occ. eigenvalues --   -0.54038  -0.53637  -0.53386  -0.53336  -0.53062
 Alpha  occ. eigenvalues --   -0.53045  -0.52943  -0.52848  -0.52703  -0.52509
 Alpha  occ. eigenvalues --   -0.52492  -0.52257  -0.51984  -0.51745  -0.51725
 Alpha  occ. eigenvalues --   -0.51440  -0.51301  -0.51007  -0.50637  -0.50357
 Alpha  occ. eigenvalues --   -0.50110  -0.50005  -0.49784  -0.49700  -0.49624
 Alpha  occ. eigenvalues --   -0.49318  -0.49288  -0.49218  -0.49002  -0.48830
 Alpha  occ. eigenvalues --   -0.48714  -0.48551  -0.48528  -0.48333  -0.48217
 Alpha  occ. eigenvalues --   -0.48178  -0.47799  -0.47397  -0.47390  -0.46953
 Alpha  occ. eigenvalues --   -0.46895  -0.46694  -0.46516  -0.46453  -0.46306
 Alpha  occ. eigenvalues --   -0.46259  -0.46101  -0.45938  -0.45904  -0.45613
 Alpha  occ. eigenvalues --   -0.45282  -0.45034  -0.44687  -0.44606  -0.44323
 Alpha  occ. eigenvalues --   -0.44259  -0.44238  -0.44206  -0.44120  -0.43922
 Alpha  occ. eigenvalues --   -0.43873  -0.43762  -0.43625  -0.43497  -0.43342
 Alpha  occ. eigenvalues --   -0.43167  -0.43127  -0.42865  -0.42742  -0.42722
 Alpha  occ. eigenvalues --   -0.42690  -0.42398  -0.42111  -0.41808  -0.41780
 Alpha  occ. eigenvalues --   -0.41667  -0.41464  -0.41244  -0.41236  -0.40992
 Alpha  occ. eigenvalues --   -0.40912  -0.40757  -0.40657  -0.40573  -0.40481
 Alpha  occ. eigenvalues --   -0.40404  -0.40294  -0.39994  -0.39512  -0.39279
 Alpha  occ. eigenvalues --   -0.38561  -0.38170  -0.37916  -0.37433  -0.37408
 Alpha  occ. eigenvalues --   -0.37392  -0.37083  -0.36976  -0.36877  -0.36556
 Alpha  occ. eigenvalues --   -0.36316  -0.36020  -0.34381  -0.34061  -0.33956
 Alpha  occ. eigenvalues --   -0.33645  -0.33285  -0.32991  -0.31410  -0.31159
 Alpha  occ. eigenvalues --   -0.31133  -0.30779  -0.30133  -0.29753  -0.29531
 Alpha  occ. eigenvalues --   -0.29407  -0.29171  -0.29035  -0.24176  -0.23845
 Alpha  occ. eigenvalues --   -0.21218  -0.20931
 Alpha virt. eigenvalues --   -0.08862  -0.08616  -0.01839  -0.01505  -0.00143
 Alpha virt. eigenvalues --    0.00136   0.02110   0.02390   0.03009   0.03399
 Alpha virt. eigenvalues --    0.04591   0.04916   0.04952   0.05392   0.05985

 Mulliken charges:
               1
     1  Mg   0.838582
     2  C   -0.003566
     3  C   -0.094478
     4  C   -0.045700
     5  C   -0.063532
     6  N   -0.256731
     7  C   -0.052779
     8  C   -0.013929
     9  C   -0.086952
    10  C    0.046078
    11  C    0.104763
    12  C    0.053666
    13  C   -0.071162
    14  H    0.033835
    15  N   -0.433176
    16  C    0.168396
    17  C   -0.177077
    18  C   -0.003711
    19  C    0.148701
    20  C    0.110124
    21  C    0.012503
    22  O   -0.249552
    23  C    0.062342
    24  N   -0.341090
    25  C    0.041295
    26  C   -0.028210
    27  C   -0.024016
    28  C    0.074694
    29  C    0.076109
    30  C    0.035051
    31  C   -0.004497
    32  N   -0.310477
    33  C    0.080286
    34  C   -0.169200
    35  C    0.008360
    36  C    0.082832
    37  C    0.127235
    38  C    0.046002
    39  O   -0.188331
    40  C   -0.005375
    41  C    0.213169
    42  O   -0.258561
    43  O   -0.304324
    44  C    0.158035
    45  H   -0.017589
    46  H   -0.016653
    47  H   -0.040924
    48  H    0.001005
    49  H   -0.004385
    50  H    0.025596
    51  H    0.016806
    52  H    0.016717
    53  H    0.010783
    54  H    0.042922
    55  H    0.018636
    56  H    0.017967
    57  H    0.005584
    58  H    0.027078
    59  H    0.039789
    60  H    0.037295
    61  H    0.036076
    62  H    0.032013
    63  H    0.016489
    64  H    0.009732
    65  H    0.023322
    66  H    0.012585
    67  H    0.004990
    68  H    0.006402
    69  H    0.005327
    70  H    0.008230
    71  H    0.018484
    72  H    0.029030
    73  H    0.048135
    74  H    0.009685
    75  H    0.046094
    76  H    0.035377
    77  H    0.043473
    78  H    0.046092
    79  H    0.052203
    80  Mg   0.837840
    81  C   -0.016639
    82  C   -0.087723
    83  C   -0.046116
    84  C   -0.065253
    85  N   -0.254815
    86  C   -0.048624
    87  C   -0.015356
    88  C   -0.090835
    89  C    0.046282
    90  C    0.114971
    91  C    0.062480
    92  C   -0.077634
    93  H    0.033831
    94  N   -0.423416
    95  C    0.162922
    96  C   -0.175165
    97  C   -0.008482
    98  C    0.152192
    99  C    0.099741
   100  C    0.014994
   101  O   -0.253756
   102  C    0.061398
   103  N   -0.350116
   104  C    0.037622
   105  C   -0.019801
   106  C   -0.034732
   107  C    0.089120
   108  C    0.073679
   109  C    0.034823
   110  C   -0.007577
   111  N   -0.324173
   112  C    0.078802
   113  C   -0.163411
   114  C    0.002613
   115  C    0.096181
   116  C    0.131444
   117  C    0.042471
   118  O   -0.187768
   119  C    0.000857
   120  C    0.211015
   121  O   -0.251701
   122  O   -0.304726
   123  C    0.152311
   124  H   -0.019855
   125  H   -0.016252
   126  H   -0.041009
   127  H    0.001541
   128  H   -0.005567
   129  H    0.027297
   130  H    0.013534
   131  H    0.017971
   132  H    0.013152
   133  H    0.037172
   134  H    0.022123
   135  H    0.018897
   136  H    0.008657
   137  H    0.024741
   138  H    0.039242
   139  H    0.037425
   140  H    0.035738
   141  H    0.033922
   142  H    0.013924
   143  H    0.012359
   144  H    0.024680
   145  H    0.011566
   146  H    0.006343
   147  H    0.006014
   148  H    0.003343
   149  H    0.010722
   150  H    0.017552
   151  H    0.030286
   152  H    0.045789
   153  H    0.008041
   154  H    0.046762
   155  H    0.037635
   156  H    0.044045
   157  H    0.049548
   158  H    0.052895
 Sum of Mulliken charges =  -0.00000

 Dipole moment (field-independent basis, Debye):
    X=              4.8303    Y=             -1.9911    Z=              6.6725  Tot=              8.4746
 Quadrupole moment (field-independent basis, Debye-Ang):
   XX=           -518.2244   YY=           -539.2425   ZZ=           -460.7108
   XY=             -6.8826   XZ=             -0.3539   YZ=             37.7067

 Normal termination of Gaussian 16 at Sat Sep  4 05:54:50 2021.
