 Gaussian 16, Revision A.03,
 Gaussian 16:  ES64L-G16RevA.03 25-Dec-2016

 -----------------------------------
 #p cam-b3lyp/Def2SVP td=(nstates=5)
 -----------------------------------

 --------------------------------
 TDDFT excited states in gaussian
 --------------------------------
 Symbolic Z-matrix:
 Charge =  0 Multiplicity = 1

                         Standard orientation:
 ---------------------------------------------------------------------
 Center     Atomic      Atomic             Coordinates (Angstroms)
 Number     Number       Type             X           Y           Z
 ---------------------------------------------------------------------
      1         12           0        5.438643   -0.256883   -0.198411
      2          6           0        5.267763    3.098334   -1.433535
      3          6           0        6.366975    1.056422    2.810990
      4          6           0        6.035576   -3.212278    0.784407
      5          6           0        5.612494   -1.312181   -3.515305
      6          7           0        5.742177    1.828661    0.479098
      7          6           0        5.585703    3.026648   -0.075441
      8          6           0        5.717225    4.199955    0.941135
      9          6           0        6.602427    3.473704    2.050627
     10          6           0        6.187341    2.036441    1.790047
     11          6           0        8.103541    3.602272    1.812659
     12          6           0        4.331016    4.646566    1.516196
     13          6           0        4.332333    5.986440    2.257876
     14          1           0        3.165798    6.849185    2.147346
     15          7           0        5.626902   -0.986258    1.627902
     16          6           0        5.998114   -0.304272    2.738030
     17          6           0        5.988752   -1.287456    3.842540
     18          6           0        5.766309   -2.635538    3.249843
     19          6           0        5.827641   -2.331294    1.843055
     20          6           0        6.129470   -0.906584    5.284374
     21          6           0        5.545595   -3.985678    3.855268
     22          8           0        5.605426   -5.059273    3.163613
     23          6           0        5.342440   -4.025919    5.314771
     24          7           0        5.997424   -2.000922   -1.200273
     25          6           0        6.134029   -3.159213   -0.545532
     26          6           0        6.258032   -4.312611   -1.496444
     27          6           0        5.932743   -3.727347   -2.946067
     28          6           0        5.748050   -2.238162   -2.563331
     29          6           0        7.623211   -5.013720   -1.523703
     30          6           0        4.808780   -4.426919   -3.750880
     31          6           0        3.474898   -4.196034   -3.076676
     32          7           0        5.264770    0.676279   -2.150339
     33          6           0        5.393611    0.050298   -3.398627
     34          6           0        5.304787    1.107060   -4.423045
     35          6           0        5.146019    2.284064   -3.694142
     36          6           0        5.162603    1.984826   -2.301851
     37          6           0        5.429996    0.918624   -5.827768
     38          6           0        4.990922    3.727840   -3.767030
     39          8           0        4.816713    4.536278   -4.680031
     40          6           0        5.185712    4.327174   -2.304606
     41          6           0        4.058743    5.292031   -2.055007
     42          8           0        2.881430    4.889498   -1.958743
     43          8           0        4.564418    6.492872   -1.734357
     44          6           0        3.498747    7.489369   -1.445409
     45          1           0        6.889951    1.338209    3.726977
     46          1           0        6.135139   -4.259822    1.076258
     47          1           0        5.573779   -1.576205   -4.573721
     48          1           0        6.243199    5.075217    0.559439
     49          1           0        6.317579    3.773520    3.058940
     50          1           0        8.315976    4.062780    0.847918
     51          1           0        8.491160    2.583749    1.841922
     52          1           0        8.582873    4.129124    2.638155
     53          1           0        4.050098    3.982372    2.333504
     54          1           0        3.576559    4.670927    0.729096
     55          1           0        5.244500    6.550304    2.060603
     56          1           0        4.365104    5.784154    3.328486
     57          1           0        6.444314    0.130237    5.395831
     58          1           0        6.958955   -1.487183    5.687573
     59          1           0        5.223746   -1.114855    5.854126
     60          1           0        6.212286   -3.595259    5.811207
     61          1           0        5.111644   -5.062515    5.557778
     62          1           0        4.496074   -3.388053    5.571173
     63          1           0        5.539152   -5.095314   -1.257670
     64          1           0        6.798483   -3.768500   -3.607486
     65          1           0        7.571184   -6.081891   -1.311551
     66          1           0        8.277141   -4.505744   -0.815447
     67          1           0        8.178655   -4.896705   -2.453868
     68          1           0        4.973726   -5.503553   -3.775311
     69          1           0        4.736861   -4.078947   -4.781411
     70          1           0        3.450615   -4.972405   -2.312810
     71          1           0        2.660553   -4.324973   -3.790418
     72          1           0        3.448964   -3.234029   -2.564466
     73          1           0        4.646982    1.521608   -6.287407
     74          1           0        5.329714   -0.132657   -6.096757
     75          1           0        6.438371    1.297634   -5.993260
     76          1           0        6.156976    4.820810   -2.294947
     77          1           0        3.666200    8.339363   -2.107001
     78          1           0        3.527577    7.671138   -0.370916
     79          1           0        2.484225    7.205702   -1.727572
     80         12           0       -5.086484   -1.212665    0.398449
     81          6           0       -7.175268    1.672773   -0.037749
     82          6           0       -2.826296    0.838722    1.920928
     83          6           0       -3.036477   -3.634420    0.396563
     84          6           0       -6.941666   -2.762998   -2.111626
     85          7           0       -5.111752    0.957013    0.827497
     86          6           0       -5.985158    1.940300    0.670417
     87          6           0       -5.595414    3.265888    1.377852
     88          6           0       -4.006154    3.045062    1.443710
     89          6           0       -3.970874    1.518210    1.432694
     90          6           0       -3.276920    3.548596    0.209203
     91          6           0       -6.218987    3.383309    2.812904
     92          6           0       -6.136669    4.777798    3.437723
     93          1           0       -7.239940    5.228650    4.281525
     94          7           0       -3.441719   -1.503820    1.470147
     95          6           0       -2.659081   -0.559099    2.032525
     96          6           0       -1.564263   -1.285363    2.694402
     97          6           0       -1.673909   -2.725978    2.337586
     98          6           0       -2.732440   -2.672934    1.349266
     99          6           0       -0.596548   -0.621632    3.630568
    100          6           0       -0.937963   -3.947360    2.798913
    101          8           0       -1.035293   -5.065827    2.180532
    102          6           0       -0.027633   -3.772281    3.940031
    103          7           0       -4.860953   -2.868090   -0.838909
    104          6           0       -3.921862   -3.796802   -0.586828
    105          6           0       -4.126580   -5.025341   -1.440734
    106          6           0       -5.546594   -4.824854   -2.148519
    107          6           0       -5.891694   -3.412349   -1.627816
    108          6           0       -3.059492   -5.281262   -2.504792
    109          6           0       -6.592591   -5.957734   -1.961037
    110          6           0       -7.036108   -6.016886   -0.517014
    111          7           0       -6.867428   -0.746741   -0.732580
    112          6           0       -7.457134   -1.523859   -1.753564
    113          6           0       -8.582657   -0.739953   -2.302302
    114          6           0       -8.555170    0.457932   -1.572357
    115          6           0       -7.475443    0.431284   -0.648786
    116          6           0       -9.432355   -1.140755   -3.371637
    117          6           0       -9.187526    1.743234   -1.380458
    118          8           0      -10.200151    2.287278   -1.819020
    119          6           0       -8.244990    2.638653   -0.465995
    120          6           0       -9.095221    3.263066    0.606266
    121          8           0       -9.643050    2.555974    1.470270
    122          8           0       -8.945205    4.599536    0.565063
    123          6           0       -9.760510    5.263054    1.617124
    124          1           0       -1.955481    1.428992    2.207544
    125          1           0       -2.425983   -4.539817    0.428899
    126          1           0       -7.629023   -3.216749   -2.828800
    127          1           0       -5.823044    4.164239    0.816668
    128          1           0       -3.592129    3.429342    2.372296
    129          1           0       -3.962597    3.865826   -0.562390
    130          1           0       -2.676051    2.717779   -0.136845
    131          1           0       -2.570780    4.337374    0.484015
    132          1           0       -5.595320    2.822931    3.521257
    133          1           0       -7.237285    3.046112    2.814608
    134          1           0       -5.879364    5.546143    2.698536
    135          1           0       -5.301715    4.793563    4.142441
    136          1           0       -0.661696    0.471628    3.567806
    137          1           0        0.410368   -0.854991    3.267896
    138          1           0       -0.693305   -0.977690    4.658446
    139          1           0        0.720396   -3.022508    3.693525
    140          1           0        0.337391   -4.773069    4.178881
    141          1           0       -0.600321   -3.378804    4.787270
    142          1           0       -4.161345   -5.919277   -0.830182
    143          1           0       -5.449248   -4.741952   -3.240983
    144          1           0       -2.580527   -6.274326   -2.412604
    145          1           0       -2.319235   -4.494741   -2.441921
    146          1           0       -3.403192   -5.193297   -3.534032
    147          1           0       -6.144562   -6.928226   -2.188108
    148          1           0       -7.465276   -5.849330   -2.596381
    149          1           0       -6.251128   -6.612901   -0.041988
    150          1           0       -8.005921   -6.503269   -0.433776
    151          1           0       -7.017233   -5.021404   -0.058419
    152          1           0      -10.442446   -0.887271   -3.078464
    153          1           0       -9.333281   -2.203804   -3.581135
    154          1           0       -9.031961   -0.523897   -4.180616
    155          1           0       -7.780867    3.387843   -1.108547
    156          1           0      -10.400310    5.993459    1.112296
    157          1           0       -9.035040    5.653894    2.355151
    158          1           0      -10.496525    4.659859    2.135662
 ---------------------------------------------------------------------

 SCF Done:  E(RCAM-B3LYP) =  -4069.81161154     A.U. after   19 cycles

 Excitation energies and oscillator strengths:

 Excited State   1:      Singlet-A      1.6555 eV  748.94 nm  f=0.1626  <S**2>=0.000
     309 -> 315       -0.11417
     310 -> 316       -0.12464
     311 -> 313       -0.46274
     312 -> 314        0.50806
 This state for optimization and/or second-order correction.
 Total Energy, E(TD-HF/TD-DFT) =  -4069.75077409
 Copying the excited state density for this state as the 1-particle RhoCI density.

 Excited State   2:      Singlet-A      1.6941 eV  731.85 nm  f=0.5910  <S**2>=0.000
     309 -> 315        0.13326
     310 -> 316       -0.11963
     311 -> 313        0.50616
     312 -> 314        0.46114

 Excited State   3:      Singlet-A      2.1821 eV  568.18 nm  f=0.0192  <S**2>=0.000
     309 -> 313        0.28989
     310 -> 314        0.57559
     311 -> 315       -0.12071
     312 -> 316        0.24095

 Excited State   4:      Singlet-A      2.1947 eV  564.92 nm  f=0.1610  <S**2>=0.000
     309 -> 313        0.57174
     310 -> 314       -0.28662
     311 -> 315       -0.25077
     312 -> 316       -0.12548

 Excited State   5:      Singlet-A      2.4245 eV  511.38 nm  f=0.0000  <S**2>=0.000
     312 -> 313        0.70679

 The electronic state is 1-A.
 Alpha  occ. eigenvalues --  -46.88013 -46.87495 -19.26562 -19.26225 -19.19307
 Alpha  occ. eigenvalues --  -19.19033 -19.18986 -19.18560 -19.18384 -19.17900
 Alpha  occ. eigenvalues --  -14.42675 -14.42319 -14.41640 -14.41199 -14.39625
 Alpha  occ. eigenvalues --  -14.39188 -14.38798 -14.38438 -10.39359 -10.38959
 Alpha  occ. eigenvalues --  -10.35620 -10.35245 -10.34606 -10.34077 -10.31966
 Alpha  occ. eigenvalues --  -10.31651 -10.31630 -10.31152 -10.31123 -10.30851
 Alpha  occ. eigenvalues --  -10.30787 -10.30704 -10.30387 -10.30241 -10.30200
 Alpha  occ. eigenvalues --  -10.30084 -10.29987 -10.29836 -10.29741 -10.29465
 Alpha  occ. eigenvalues --  -10.29276 -10.29254 -10.29033 -10.28909 -10.28589
 Alpha  occ. eigenvalues --  -10.28548 -10.28526 -10.28373 -10.28241 -10.28006
 Alpha  occ. eigenvalues --  -10.27947 -10.27899 -10.27843 -10.27800 -10.27736
 Alpha  occ. eigenvalues --  -10.27624 -10.27598 -10.27535 -10.27484 -10.27392
 Alpha  occ. eigenvalues --  -10.27389 -10.27384 -10.27321 -10.27318 -10.27248
 Alpha  occ. eigenvalues --  -10.27076 -10.26893 -10.26619 -10.26553 -10.26455
 Alpha  occ. eigenvalues --  -10.26303 -10.26219 -10.26205 -10.26029 -10.26011
 Alpha  occ. eigenvalues --  -10.25780 -10.25709 -10.25636 -10.25513 -10.25283
 Alpha  occ. eigenvalues --  -10.25045 -10.24968 -10.24714 -10.24658 -10.24628
 Alpha  occ. eigenvalues --  -10.24532  -3.16757  -3.16244  -1.91639  -1.91225
 Alpha  occ. eigenvalues --   -1.91126  -1.91067  -1.90715  -1.90552  -1.16911
 Alpha  occ. eigenvalues --   -1.16518  -1.08844  -1.08509  -1.07381  -1.06925
 Alpha  occ. eigenvalues --   -1.06817  -1.06809  -1.04809  -1.04319  -1.03960
 Alpha  occ. eigenvalues --   -1.03498  -1.03441  -1.02880  -1.02614  -1.01950
 Alpha  occ. eigenvalues --   -0.92192  -0.91824  -0.89665  -0.89452  -0.89351
 Alpha  occ. eigenvalues --   -0.88941  -0.88418  -0.88083  -0.88070  -0.87897
 Alpha  occ. eigenvalues --   -0.87641  -0.87518  -0.87494  -0.86989  -0.85236
 Alpha  occ. eigenvalues --   -0.84820  -0.84054  -0.83747  -0.83149  -0.82878
 Alpha  occ. eigenvalues --   -0.82805  -0.82483  -0.81820  -0.81453  -0.80819
 Alpha  occ. eigenvalues --   -0.80293  -0.79012  -0.78494  -0.77426  -0.77153
 Alpha  occ. eigenvalues --   -0.76986  -0.76739  -0.76154  -0.75653  -0.75043
 Alpha  occ. eigenvalues --   -0.74663  -0.72971  -0.72540  -0.71870  -0.71405
 Alpha  occ. eigenvalues --   -0.69994  -0.69629  -0.69112  -0.68656  -0.67851
 Alpha  occ. eigenvalues --   -0.67493  -0.67452  -0.67056  -0.65539  -0.65100
 Alpha  occ. eigenvalues --   -0.65065  -0.64830  -0.64613  -0.64495  -0.64413
 Alpha  occ. eigenvalues --   -0.64062  -0.62528  -0.62140  -0.60636  -0.60204
 Alpha  occ. eigenvalues --   -0.60051  -0.59607  -0.59186  -0.58835  -0.58706
 Alpha  occ. eigenvalues --   -0.58274  -0.57818  -0.57486  -0.57406  -0.57096
 Alpha  occ. eigenvalues --   -0.56521  -0.56235  -0.56055  -0.55749  -0.55731
 Alpha  occ. eigenvalues --   -0.55500  -0.55306  -0.55111  -0.54701  -0.54356
 Alpha  occ. eigenvalues --   -0.54162  -0.53715  -0.53499  -0.53461  -0.53140
 Alpha  occ. eigenvalues --   -0.53080  -0.52993  -0.52986  -0.52750  -0.52516
 Alpha  occ. eigenvalues --   -0.52514  -0.52279  -0.52102  -0.51878  -0.51738
 Alpha  occ. eigenvalues --   -0.51498  -0.51394  -0.51050  -0.50793  -0.50359
 Alpha  occ. eigenvalues --   -0.50195  -0.50099  -0.49817  -0.49744  -0.49721
 Alpha  occ. eigenvalues --   -0.49438  -0.49327  -0.49320  -0.49037  -0.48908
 Alpha  occ. eigenvalues --   -0.48819  -0.48647  -0.48607  -0.48389  -0.48242
 Alpha  occ. eigenvalues --   -0.48190  -0.47904  -0.47497  -0.47441  -0.46989
 Alpha  occ. eigenvalues --   -0.46978  -0.46811  -0.46555  -0.46554  -0.46373
 Alpha  occ. eigenvalues --   -0.46345  -0.46127  -0.46039  -0.45945  -0.45671
 Alpha  occ. eigenvalues --   -0.45339  -0.45070  -0.44794  -0.44712  -0.44366
 Alpha  occ. eigenvalues --   -0.44340  -0.44301  -0.44294  -0.44228  -0.43946
 Alpha  occ. eigenvalues --   -0.43936  -0.43791  -0.43716  -0.43596  -0.43413
 Alpha  occ. eigenvalues --   -0.43226  -0.43220  -0.42945  -0.42794  -0.42774
 Alpha  occ. eigenvalues --   -0.42748  -0.42417  -0.42170  -0.41910  -0.41823
 Alpha  occ. eigenvalues --   -0.41768  -0.41509  -0.41346  -0.41297  -0.41094
 Alpha  occ. eigenvalues --   -0.41031  -0.40802  -0.40702  -0.40570  -0.40540
 Alpha  occ. eigenvalues --   -0.40534  -0.40341  -0.40075  -0.39512  -0.39301
 Alpha  occ. eigenvalues --   -0.38621  -0.38207  -0.38038  -0.37520  -0.37505
 Alpha  occ. eigenvalues --   -0.37479  -0.37116  -0.37030  -0.36952  -0.36642
 Alpha  occ. eigenvalues --   -0.36393  -0.36070  -0.34494  -0.34091  -0.34044
 Alpha  occ. eigenvalues --   -0.33727  -0.33397  -0.33013  -0.31512  -0.31240
 Alpha  occ. eigenvalues --   -0.31117  -0.30806  -0.30244  -0.29805  -0.29668
 Alpha  occ. eigenvalues --   -0.29533  -0.29176  -0.29055  -0.24290  -0.23869
 Alpha  occ. eigenvalues --   -0.21336  -0.20954
 Alpha virt. eigenvalues --   -0.08986  -0.08633  -0.01951  -0.01522  -0.00273
 Alpha virt. eigenvalues --    0.00131   0.01999   0.02359   0.02714   0.03372
 Alpha virt. eigenvalues --    0.04474   0.04826   0.04905   0.05300   0.05871

 Mulliken charges:
               1
     1  Mg   0.837088
     2  C   -0.003778
     3  C   -0.095452
     4  C   -0.044370
     5  C   -0.063289
     6  N   -0.256834
     7  C   -0.053003
     8  C   -0.013707
     9  C   -0.086703
    10  C    0.045566
    11  C    0.104702
    12  C    0.053825
    13  C   -0.071435
    14  H    0.034464
    15  N   -0.433210
    16  C    0.167200
    17  C   -0.178837
    18  C   -0.005403
    19  C    0.148242
    20  C    0.110419
    21  C    0.011867
    22  O   -0.247139
    23  C    0.063048
    24  N   -0.341250
    25  C    0.041283
    26  C   -0.028546
    27  C   -0.024178
    28  C    0.075367
    29  C    0.075938
    30  C    0.034806
    31  C   -0.004645
    32  N   -0.310601
    33  C    0.080733
    34  C   -0.169200
    35  C    0.008483
    36  C    0.083039
    37  C    0.127237
    38  C    0.046197
    39  O   -0.187964
    40  C   -0.005349
    41  C    0.213155
    42  O   -0.258415
    43  O   -0.304381
    44  C    0.157677
    45  H   -0.017538
    46  H   -0.015408
    47  H   -0.040709
    48  H    0.001430
    49  H   -0.004656
    50  H    0.025780
    51  H    0.016955
    52  H    0.016923
    53  H    0.009019
    54  H    0.042769
    55  H    0.019199
    56  H    0.017766
    57  H    0.005761
    58  H    0.027727
    59  H    0.037367
    60  H    0.037701
    61  H    0.037283
    62  H    0.028330
    63  H    0.018601
    64  H    0.009610
    65  H    0.024114
    66  H    0.012247
    67  H    0.004887
    68  H    0.007035
    69  H    0.004329
    70  H    0.011825
    71  H    0.018219
    72  H    0.028400
    73  H    0.047867
    74  H    0.009693
    75  H    0.046403
    76  H    0.035558
    77  H    0.043841
    78  H    0.045999
    79  H    0.052908
    80  Mg   0.838339
    81  C   -0.016879
    82  C   -0.087345
    83  C   -0.045514
    84  C   -0.064841
    85  N   -0.254714
    86  C   -0.049200
    87  C   -0.015173
    88  C   -0.090604
    89  C    0.045823
    90  C    0.114150
    91  C    0.062663
    92  C   -0.077360
    93  H    0.033893
    94  N   -0.423616
    95  C    0.163021
    96  C   -0.174606
    97  C   -0.008157
    98  C    0.152232
    99  C    0.098839
   100  C    0.016036
   101  O   -0.252198
   102  C    0.060475
   103  N   -0.349915
   104  C    0.037655
   105  C   -0.019830
   106  C   -0.034791
   107  C    0.088896
   108  C    0.073665
   109  C    0.034836
   110  C   -0.007603
   111  N   -0.324089
   112  C    0.078507
   113  C   -0.163235
   114  C    0.002309
   115  C    0.096218
   116  C    0.131471
   117  C    0.042314
   118  O   -0.188233
   119  C    0.000939
   120  C    0.211131
   121  O   -0.251357
   122  O   -0.305399
   123  C    0.152207
   124  H   -0.018324
   125  H   -0.015590
   126  H   -0.040803
   127  H   -0.000468
   128  H   -0.005571
   129  H    0.022508
   130  H    0.017885
   131  H    0.018122
   132  H    0.013333
   133  H    0.037312
   134  H    0.021026
   135  H    0.018903
   136  H    0.008593
   137  H    0.026937
   138  H    0.037653
   139  H    0.038174
   140  H    0.037939
   141  H    0.032082
   142  H    0.014186
   143  H    0.012311
   144  H    0.024525
   145  H    0.012139
   146  H    0.005297
   147  H    0.005872
   148  H    0.003475
   149  H    0.010820
   150  H    0.017587
   151  H    0.030251
   152  H    0.045639
   153  H    0.008189
   154  H    0.047198
   155  H    0.035664
   156  H    0.043716
   157  H    0.049318
   158  H    0.053260
 Sum of Mulliken charges =  -0.00000

 Dipole moment (field-independent basis, Debye):
    X=              6.4914    Y=              1.4354    Z=              4.8116  Tot=              8.2067
 Quadrupole moment (field-independent basis, Debye-Ang):
   XX=           -550.5667   YY=           -501.3691   ZZ=           -487.9809
   XY=             18.1409   XZ=             17.1809   YZ=             58.1700

 Normal termination of Gaussian 16 at Sat Sep 11 00:13:00 2021.
