 Gaussian 16, Revision A.03,
 Gaussian 16:  ES64L-G16RevA.03 25-Dec-2016

 -----------------------------------
 #p cam-b3lyp/Def2SVP td=(nstates=5)
 -----------------------------------

 --------------------------------
 TDDFT excited states in gaussian
 --------------------------------
 Symbolic Z-matrix:
 Charge =  0 Multiplicity = 1

                         Standard orientation:
 ---------------------------------------------------------------------
 Center     Atomic      Atomic             Coordinates (Angstroms)
 Number     Number       Type             X           Y           Z
 ---------------------------------------------------------------------
      1         12           0       -4.404980   -0.759532    0.107773
      2          6           0       -4.591008    2.808616    0.322086
      3          6           0       -5.299028   -0.460413   -3.171598
      4          6           0       -4.690350   -3.916379    0.010301
      5          6           0       -4.645170   -0.833329    3.583765
      6          7           0       -4.858382    1.004441   -1.150588
      7          6           0       -4.835319    2.320348   -0.963430
      8          6           0       -5.020624    3.134782   -2.278623
      9          6           0       -5.783532    2.037900   -3.148577
     10          6           0       -5.256230    0.783492   -2.474532
     11          6           0       -7.299881    2.080659   -2.989327
     12          6           0       -3.653089    3.532449   -2.929345
     13          6           0       -3.736855    4.597128   -4.026977
     14          1           0       -2.657784    5.565960   -4.146644
     15          7           0       -4.439542   -1.995855   -1.432734
     16          6           0       -4.815405   -1.700085   -2.700224
     17          6           0       -4.665846   -2.952301   -3.472408
     18          6           0       -4.354147   -4.045651   -2.510367
     19          6           0       -4.510073   -3.359159   -1.253468
     20          6           0       -4.769752   -3.015737   -4.965368
     21          6           0       -3.986040   -5.483980   -2.694323
     22          8           0       -3.984208   -6.315205   -1.722914
     23          6           0       -3.709776   -5.919963   -4.075134
     24          7           0       -4.855356   -2.190146    1.559716
     25          6           0       -4.857311   -3.494934    1.265591
     26          6           0       -4.924815   -4.334354    2.506863
     27          6           0       -4.722974   -3.329676    3.731459
     28          6           0       -4.652221   -2.001651    2.937977
     29          6           0       -6.222458   -5.129270    2.707464
     30          6           0       -3.581866   -3.655421    4.727542
     31          6           0       -2.242546   -3.496887    4.043300
     32          7           0       -4.408802    0.705550    1.709199
     33          6           0       -4.542079    0.453433    3.082279
     34          6           0       -4.596576    1.762531    3.758565
     35          6           0       -4.507306    2.691403    2.723638
     36          6           0       -4.430042    2.006155    1.477541
     37          6           0       -4.772445    1.972563    5.154770
     38          6           0       -4.484025    4.103611    2.378699
     39          8           0       -4.426252    5.152559    3.022022
     40          6           0       -4.660024    4.237174    0.801672
     41          6           0       -3.611918    5.196380    0.306994
     42          8           0       -2.400384    4.901155    0.355909
     43          8           0       -4.205564    6.199340   -0.357986
     44          6           0       -3.219336    7.171404   -0.900756
     45          1           0       -5.799930   -0.505471   -4.140622
     46          1           0       -4.682782   -5.008122    0.032162
     47          1           0       -4.634524   -0.778288    4.673862
     48          1           0       -5.639682    4.026409   -2.177665
     49          1           0       -5.477842    2.063185   -4.194348
     50          1           0       -7.598563    2.774709   -2.203831
     51          1           0       -7.594167    1.063340   -2.730578
     52          1           0       -7.783380    2.299367   -3.941783
     53          1           0       -3.275414    2.693199   -3.513368
     54          1           0       -2.942684    3.855222   -2.167460
     55          1           0       -4.703723    5.101143   -4.020408
     56          1           0       -3.699816    4.094741   -4.993638
     57          1           0       -5.169168   -2.090446   -5.378707
     58          1           0       -5.524246   -3.766199   -5.200427
     59          1           0       -3.822682   -3.288055   -5.431451
     60          1           0       -4.589225   -5.737244   -4.692979
     61          1           0       -3.376858   -6.954751   -4.002820
     62          1           0       -2.911643   -5.302003   -4.487514
     63          1           0       -4.128918   -5.077862    2.519900
     64          1           0       -5.612669   -3.264916    4.358296
     65          1           0       -6.066103   -6.202934    2.814723
     66          1           0       -6.883671   -4.912204    1.869031
     67          1           0       -6.830400   -4.806289    3.552158
     68          1           0       -3.652076   -4.690826    5.059133
     69          1           0       -3.590883   -3.021792    5.614495
     70          1           0       -2.112880   -4.453042    3.537546
     71          1           0       -1.455472   -3.335318    4.780607
     72          1           0       -2.276927   -2.724009    3.275209
     73          1           0       -4.068891    2.755934    5.436392
     74          1           0       -4.592842    1.057431    5.718578
     75          1           0       -5.817170    2.281820    5.182430
     76          1           0       -5.669478    4.609218    0.629313
     77          1           0       -3.493001    8.154360   -0.517167
     78          1           0       -3.212105    7.034339   -1.982221
     79          1           0       -2.198565    7.081722   -0.527497
     80         12           0        4.598203   -0.794656    0.045773
     81          6           0        4.251842    2.771700    0.246279
     82          6           0        3.850369   -0.531029   -3.271736
     83          6           0        4.452312   -3.962058   -0.071323
     84          6           0        4.187639   -0.889790    3.505261
     85          7           0        4.131451    0.949590   -1.231721
     86          6           0        4.089678    2.262119   -1.058895
     87          6           0        3.941244    3.079149   -2.370379
     88          6           0        3.260654    1.946839   -3.283374
     89          6           0        3.805075    0.705488   -2.579585
     90          6           0        1.744349    1.925318   -3.184912
     91          6           0        5.326257    3.531114   -2.953036
     92          6           0        5.245652    4.588907   -4.055917
     93          1           0        6.294566    5.602470   -4.126205
     94          7           0        4.693146   -2.028159   -1.506012
     95          6           0        4.373739   -1.749962   -2.787361
     96          6           0        4.596262   -2.995977   -3.537089
     97          6           0        4.915300   -4.077311   -2.565675
     98          6           0        4.673588   -3.387355   -1.314431
     99          6           0        4.576129   -3.057893   -5.036822
    100          6           0        5.351763   -5.501045   -2.735059
    101          8           0        5.341797   -6.329283   -1.756927
    102          6           0        5.702230   -5.921378   -4.099613
    103          7           0        4.145108   -2.238905    1.470975
    104          6           0        4.206277   -3.548388    1.171920
    105          6           0        4.110385   -4.397343    2.417100
    106          6           0        4.215583   -3.375573    3.642864
    107          6           0        4.266701   -2.045322    2.859782
    108          6           0        2.836819   -5.230822    2.557522
    109          6           0        5.320004   -3.654558    4.698844
    110          6           0        6.685746   -3.452008    4.083124
    111          7           0        4.461780    0.661049    1.636486
    112          6           0        4.265112    0.406169    3.011414
    113          6           0        4.124226    1.715399    3.681108
    114          6           0        4.226526    2.647792    2.637715
    115          6           0        4.397456    1.966959    1.402097
    116          6           0        3.882622    1.918060    5.069154
    117          6           0        4.218145    4.052806    2.299238
    118          8           0        4.194320    5.101217    2.942666
    119          6           0        4.107488    4.191432    0.719708
    120          6           0        5.138497    5.189000    0.267618
    121          8           0        6.351553    4.943110    0.388582
    122          8           0        4.529984    6.167449   -0.427164
    123          6           0        5.512890    7.175521   -0.906269
    124          1           0        3.405144   -0.585921   -4.265537
    125          1           0        4.503193   -5.052900   -0.040389
    126          1           0        4.154950   -0.831064    4.595289
    127          1           0        3.288004    3.940400   -2.297563
    128          1           0        3.622798    1.994408   -4.307068
    129          1           0        1.380406    2.599836   -2.424174
    130          1           0        1.479720    0.904238   -2.943214
    131          1           0        1.300120    2.128192   -4.163593
    132          1           0        5.764007    2.700274   -3.521199
    133          1           0        5.975284    3.873545   -2.170646
    134          1           0        4.255019    5.056890   -4.106597
    135          1           0        5.356906    4.091586   -5.022523
    136          1           0        4.152119   -2.144281   -5.471472
    137          1           0        3.867222   -3.845313   -5.314851
    138          1           0        5.553545   -3.296202   -5.461718
    139          1           0        4.848077   -5.768832   -4.755065
    140          1           0        6.074175   -6.943345   -4.004125
    141          1           0        6.503471   -5.272560   -4.470626
    142          1           0        4.934551   -5.097949    2.471894
    143          1           0        3.290091   -3.355173    4.236895
    144          1           0        3.034123   -6.313385    2.672465
    145          1           0        2.212100   -5.047807    1.693365
    146          1           0        2.184240   -4.942067    3.379691
    147          1           0        5.277886   -4.696791    5.024601
    148          1           0        5.235285   -3.036134    5.586179
    149          1           0        6.873818   -4.405576    3.580702
    150          1           0        7.428787   -3.258890    4.854254
    151          1           0        6.658364   -2.673068    3.312310
    152          1           0        4.531898    2.724276    5.383738
    153          1           0        4.067456    1.011355    5.641426
    154          1           0        2.821374    2.179802    5.046219
    155          1           0        3.092774    4.518717    0.489863
    156          1           0        5.177160    8.149586   -0.537271
    157          1           0        5.565710    7.043370   -2.003311
    158          1           0        6.516389    7.129742   -0.499658
 ---------------------------------------------------------------------

 SCF Done:  E(RCAM-B3LYP) =  -4069.81121654     A.U. after   19 cycles

 Excitation energies and oscillator strengths:

 Excited State   1:      Singlet-A      1.6475 eV  752.57 nm  f=0.0022  <S**2>=0.000
     309 -> 315       -0.11436
     310 -> 316        0.12127
     311 -> 313       -0.46953
     312 -> 314        0.50248
 This state for optimization and/or second-order correction.
 Total Energy, E(TD-HF/TD-DFT) =  -4069.75067303
 Copying the excited state density for this state as the 1-particle RhoCI density.

 Excited State   2:      Singlet-A      1.7048 eV  727.25 nm  f=0.6955  <S**2>=0.000
     309 -> 315        0.13314
     310 -> 316        0.12332
     311 -> 313        0.49982
     312 -> 314        0.46710

 Excited State   3:      Singlet-A      2.1803 eV  568.66 nm  f=0.0130  <S**2>=0.000
     309 -> 313       -0.32045
     310 -> 314        0.55995
     311 -> 315        0.13238
     312 -> 316       -0.23293

 Excited State   4:      Singlet-A      2.1964 eV  564.49 nm  f=0.1605  <S**2>=0.000
     309 -> 313        0.55495
     310 -> 314        0.31574
     311 -> 315       -0.24504
     312 -> 316       -0.14071

 Excited State   5:      Singlet-A      2.3485 eV  527.93 nm  f=0.0000  <S**2>=0.000
     312 -> 313        0.70709

 The electronic state is 1-A.
 Alpha  occ. eigenvalues --  -46.87888 -46.87423 -19.26342 -19.26077 -19.19082
 Alpha  occ. eigenvalues --  -19.18888 -19.18882 -19.18519 -19.18211 -19.17721
 Alpha  occ. eigenvalues --  -14.42551 -14.42263 -14.41541 -14.41125 -14.39492
 Alpha  occ. eigenvalues --  -14.39119 -14.38670 -14.38346 -10.39143 -10.38806
 Alpha  occ. eigenvalues --  -10.35517 -10.35202 -10.34434 -10.33892 -10.31727
 Alpha  occ. eigenvalues --  -10.31536 -10.31504 -10.31056 -10.31017 -10.30790
 Alpha  occ. eigenvalues --  -10.30658 -10.30586 -10.30303 -10.30147 -10.30105
 Alpha  occ. eigenvalues --  -10.30000 -10.29942 -10.29712 -10.29647 -10.29344
 Alpha  occ. eigenvalues --  -10.29220 -10.29158 -10.28895 -10.28770 -10.28517
 Alpha  occ. eigenvalues --  -10.28480 -10.28451 -10.28248 -10.28150 -10.27912
 Alpha  occ. eigenvalues --  -10.27870 -10.27828 -10.27748 -10.27669 -10.27610
 Alpha  occ. eigenvalues --  -10.27597 -10.27532 -10.27494 -10.27450 -10.27342
 Alpha  occ. eigenvalues --  -10.27337 -10.27234 -10.27229 -10.27223 -10.27177
 Alpha  occ. eigenvalues --  -10.26918 -10.26682 -10.26507 -10.26491 -10.26345
 Alpha  occ. eigenvalues --  -10.26305 -10.26279 -10.26111 -10.25992 -10.25887
 Alpha  occ. eigenvalues --  -10.25757 -10.25712 -10.25560 -10.25504 -10.25194
 Alpha  occ. eigenvalues --  -10.24905 -10.24871 -10.24839 -10.24604 -10.24585
 Alpha  occ. eigenvalues --  -10.24448  -3.16631  -3.16173  -1.91512  -1.91099
 Alpha  occ. eigenvalues --   -1.91056  -1.90941  -1.90644  -1.90481  -1.16691
 Alpha  occ. eigenvalues --   -1.16370  -1.08665  -1.08317  -1.07280  -1.06774
 Alpha  occ. eigenvalues --   -1.06702  -1.06670  -1.04681  -1.04254  -1.03852
 Alpha  occ. eigenvalues --   -1.03426  -1.03320  -1.02802  -1.02499  -1.01868
 Alpha  occ. eigenvalues --   -0.92054  -0.91710  -0.89616  -0.89325  -0.89279
 Alpha  occ. eigenvalues --   -0.88923  -0.88380  -0.88014  -0.87942  -0.87782
 Alpha  occ. eigenvalues --   -0.87529  -0.87459  -0.87366  -0.86926  -0.85111
 Alpha  occ. eigenvalues --   -0.84781  -0.84031  -0.83672  -0.83057  -0.82759
 Alpha  occ. eigenvalues --   -0.82755  -0.82436  -0.81664  -0.81347  -0.80684
 Alpha  occ. eigenvalues --   -0.80207  -0.78887  -0.78417  -0.77328  -0.77046
 Alpha  occ. eigenvalues --   -0.76931  -0.76675  -0.76019  -0.75596  -0.74985
 Alpha  occ. eigenvalues --   -0.74584  -0.72862  -0.72460  -0.71764  -0.71342
 Alpha  occ. eigenvalues --   -0.70015  -0.69574  -0.68991  -0.68609  -0.67728
 Alpha  occ. eigenvalues --   -0.67367  -0.67360  -0.67005  -0.65408  -0.65037
 Alpha  occ. eigenvalues --   -0.64942  -0.64719  -0.64537  -0.64422  -0.64364
 Alpha  occ. eigenvalues --   -0.63992  -0.62369  -0.62029  -0.60531  -0.60132
 Alpha  occ. eigenvalues --   -0.59921  -0.59561  -0.59076  -0.58754  -0.58589
 Alpha  occ. eigenvalues --   -0.58180  -0.57653  -0.57392  -0.57252  -0.57001
 Alpha  occ. eigenvalues --   -0.56394  -0.56062  -0.55972  -0.55647  -0.55607
 Alpha  occ. eigenvalues --   -0.55423  -0.55232  -0.55021  -0.54605  -0.54261
 Alpha  occ. eigenvalues --   -0.54030  -0.53691  -0.53387  -0.53329  -0.53010
 Alpha  occ. eigenvalues --   -0.53004  -0.52919  -0.52863  -0.52675  -0.52548
 Alpha  occ. eigenvalues --   -0.52485  -0.52221  -0.51975  -0.51740  -0.51602
 Alpha  occ. eigenvalues --   -0.51448  -0.51281  -0.50953  -0.50676  -0.50312
 Alpha  occ. eigenvalues --   -0.50138  -0.50017  -0.49773  -0.49666  -0.49619
 Alpha  occ. eigenvalues --   -0.49299  -0.49276  -0.49203  -0.48958  -0.48849
 Alpha  occ. eigenvalues --   -0.48675  -0.48542  -0.48516  -0.48314  -0.48165
 Alpha  occ. eigenvalues --   -0.48115  -0.47795  -0.47387  -0.47382  -0.46916
 Alpha  occ. eigenvalues --   -0.46898  -0.46684  -0.46492  -0.46447  -0.46344
 Alpha  occ. eigenvalues --   -0.46240  -0.46053  -0.45894  -0.45841  -0.45561
 Alpha  occ. eigenvalues --   -0.45291  -0.44988  -0.44653  -0.44620  -0.44281
 Alpha  occ. eigenvalues --   -0.44250  -0.44242  -0.44205  -0.44097  -0.43894
 Alpha  occ. eigenvalues --   -0.43873  -0.43703  -0.43570  -0.43495  -0.43316
 Alpha  occ. eigenvalues --   -0.43154  -0.43114  -0.42784  -0.42735  -0.42687
 Alpha  occ. eigenvalues --   -0.42638  -0.42355  -0.42119  -0.41788  -0.41759
 Alpha  occ. eigenvalues --   -0.41663  -0.41399  -0.41248  -0.41236  -0.40997
 Alpha  occ. eigenvalues --   -0.40921  -0.40754  -0.40670  -0.40532  -0.40498
 Alpha  occ. eigenvalues --   -0.40404  -0.40281  -0.40036  -0.39558  -0.39248
 Alpha  occ. eigenvalues --   -0.38575  -0.38149  -0.37907  -0.37458  -0.37419
 Alpha  occ. eigenvalues --   -0.37384  -0.37053  -0.36973  -0.36785  -0.36521
 Alpha  occ. eigenvalues --   -0.36281  -0.35991  -0.34375  -0.34012  -0.33837
 Alpha  occ. eigenvalues --   -0.33592  -0.33273  -0.32936  -0.31412  -0.31125
 Alpha  occ. eigenvalues --   -0.31077  -0.30729  -0.30071  -0.29621  -0.29531
 Alpha  occ. eigenvalues --   -0.29394  -0.29099  -0.28937  -0.24171  -0.23788
 Alpha  occ. eigenvalues --   -0.21219  -0.20880
 Alpha virt. eigenvalues --   -0.08860  -0.08548  -0.01840  -0.01454  -0.00142
 Alpha virt. eigenvalues --    0.00196   0.02135   0.02484   0.02863   0.03507
 Alpha virt. eigenvalues --    0.04593   0.04952   0.05033   0.05449   0.05991

 Mulliken charges:
               1
     1  Mg   0.838657
     2  C   -0.003280
     3  C   -0.095069
     4  C   -0.045453
     5  C   -0.063917
     6  N   -0.256635
     7  C   -0.052908
     8  C   -0.013755
     9  C   -0.086852
    10  C    0.045926
    11  C    0.104792
    12  C    0.053679
    13  C   -0.071277
    14  H    0.034582
    15  N   -0.433163
    16  C    0.168197
    17  C   -0.177747
    18  C   -0.003846
    19  C    0.148813
    20  C    0.110324
    21  C    0.012823
    22  O   -0.248903
    23  C    0.062539
    24  N   -0.341071
    25  C    0.041072
    26  C   -0.028314
    27  C   -0.023984
    28  C    0.074845
    29  C    0.076054
    30  C    0.035135
    31  C   -0.005204
    32  N   -0.310621
    33  C    0.080619
    34  C   -0.169374
    35  C    0.008909
    36  C    0.083150
    37  C    0.127111
    38  C    0.046791
    39  O   -0.186901
    40  C   -0.005644
    41  C    0.213549
    42  O   -0.257419
    43  O   -0.304863
    44  C    0.157066
    45  H   -0.017823
    46  H   -0.016497
    47  H   -0.041356
    48  H    0.001408
    49  H   -0.004825
    50  H    0.025783
    51  H    0.016731
    52  H    0.016610
    53  H    0.009726
    54  H    0.043400
    55  H    0.018951
    56  H    0.017144
    57  H    0.005382
    58  H    0.027128
    59  H    0.038212
    60  H    0.037123
    61  H    0.036387
    62  H    0.030542
    63  H    0.016760
    64  H    0.009764
    65  H    0.023486
    66  H    0.012663
    67  H    0.004868
    68  H    0.006488
    69  H    0.004766
    70  H    0.009293
    71  H    0.016385
    72  H    0.030006
    73  H    0.048613
    74  H    0.008918
    75  H    0.046265
    76  H    0.035301
    77  H    0.043921
    78  H    0.045285
    79  H    0.054818
    80  Mg   0.837586
    81  C   -0.015625
    82  C   -0.088171
    83  C   -0.045482
    84  C   -0.065202
    85  N   -0.254508
    86  C   -0.048389
    87  C   -0.015146
    88  C   -0.090931
    89  C    0.045897
    90  C    0.112892
    91  C    0.062650
    92  C   -0.077176
    93  H    0.034129
    94  N   -0.423344
    95  C    0.162662
    96  C   -0.175727
    97  C   -0.008135
    98  C    0.151696
    99  C    0.099937
   100  C    0.015196
   101  O   -0.253407
   102  C    0.061459
   103  N   -0.350075
   104  C    0.037279
   105  C   -0.019743
   106  C   -0.034585
   107  C    0.089349
   108  C    0.073386
   109  C    0.034813
   110  C   -0.007542
   111  N   -0.324621
   112  C    0.079286
   113  C   -0.162386
   114  C    0.004278
   115  C    0.095909
   116  C    0.130806
   117  C    0.045026
   118  O   -0.186266
   119  C   -0.000587
   120  C    0.210609
   121  O   -0.252019
   122  O   -0.304709
   123  C    0.152349
   124  H   -0.021563
   125  H   -0.015847
   126  H   -0.040986
   127  H    0.000988
   128  H   -0.005937
   129  H    0.029724
   130  H    0.013384
   131  H    0.012687
   132  H    0.013389
   133  H    0.037706
   134  H    0.020319
   135  H    0.018671
   136  H    0.007565
   137  H    0.024322
   138  H    0.039098
   139  H    0.037373
   140  H    0.035908
   141  H    0.033523
   142  H    0.013925
   143  H    0.011493
   144  H    0.024712
   145  H    0.013108
   146  H    0.004875
   147  H    0.005666
   148  H    0.003249
   149  H    0.010790
   150  H    0.017520
   151  H    0.030445
   152  H    0.045775
   153  H    0.007216
   154  H    0.050032
   155  H    0.042163
   156  H    0.043664
   157  H    0.048501
   158  H    0.053067
 Sum of Mulliken charges =  -0.00000

 Dipole moment (field-independent basis, Debye):
    X=             -4.0269    Y=             -2.0836    Z=             -7.3411  Tot=              8.6283
 Quadrupole moment (field-independent basis, Debye-Ang):
   XX=           -516.1906   YY=           -551.5671   ZZ=           -448.5770
   XY=             -3.1076   XZ=             -0.3714   YZ=            -47.9762

 Normal termination of Gaussian 16 at Fri Sep 10 04:18:01 2021.
