 Gaussian 16, Revision A.03,
 Gaussian 16:  ES64L-G16RevA.03 25-Dec-2016

 -----------------------------------
 #p cam-b3lyp/Def2SVP td=(nstates=5)
 -----------------------------------

 --------------------------------
 TDDFT excited states in gaussian
 --------------------------------
 Symbolic Z-matrix:
 Charge =  0 Multiplicity = 1

                         Standard orientation:
 ---------------------------------------------------------------------
 Center     Atomic      Atomic             Coordinates (Angstroms)
 Number     Number       Type             X           Y           Z
 ---------------------------------------------------------------------
      1         12           0       -7.836247    0.532676   -0.638480
      2          6           0       -8.154973   -2.438197    1.332444
      3          6           0       -8.936574    2.275935    2.080600
      4          6           0       -7.997514    3.103681   -2.487952
      5          6           0       -7.864617   -1.513117   -3.459754
      6          7           0       -8.436003   -0.111677    1.392713
      7          6           0       -8.455644   -1.272410    2.040388
      8          6           0       -8.752554   -1.125486    3.562765
      9          6           0       -9.520663    0.271395    3.535765
     10          6           0       -8.903049    0.863998    2.281453
     11          6           0      -11.025230    0.135406    3.325322
     12          6           0       -7.443864   -1.043216    4.418508
     13          6           0       -7.636714   -1.226798    5.926639
     14          1           0       -6.607301   -1.921665    6.684805
     15          7           0       -7.912380    2.449055   -0.164618
     16          6           0       -8.375264    2.979301    0.992907
     17          6           0       -8.221097    4.444022    0.860600
     18          6           0       -7.807862    4.733325   -0.540697
     19          6           0       -7.916198    3.425587   -1.135226
     20          6           0       -8.411542    5.397674    1.999911
     21          6           0       -7.392880    5.991014   -1.236498
     22          8           0       -7.298860    6.064840   -2.509402
     23          6           0       -7.182194    7.174763   -0.383626
     24          7           0       -8.139938    0.791176   -2.687525
     25          6           0       -8.106106    2.007871   -3.242045
     26          6           0       -8.064744    1.924645   -4.739142
     27          6           0       -7.831212    0.384474   -5.089983
     28          6           0       -7.862512   -0.192251   -3.653084
     29          6           0       -9.314425    2.431280   -5.472374
     30          6           0       -6.620126    0.045157   -5.994723
     31          6           0       -5.331799    0.337977   -5.258810
     32          7           0       -7.804111   -1.602820   -1.025353
     33          6           0       -7.844490   -2.233591   -2.277221
     34          6           0       -7.911915   -3.685207   -2.027555
     35          6           0       -7.922872   -3.797990   -0.638669
     36          6           0       -7.892394   -2.498069   -0.057663
     37          6           0       -8.012301   -4.698032   -3.021810
     38          6           0       -7.978102   -4.713362    0.489560
     39          8           0       -7.924881   -5.937520    0.616441
     40          6           0       -8.253547   -3.865923    1.809335
     41          6           0       -7.277081   -4.326286    2.857136
     42          8           0       -6.053727   -4.116418    2.727808
     43          8           0       -7.950032   -4.724449    3.947616
     44          6           0       -7.038687   -5.166171    5.036876
     45          1           0       -9.492345    2.896412    2.786338
     46          1           0       -7.943978    3.959580   -3.163977
     47          1           0       -7.790969   -2.216617   -4.291089
     48          1           0       -9.400423   -1.898656    3.976161
     49          1           0       -9.279442    0.885287    4.403331
     50          1           0      -11.304488   -0.893582    3.099225
     51          1           0      -11.261613    0.787585    2.484323
     52          1           0      -11.573446    0.535945    4.178437
     53          1           0       -7.067815   -0.020279    4.402718
     54          1           0       -6.702913   -1.758644    4.060067
     55          1           0       -8.621269   -1.635556    6.155719
     56          1           0       -7.637105   -0.241707    6.393325
     57          1           0       -8.872526    4.909763    2.857805
     58          1           0       -9.147415    6.134577    1.678703
     59          1           0       -7.483735    5.900010    2.274073
     60          1           0       -8.103805    7.399993    0.153454
     61          1           0       -6.803475    7.955984   -1.041741
     62          1           0       -6.436149    6.935329    0.374686
     63          1           0       -7.239736    2.511563   -5.140783
     64          1           0       -8.683674   -0.049708   -5.612926
     65          1           0       -9.108120    3.221651   -6.194494
     66          1           0      -10.032991    2.763468   -4.723638
     67          1           0       -9.883396    1.660726   -5.991926
     68          1           0       -6.627921    0.668474   -6.888234
     69          1           0       -6.601933   -0.996068   -6.316858
     70          1           0       -5.193634    1.405698   -5.425286
     71          1           0       -4.509255   -0.233965   -5.689524
     72          1           0       -5.443718    0.187433   -4.184893
     73          1           0       -7.325793   -5.489499   -2.721384
     74          1           0       -7.761956   -4.310079   -4.008939
     75          1           0       -9.065274   -4.964801   -2.932712
     76          1           0       -9.285890   -4.061494    2.097680
     77          1           0       -7.328885   -6.181823    5.306081
     78          1           0       -7.090632   -4.402533    5.813126
     79          1           0       -5.994581   -5.316921    4.760369
     80         12           0        8.000738    0.696956    0.552295
     81          6           0        8.004499   -1.945992   -1.875437
     82          6           0        6.974279   -1.611587    2.843931
     83          6           0        7.553488    3.077028    2.602333
     84          6           0        7.907541    2.949866   -2.105040
     85          7           0        7.579518   -1.467965    0.385084
     86          6           0        7.675098   -2.377034   -0.573454
     87          6           0        7.480892   -3.840475   -0.093670
     88          6           0        6.616773   -3.547606    1.227841
     89          6           0        7.107800   -2.133861    1.532633
     90          6           0        5.120743   -3.487904    0.967692
     91          6           0        8.841254   -4.541290    0.253163
     92          6           0        8.755925   -6.058834    0.430792
     93          1           0        9.882576   -6.875826   -0.011526
     94          7           0        7.836559    0.674747    2.529943
     95          6           0        7.426057   -0.354044    3.300889
     96          6           0        7.461999    0.141492    4.685559
     97          6           0        7.769275    1.597289    4.654955
     98          6           0        7.709861    1.849327    3.229111
     99          6           0        7.296485   -0.757689    5.876150
    100          6           0        8.055071    2.599745    5.731809
    101          8           0        8.060119    3.859398    5.494991
    102          6           0        8.236550    2.068504    7.090605
    103          7           0        7.551440    2.710911    0.298367
    104          6           0        7.463596    3.538164    1.354705
    105          6           0        7.406464    4.981400    0.914030
    106          6           0        7.719157    4.964457   -0.654257
    107          6           0        7.819310    3.439252   -0.875859
    108          6           0        6.080216    5.700217    1.160541
    109          6           0        8.886823    5.861473   -1.148802
    110          6           0       10.202019    5.332921   -0.623186
    111          7           0        8.147886    0.570931   -1.599575
    112          6           0        8.057641    1.634208   -2.524441
    113          6           0        8.100993    1.040165   -3.876350
    114          6           0        8.190986   -0.340272   -3.642311
    115          6           0        8.182522   -0.590403   -2.243436
    116          6           0        8.009561    1.756397   -5.103044
    117          6           0        8.280508   -1.643477   -4.260661
    118          8           0        8.413436   -2.050399   -5.414123
    119          6           0        8.036281   -2.749690   -3.145746
    120          6           0        9.108115   -3.795567   -3.286490
    121          8           0       10.299347   -3.513207   -3.067739
    122          8           0        8.530177   -5.000591   -3.442317
    123          6           0        9.552754   -6.072283   -3.575091
    124          1           0        6.435178   -2.202151    3.585207
    125          1           0        7.506355    3.942979    3.266694
    126          1           0        7.982176    3.592172   -2.985124
    127          1           0        6.919403   -4.470522   -0.773030
    128          1           0        6.884707   -4.226276    2.033429
    129          1           0        4.892989   -3.535158   -0.086841
    130          1           0        4.786898   -2.546944    1.385057
    131          1           0        4.607768   -4.268770    1.536410
    132          1           0        9.145738   -4.250310    1.266747
    133          1           0        9.589178   -4.304589   -0.478414
    134          1           0        7.812200   -6.466208    0.048193
    135          1           0        8.730292   -6.282150    1.500133
    136          1           0        6.919742   -1.745868    5.584641
    137          1           0        6.495246   -0.331683    6.489672
    138          1           0        8.203900   -0.828848    6.479635
    139          1           0        7.342703    1.525570    7.388465
    140          1           0        8.520088    2.925867    7.704125
    141          1           0        9.056045    1.341306    7.075377
    142          1           0        8.164104    5.569629    1.417091
    143          1           0        6.858904    5.312020   -1.245022
    144          1           0        6.186845    6.614643    1.774156
    145          1           0        5.397163    5.004793    1.629951
    146          1           0        5.536525    5.987199    0.262081
    147          1           0        8.779462    6.874729   -0.753893
    148          1           0        8.942526    5.941187   -2.229324
    149          1           0       10.253802    5.757418    0.383886
    150          1           0       11.028345    5.679469   -1.240562
    151          1           0       10.174726    4.241934   -0.520045
    152          1           0        8.756822    1.338134   -5.764220
    153          1           0        8.162673    2.823082   -4.952987
    154          1           0        6.979446    1.525565   -5.387361
    155          1           0        7.039027   -3.161388   -3.305645
    156          1           0        9.344039   -6.598783   -4.511533
    157          1           0        9.490652   -6.661829   -2.641108
    158          1           0       10.581308   -5.767372   -3.728615
 ---------------------------------------------------------------------

 SCF Done:  E(RCAM-B3LYP) =  -4069.81190874     A.U. after   19 cycles

 Excitation energies and oscillator strengths:

 Excited State   1:      Singlet-A      1.6746 eV  740.37 nm  f=0.3160  <S**2>=0.000
     310 -> 316        0.16401
     311 -> 313       -0.21975
     312 -> 314        0.64994
 This state for optimization and/or second-order correction.
 Total Energy, E(TD-HF/TD-DFT) =  -4069.75036765
 Copying the excited state density for this state as the 1-particle RhoCI density.

 Excited State   2:      Singlet-A      1.6801 eV  737.95 nm  f=0.4337  <S**2>=0.000
     309 -> 315        0.16648
     311 -> 313        0.64953
     312 -> 314        0.21960

 Excited State   3:      Singlet-A      2.1856 eV  567.29 nm  f=0.0977  <S**2>=0.000
     310 -> 314        0.64063
     312 -> 316       -0.27162

 Excited State   4:      Singlet-A      2.1928 eV  565.41 nm  f=0.1014  <S**2>=0.000
     309 -> 313        0.63870
     311 -> 315       -0.27760

 Excited State   5:      Singlet-A      2.7632 eV  448.70 nm  f=0.0000  <S**2>=0.000
     312 -> 313        0.70710

 The electronic state is 1-A.
 Alpha  occ. eigenvalues --  -46.87839 -46.87586 -19.26372 -19.26264 -19.19106
 Alpha  occ. eigenvalues --  -19.19081 -19.18850 -19.18663 -19.18225 -19.17978
 Alpha  occ. eigenvalues --  -14.42494 -14.42416 -14.41489 -14.41287 -14.39445
 Alpha  occ. eigenvalues --  -14.39279 -14.38631 -14.38526 -10.39162 -10.39009
 Alpha  occ. eigenvalues --  -10.35483 -10.35342 -10.34446 -10.34154 -10.31780
 Alpha  occ. eigenvalues --  -10.31671 -10.31452 -10.31221 -10.30956 -10.30940
 Alpha  occ. eigenvalues --  -10.30615 -10.30549 -10.30329 -10.30285 -10.30241
 Alpha  occ. eigenvalues --  -10.30074 -10.29959 -10.29828 -10.29673 -10.29366
 Alpha  occ. eigenvalues --  -10.29332 -10.29294 -10.28806 -10.28616 -10.28613
 Alpha  occ. eigenvalues --  -10.28551 -10.28410 -10.28329 -10.28168 -10.28022
 Alpha  occ. eigenvalues --  -10.27929 -10.27836 -10.27770 -10.27625 -10.27585
 Alpha  occ. eigenvalues --  -10.27524 -10.27517 -10.27474 -10.27464 -10.27451
 Alpha  occ. eigenvalues --  -10.27406 -10.27401 -10.27398 -10.27325 -10.27219
 Alpha  occ. eigenvalues --  -10.26968 -10.26775 -10.26595 -10.26440 -10.26376
 Alpha  occ. eigenvalues --  -10.26280 -10.26197 -10.26093 -10.26057 -10.25883
 Alpha  occ. eigenvalues --  -10.25865 -10.25864 -10.25787 -10.25456 -10.25356
 Alpha  occ. eigenvalues --  -10.24878 -10.24827 -10.24800 -10.24700 -10.24689
 Alpha  occ. eigenvalues --  -10.24621  -3.16582  -3.16336  -1.91464  -1.91218
 Alpha  occ. eigenvalues --   -1.91050  -1.90892  -1.90807  -1.90644  -1.16719
 Alpha  occ. eigenvalues --   -1.16559  -1.08685  -1.08584  -1.07250  -1.06917
 Alpha  occ. eigenvalues --   -1.06865  -1.06728  -1.04626  -1.04414  -1.03801
 Alpha  occ. eigenvalues --   -1.03589  -1.03276  -1.02968  -1.02453  -1.02039
 Alpha  occ. eigenvalues --   -0.92021  -0.91909  -0.89552  -0.89431  -0.89241
 Alpha  occ. eigenvalues --   -0.89044  -0.88318  -0.88161  -0.87913  -0.87723
 Alpha  occ. eigenvalues --   -0.87718  -0.87604  -0.87312  -0.87057  -0.85034
 Alpha  occ. eigenvalues --   -0.84907  -0.83967  -0.83820  -0.83000  -0.82877
 Alpha  occ. eigenvalues --   -0.82699  -0.82569  -0.81648  -0.81518  -0.80648
 Alpha  occ. eigenvalues --   -0.80367  -0.78837  -0.78567  -0.77261  -0.77064
 Alpha  occ. eigenvalues --   -0.76988  -0.76815  -0.75977  -0.75746  -0.74934
 Alpha  occ. eigenvalues --   -0.74740  -0.72816  -0.72626  -0.71716  -0.71500
 Alpha  occ. eigenvalues --   -0.69932  -0.69703  -0.68923  -0.68740  -0.67686
 Alpha  occ. eigenvalues --   -0.67530  -0.67273  -0.67118  -0.65340  -0.65181
 Alpha  occ. eigenvalues --   -0.64903  -0.64695  -0.64669  -0.64573  -0.64304
 Alpha  occ. eigenvalues --   -0.64140  -0.62362  -0.62201  -0.60479  -0.60277
 Alpha  occ. eigenvalues --   -0.59854  -0.59702  -0.59031  -0.58919  -0.58549
 Alpha  occ. eigenvalues --   -0.58352  -0.57645  -0.57476  -0.57351  -0.57172
 Alpha  occ. eigenvalues --   -0.56355  -0.56131  -0.56049  -0.55805  -0.55564
 Alpha  occ. eigenvalues --   -0.55383  -0.55381  -0.55183  -0.54575  -0.54421
 Alpha  occ. eigenvalues --   -0.53949  -0.53810  -0.53340  -0.53271  -0.53160
 Alpha  occ. eigenvalues --   -0.53063  -0.52970  -0.52823  -0.52798  -0.52596
 Alpha  occ. eigenvalues --   -0.52463  -0.52349  -0.51958  -0.51818  -0.51670
 Alpha  occ. eigenvalues --   -0.51573  -0.51243  -0.51127  -0.50606  -0.50416
 Alpha  occ. eigenvalues --   -0.50061  -0.49958  -0.49900  -0.49806  -0.49562
 Alpha  occ. eigenvalues --   -0.49411  -0.49263  -0.49148  -0.49122  -0.49010
 Alpha  occ. eigenvalues --   -0.48647  -0.48498  -0.48490  -0.48474  -0.48316
 Alpha  occ. eigenvalues --   -0.48275  -0.47740  -0.47518  -0.47339  -0.47050
 Alpha  occ. eigenvalues --   -0.46838  -0.46634  -0.46609  -0.46461  -0.46402
 Alpha  occ. eigenvalues --   -0.46207  -0.46202  -0.46018  -0.45877  -0.45744
 Alpha  occ. eigenvalues --   -0.45234  -0.45148  -0.44630  -0.44548  -0.44439
 Alpha  occ. eigenvalues --   -0.44389  -0.44185  -0.44136  -0.44068  -0.44040
 Alpha  occ. eigenvalues --   -0.44015  -0.43869  -0.43554  -0.43476  -0.43430
 Alpha  occ. eigenvalues --   -0.43304  -0.43072  -0.42853  -0.42825  -0.42768
 Alpha  occ. eigenvalues --   -0.42692  -0.42494  -0.42049  -0.41894  -0.41751
 Alpha  occ. eigenvalues --   -0.41593  -0.41585  -0.41374  -0.41185  -0.40915
 Alpha  occ. eigenvalues --   -0.40904  -0.40863  -0.40654  -0.40617  -0.40606
 Alpha  occ. eigenvalues --   -0.40425  -0.40295  -0.40136  -0.39464  -0.39372
 Alpha  occ. eigenvalues --   -0.38503  -0.38285  -0.37808  -0.37564  -0.37356
 Alpha  occ. eigenvalues --   -0.37317  -0.37197  -0.37113  -0.36781  -0.36694
 Alpha  occ. eigenvalues --   -0.36245  -0.36145  -0.34330  -0.34178  -0.33849
 Alpha  occ. eigenvalues --   -0.33783  -0.33232  -0.33102  -0.31380  -0.31222
 Alpha  occ. eigenvalues --   -0.31079  -0.30898  -0.30085  -0.29881  -0.29491
 Alpha  occ. eigenvalues --   -0.29366  -0.29260  -0.29140  -0.24124  -0.23961
 Alpha  occ. eigenvalues --   -0.21169  -0.21043
 Alpha virt. eigenvalues --   -0.08817  -0.08720  -0.01790  -0.01613  -0.00100
 Alpha virt. eigenvalues --    0.00040   0.02153   0.02278   0.03073   0.03293
 Alpha virt. eigenvalues --    0.04668   0.04817   0.05020   0.05246   0.06111

 Mulliken charges:
               1
     1  Mg   0.838600
     2  C   -0.003160
     3  C   -0.094155
     4  C   -0.045784
     5  C   -0.063859
     6  N   -0.256789
     7  C   -0.052537
     8  C   -0.014013
     9  C   -0.086999
    10  C    0.046278
    11  C    0.104786
    12  C    0.053489
    13  C   -0.071654
    14  H    0.035520
    15  N   -0.433142
    16  C    0.168429
    17  C   -0.177107
    18  C   -0.003926
    19  C    0.148707
    20  C    0.110147
    21  C    0.012309
    22  O   -0.249493
    23  C    0.062463
    24  N   -0.341114
    25  C    0.041270
    26  C   -0.028227
    27  C   -0.024001
    28  C    0.074826
    29  C    0.076132
    30  C    0.035083
    31  C   -0.004560
    32  N   -0.310424
    33  C    0.080340
    34  C   -0.169734
    35  C    0.008260
    36  C    0.082911
    37  C    0.127336
    38  C    0.045977
    39  O   -0.188690
    40  C   -0.005269
    41  C    0.212855
    42  O   -0.257519
    43  O   -0.304634
    44  C    0.157869
    45  H   -0.017538
    46  H   -0.016692
    47  H   -0.041328
    48  H    0.000901
    49  H   -0.004045
    50  H    0.025480
    51  H    0.016563
    52  H    0.016718
    53  H    0.011234
    54  H    0.043796
    55  H    0.017999
    56  H    0.018082
    57  H    0.005883
    58  H    0.026948
    59  H    0.039644
    60  H    0.037413
    61  H    0.035747
    62  H    0.031508
    63  H    0.016672
    64  H    0.009560
    65  H    0.023358
    66  H    0.012520
    67  H    0.004863
    68  H    0.006600
    69  H    0.004862
    70  H    0.008830
    71  H    0.018470
    72  H    0.028704
    73  H    0.047398
    74  H    0.009302
    75  H    0.046066
    76  H    0.035213
    77  H    0.042914
    78  H    0.046423
    79  H    0.053135
    80  Mg   0.837899
    81  C   -0.016789
    82  C   -0.087623
    83  C   -0.045630
    84  C   -0.064929
    85  N   -0.254600
    86  C   -0.049608
    87  C   -0.015160
    88  C   -0.090497
    89  C    0.045766
    90  C    0.114235
    91  C    0.062490
    92  C   -0.077903
    93  H    0.034606
    94  N   -0.423525
    95  C    0.162888
    96  C   -0.174522
    97  C   -0.008010
    98  C    0.152195
    99  C    0.099343
   100  C    0.015432
   101  O   -0.253497
   102  C    0.061245
   103  N   -0.350035
   104  C    0.037588
   105  C   -0.019822
   106  C   -0.034818
   107  C    0.088931
   108  C    0.073722
   109  C    0.034783
   110  C   -0.007630
   111  N   -0.324091
   112  C    0.078489
   113  C   -0.163195
   114  C    0.002291
   115  C    0.096179
   116  C    0.131486
   117  C    0.042359
   118  O   -0.187951
   119  C    0.000967
   120  C    0.211209
   121  O   -0.251179
   122  O   -0.305455
   123  C    0.152085
   124  H   -0.019210
   125  H   -0.015887
   126  H   -0.040605
   127  H   -0.000265
   128  H   -0.004304
   129  H    0.022829
   130  H    0.014644
   131  H    0.017305
   132  H    0.013749
   133  H    0.037470
   134  H    0.021254
   135  H    0.019629
   136  H    0.009050
   137  H    0.026037
   138  H    0.039598
   139  H    0.038187
   140  H    0.036072
   141  H    0.033908
   142  H    0.014196
   143  H    0.012431
   144  H    0.024745
   145  H    0.011680
   146  H    0.005670
   147  H    0.006042
   148  H    0.003613
   149  H    0.010801
   150  H    0.017795
   151  H    0.030224
   152  H    0.045868
   153  H    0.008373
   154  H    0.047020
   155  H    0.035435
   156  H    0.043892
   157  H    0.049647
   158  H    0.053389
 Sum of Mulliken charges =  -0.00000

 Dipole moment (field-independent basis, Debye):
    X=             -4.5203    Y=              1.8218    Z=              5.6634  Tot=              7.4717
 Quadrupole moment (field-independent basis, Debye-Ang):
   XX=           -518.2555   YY=           -511.8432   ZZ=           -487.4179
   XY=            -34.8040   XZ=              9.1108   YZ=            -12.2303

 Normal termination of Gaussian 16 at Sat Sep  4 16:17:29 2021.
