 Gaussian 16, Revision A.03,
 Gaussian 16:  ES64L-G16RevA.03 25-Dec-2016

 -----------------------------------
 #p cam-b3lyp/Def2SVP td=(nstates=5)
 -----------------------------------

 --------------------------------
 TDDFT excited states in gaussian
 --------------------------------
 Symbolic Z-matrix:
 Charge =  0 Multiplicity = 1

                         Standard orientation:
 ---------------------------------------------------------------------
 Center     Atomic      Atomic             Coordinates (Angstroms)
 Number     Number       Type             X           Y           Z
 ---------------------------------------------------------------------
      1         12           0        4.721050   -0.081508   -0.046872
      2          6           0        4.308124   -3.525368   -0.930918
      3          6           0        5.498244    0.510422   -3.316222
      4          6           0        5.531380    2.867249    0.792662
      5          6           0        5.027146   -1.121290    3.265351
      6          7           0        4.850804   -1.419351   -1.805845
      7          6           0        4.609939   -2.708557   -2.022876
      8          6           0        4.634130   -3.096129   -3.531709
      9          6           0        5.556207   -1.916586   -4.079843
     10          6           0        5.258386   -0.865379   -3.025238
     11          6           0        7.046194   -2.240772   -4.043176
     12          6           0        3.208732   -3.056824   -4.178569
     13          6           0        3.094342   -3.730621   -5.549068
     14          1           0        1.865955   -4.435840   -5.882352
     15          7           0        4.937698    1.548529   -1.141811
     16          6           0        5.237677    1.603525   -2.461763
     17          6           0        5.288108    3.040093   -2.808762
     18          6           0        5.180438    3.817926   -1.543266
     19          6           0        5.239320    2.761879   -0.565168
     20          6           0        5.376724    3.543890   -4.216627
     21          6           0        5.056384    5.281655   -1.260003
     22          8           0        5.210219    5.762566   -0.085425
     23          6           0        4.834752    6.159437   -2.423369
     24          7           0        5.429226    0.743729    1.735011
     25          6           0        5.645665    2.058753    1.848370
     26          6           0        5.873640    2.453398    3.277433
     27          6           0        5.525880    1.164105    4.152957
     28          6           0        5.219906    0.173298    3.002761
     29          6           0        7.289551    2.936563    3.620591
     30          6           0        4.472240    1.339503    5.275231
     31          6           0        3.114301    1.609216    4.666664
     32          7           0        4.504780   -1.950984    1.034485
     33          6           0        4.701019   -2.158398    2.407491
     34          6           0        4.545758   -3.604054    2.652523
     35          6           0        4.284674   -4.142910    1.394225
     36          6           0        4.303292   -3.103550    0.420739
     37          6           0        4.706671   -4.258956    3.905377
     38          6           0        4.018688   -5.358395    0.642090
     39          8           0        3.795961   -6.532323    0.941722
     40          6           0        4.143870   -5.024743   -0.909951
     41          6           0        2.941477   -5.610090   -1.599101
     42          8           0        1.797774   -5.160365   -1.382172
     43          8           0        3.347105   -6.438371   -2.573759
     44          6           0        2.202751   -7.030546   -3.316684
     45          1           0        5.983649    0.773901   -4.257978
     46          1           0        5.707796    3.886357    1.142998
     47          1           0        5.025261   -1.507434    4.286302
     48          1           0        5.096069   -4.060032   -3.746014
     49          1           0        5.233525   -1.570487   -5.061583
     50          1           0        7.236788   -3.180675   -3.525317
     51          1           0        7.511500   -1.411332   -3.510248
     52          1           0        7.470378   -2.227269   -5.047498
     53          1           0        2.967990   -2.030527   -4.455731
     54          1           0        2.466759   -3.484624   -3.503448
     55          1           0        3.962706   -4.355509   -5.759706
     56          1           0        3.126448   -2.955284   -6.314589
     57          1           0        5.608092    2.741008   -4.915479
     58          1           0        6.242679    4.203827   -4.264732
     59          1           0        4.481399    4.089940   -4.514208
     60          1           0        5.660730    6.042192   -3.125197
     61          1           0        4.681745    7.159942   -2.020344
     62          1           0        3.937451    5.830264   -2.948197
     63          1           0        5.214372    3.270531    3.567407
     64          1           0        6.402177    0.772185    4.669846
     65          1           0        7.317679    3.935423    4.056701
     66          1           0        7.891041    2.888914    2.713270
     67          1           0        7.848307    2.278763    4.285804
     68          1           0        4.720923    2.198176    5.897953
     69          1           0        4.389149    0.469908    5.927267
     70          1           0        3.138938    2.682674    4.482510
     71          1           0        2.323455    1.352175    5.372145
     72          1           0        3.005686    1.115332    3.700865
     73          1           0        3.886156   -4.972031    3.984427
     74          1           0        4.692716   -3.546065    4.729510
     75          1           0        5.684856   -4.719619    3.768264
     76          1           0        5.073459   -5.477193   -1.253862
     77          1           0        2.313537   -8.113800   -3.266480
     78          1           0        2.200946   -6.567309   -4.303504
     79          1           0        1.217835   -6.903306   -2.866031
     80         12           0       -4.149267    1.370202    0.516147
     81          6           0       -6.394848   -1.422590    0.324428
     82          6           0       -5.341515    2.346526   -2.526870
     83          6           0       -1.874579    3.581123    0.445167
     84          6           0       -2.366248   -0.406720    2.926347
     85          7           0       -5.671620    0.492942   -0.827408
     86          6           0       -6.503555   -0.535932   -0.767115
     87          6           0       -7.562193   -0.574415   -1.901736
     88          6           0       -6.770943    0.291728   -2.998362
     89          6           0       -5.894639    1.125288   -2.065647
     90          6           0       -5.863713   -0.544477   -3.885523
     91          6           0       -8.908614    0.116139   -1.486647
     92          6           0      -10.086195   -0.154136   -2.425802
     93          1           0      -11.421990   -0.278838   -1.849105
     94          7           0       -3.995250    3.019717   -0.576532
     95          6           0       -4.563531    3.256222   -1.777533
     96          6           0       -4.127713    4.605327   -2.170155
     97          6           0       -3.123530    5.080593   -1.179992
     98          6           0       -2.939404    3.877667   -0.393140
     99          6           0       -4.716598    5.343186   -3.337298
    100          6           0       -2.432534    6.395832   -0.982800
    101          8           0       -1.420334    6.514803   -0.205538
    102          6           0       -2.917191    7.519645   -1.797447
    103          7           0       -2.260509    1.478102    1.378284
    104          6           0       -1.495805    2.574460    1.232875
    105          6           0       -0.306111    2.536898    2.162191
    106          6           0       -0.562335    1.296177    3.138166
    107          6           0       -1.869360    0.753420    2.519709
    108          6           0        1.058155    2.382376    1.490409
    109          6           0       -0.530177    1.582971    4.664403
    110          6           0       -1.703348    2.454706    5.050568
    111          7           0       -4.420704   -0.476306    1.604626
    112          6           0       -3.539554   -1.047249    2.548903
    113          6           0       -4.100252   -2.359960    2.929478
    114          6           0       -5.265981   -2.472661    2.156896
    115          6           0       -5.410183   -1.321088    1.336790
    116          6           0       -3.512339   -3.283546    3.839135
    117          6           0       -6.401688   -3.308702    1.840845
    118          8           0       -6.854548   -4.363020    2.284788
    119          6           0       -7.116147   -2.722808    0.547527
    120          6           0       -8.594530   -2.666284    0.818983
    121          8           0       -9.048212   -1.905672    1.692056
    122          8           0       -9.244855   -3.352731   -0.138226
    123          6           0      -10.715314   -3.316450    0.081439
    124          1           0       -5.479910    2.615939   -3.574321
    125          1           0       -1.117246    4.362753    0.539961
    126          1           0       -1.921439   -0.977810    3.744078
    127          1           0       -7.774821   -1.562756   -2.291288
    128          1           0       -7.447156    0.931623   -3.559280
    129          1           0       -5.810801   -1.570866   -3.554090
    130          1           0       -4.888492   -0.078609   -3.831234
    131          1           0       -6.178736   -0.463384   -4.929801
    132          1           0       -8.809486    1.201437   -1.617136
    133          1           0       -9.178853   -0.148437   -0.482853
    134          1           0       -9.884268   -0.986279   -3.111151
    135          1           0      -10.211407    0.709908   -3.082888
    136          1           0       -5.312683    4.678149   -3.974337
    137          1           0       -3.881075    5.652665   -3.974469
    138          1           0       -5.277994    6.229890   -3.035224
    139          1           0       -2.828052    7.266638   -2.851241
    140          1           0       -2.360847    8.392850   -1.451223
    141          1           0       -3.985016    7.661977   -1.597191
    142          1           0       -0.248238    3.442748    2.753109
    143          1           0        0.196937    0.511185    3.007230
    144          1           0        1.763642    3.196428    1.742761
    145          1           0        0.907531    2.327793    0.420424
    146          1           0        1.572394    1.445852    1.699392
    147          1           0        0.371449    2.142384    4.925703
    148          1           0       -0.539633    0.684872    5.272949
    149          1           0       -1.349150    3.463069    4.816404
    150          1           0       -1.925365    2.350613    6.110715
    151          1           0       -2.570677    2.253215    4.411179
    152          1           0       -4.312062   -3.655120    4.465922
    153          1           0       -2.728026   -2.815060    4.430014
    154          1           0       -3.112867   -4.020795    3.137594
    155          1           0       -6.878016   -3.384315   -0.286311
    156          1           0      -11.058586   -4.354963    0.118119
    157          1           0      -11.122419   -2.679604   -0.726308
    158          1           0      -11.070628   -2.942470    1.034508
 ---------------------------------------------------------------------

 SCF Done:  E(RCAM-B3LYP) =  -4069.81122391     A.U. after   19 cycles

 Excitation energies and oscillator strengths:

 Excited State   1:      Singlet-A      1.6453 eV  753.58 nm  f=0.0017  <S**2>=0.000
     309 -> 315       -0.11321
     310 -> 316       -0.12158
     311 -> 313       -0.46692
     312 -> 314        0.50502
 This state for optimization and/or second-order correction.
 Total Energy, E(TD-HF/TD-DFT) =  -4069.75076131
 Copying the excited state density for this state as the 1-particle RhoCI density.

 Excited State   2:      Singlet-A      1.7052 eV  727.09 nm  f=0.6915  <S**2>=0.000
     309 -> 315        0.13387
     310 -> 316       -0.12263
     311 -> 313        0.50242
     312 -> 314        0.46440

 Excited State   3:      Singlet-A      2.1815 eV  568.33 nm  f=0.0617  <S**2>=0.000
     309 -> 313       -0.24527
     310 -> 314        0.59613
     311 -> 315        0.10087
     312 -> 316        0.24858

 Excited State   4:      Singlet-A      2.1973 eV  564.27 nm  f=0.1274  <S**2>=0.000
     309 -> 313        0.59162
     310 -> 314        0.24066
     311 -> 315       -0.26055
     312 -> 316        0.10965

 Excited State   5:      Singlet-A      2.3426 eV  529.27 nm  f=0.0000  <S**2>=0.000
     312 -> 313        0.70653

 The electronic state is 1-A.
 Alpha  occ. eigenvalues --  -46.87885 -46.87437 -19.26311 -19.26176 -19.19052
 Alpha  occ. eigenvalues --  -19.18979 -19.18758 -19.18534 -19.18213 -19.17817
 Alpha  occ. eigenvalues --  -14.42531 -14.42279 -14.41550 -14.41138 -14.39468
 Alpha  occ. eigenvalues --  -14.39136 -14.38679 -14.38363 -10.39114 -10.38904
 Alpha  occ. eigenvalues --  -10.35386 -10.35217 -10.34436 -10.33994 -10.31695
 Alpha  occ. eigenvalues --  -10.31606 -10.31494 -10.31081 -10.30963 -10.30834
 Alpha  occ. eigenvalues --  -10.30656 -10.30593 -10.30311 -10.30159 -10.30121
 Alpha  occ. eigenvalues --  -10.30044 -10.29930 -10.29692 -10.29656 -10.29319
 Alpha  occ. eigenvalues --  -10.29222 -10.29169 -10.28809 -10.28603 -10.28546
 Alpha  occ. eigenvalues --  -10.28529 -10.28425 -10.28192 -10.28184 -10.27961
 Alpha  occ. eigenvalues --  -10.27850 -10.27807 -10.27774 -10.27662 -10.27629
 Alpha  occ. eigenvalues --  -10.27592 -10.27501 -10.27475 -10.27458 -10.27335
 Alpha  occ. eigenvalues --  -10.27296 -10.27265 -10.27251 -10.27206 -10.27195
 Alpha  occ. eigenvalues --  -10.26829 -10.26763 -10.26543 -10.26437 -10.26306
 Alpha  occ. eigenvalues --  -10.26295 -10.26264 -10.26131 -10.25928 -10.25874
 Alpha  occ. eigenvalues --  -10.25852 -10.25693 -10.25531 -10.25484 -10.25306
 Alpha  occ. eigenvalues --  -10.25082 -10.24893 -10.24889 -10.24633 -10.24547
 Alpha  occ. eigenvalues --  -10.24469  -3.16621  -3.16186  -1.91504  -1.91090
 Alpha  occ. eigenvalues --   -1.91068  -1.90931  -1.90657  -1.90494  -1.16661
 Alpha  occ. eigenvalues --   -1.16468  -1.08671  -1.08423  -1.07148  -1.06791
 Alpha  occ. eigenvalues --   -1.06762  -1.06674  -1.04655  -1.04280  -1.03850
 Alpha  occ. eigenvalues --   -1.03443  -1.03313  -1.02813  -1.02495  -1.01886
 Alpha  occ. eigenvalues --   -0.92041  -0.91764  -0.89674  -0.89276  -0.89256
 Alpha  occ. eigenvalues --   -0.88968  -0.88429  -0.88019  -0.87944  -0.87753
 Alpha  occ. eigenvalues --   -0.87528  -0.87467  -0.87287  -0.86939  -0.85047
 Alpha  occ. eigenvalues --   -0.84815  -0.84111  -0.83687  -0.82989  -0.82773
 Alpha  occ. eigenvalues --   -0.82682  -0.82474  -0.81645  -0.81392  -0.80651
 Alpha  occ. eigenvalues --   -0.80241  -0.78841  -0.78426  -0.77329  -0.77021
 Alpha  occ. eigenvalues --   -0.76945  -0.76714  -0.75991  -0.75643  -0.75020
 Alpha  occ. eigenvalues --   -0.74632  -0.72866  -0.72469  -0.71752  -0.71391
 Alpha  occ. eigenvalues --   -0.70227  -0.69499  -0.68929  -0.68639  -0.67698
 Alpha  occ. eigenvalues --   -0.67396  -0.67254  -0.67029  -0.65364  -0.65084
 Alpha  occ. eigenvalues --   -0.64942  -0.64715  -0.64560  -0.64463  -0.64398
 Alpha  occ. eigenvalues --   -0.64006  -0.62361  -0.62087  -0.60492  -0.60147
 Alpha  occ. eigenvalues --   -0.59870  -0.59598  -0.59073  -0.58778  -0.58582
 Alpha  occ. eigenvalues --   -0.58216  -0.57641  -0.57393  -0.57335  -0.57034
 Alpha  occ. eigenvalues --   -0.56367  -0.56024  -0.55987  -0.55705  -0.55570
 Alpha  occ. eigenvalues --   -0.55474  -0.55260  -0.55048  -0.54650  -0.54288
 Alpha  occ. eigenvalues --   -0.53960  -0.53733  -0.53381  -0.53239  -0.53030
 Alpha  occ. eigenvalues --   -0.53001  -0.52953  -0.52774  -0.52718  -0.52645
 Alpha  occ. eigenvalues --   -0.52514  -0.52208  -0.51992  -0.51651  -0.51572
 Alpha  occ. eigenvalues --   -0.51480  -0.51296  -0.50993  -0.50567  -0.50329
 Alpha  occ. eigenvalues --   -0.50186  -0.49939  -0.49811  -0.49706  -0.49534
 Alpha  occ. eigenvalues --   -0.49309  -0.49261  -0.49154  -0.49005  -0.48900
 Alpha  occ. eigenvalues --   -0.48667  -0.48555  -0.48433  -0.48354  -0.48189
 Alpha  occ. eigenvalues --   -0.48153  -0.47765  -0.47415  -0.47353  -0.46959
 Alpha  occ. eigenvalues --   -0.46921  -0.46621  -0.46519  -0.46437  -0.46371
 Alpha  occ. eigenvalues --   -0.46266  -0.46059  -0.45922  -0.45863  -0.45604
 Alpha  occ. eigenvalues --   -0.45368  -0.45102  -0.44630  -0.44539  -0.44333
 Alpha  occ. eigenvalues --   -0.44287  -0.44240  -0.44143  -0.44038  -0.43945
 Alpha  occ. eigenvalues --   -0.43896  -0.43747  -0.43571  -0.43469  -0.43367
 Alpha  occ. eigenvalues --   -0.43192  -0.43100  -0.42865  -0.42743  -0.42727
 Alpha  occ. eigenvalues --   -0.42666  -0.42362  -0.42137  -0.41785  -0.41744
 Alpha  occ. eigenvalues --   -0.41605  -0.41456  -0.41269  -0.41209  -0.40987
 Alpha  occ. eigenvalues --   -0.40815  -0.40771  -0.40685  -0.40556  -0.40532
 Alpha  occ. eigenvalues --   -0.40285  -0.40274  -0.40070  -0.39564  -0.39186
 Alpha  occ. eigenvalues --   -0.38595  -0.38150  -0.37814  -0.37484  -0.37435
 Alpha  occ. eigenvalues --   -0.37327  -0.37054  -0.37000  -0.36766  -0.36583
 Alpha  occ. eigenvalues --   -0.36264  -0.36008  -0.34369  -0.34030  -0.33810
 Alpha  occ. eigenvalues --   -0.33672  -0.33263  -0.32951  -0.31303  -0.31099
 Alpha  occ. eigenvalues --   -0.31091  -0.30756  -0.30076  -0.29720  -0.29491
 Alpha  occ. eigenvalues --   -0.29384  -0.29117  -0.28962  -0.24169  -0.23808
 Alpha  occ. eigenvalues --   -0.21208  -0.20894
 Alpha virt. eigenvalues --   -0.08838  -0.08569  -0.01831  -0.01479  -0.00068
 Alpha virt. eigenvalues --    0.00164   0.02135   0.02446   0.02918   0.03473
 Alpha virt. eigenvalues --    0.04636   0.04925   0.05060   0.05355   0.06057

 Mulliken charges:
               1
     1  Mg   0.829271
     2  C   -0.002388
     3  C   -0.093696
     4  C   -0.049726
     5  C   -0.063931
     6  N   -0.256408
     7  C   -0.052630
     8  C   -0.013857
     9  C   -0.087050
    10  C    0.046689
    11  C    0.104775
    12  C    0.053462
    13  C   -0.071707
    14  H    0.035926
    15  N   -0.432539
    16  C    0.170011
    17  C   -0.177246
    18  C   -0.002186
    19  C    0.150259
    20  C    0.110378
    21  C    0.015288
    22  O   -0.248595
    23  C    0.061797
    24  N   -0.340495
    25  C    0.042317
    26  C   -0.028038
    27  C   -0.024752
    28  C    0.072940
    29  C    0.076116
    30  C    0.048435
    31  C   -0.031204
    32  N   -0.308965
    33  C    0.076707
    34  C   -0.170385
    35  C    0.008200
    36  C    0.082743
    37  C    0.127494
    38  C    0.046041
    39  O   -0.188012
    40  C   -0.005448
    41  C    0.212964
    42  O   -0.256963
    43  O   -0.304837
    44  C    0.157488
    45  H   -0.017415
    46  H   -0.016970
    47  H   -0.042903
    48  H    0.001102
    49  H   -0.004047
    50  H    0.025677
    51  H    0.016556
    52  H    0.016793
    53  H    0.011145
    54  H    0.044365
    55  H    0.018044
    56  H    0.017684
    57  H    0.005493
    58  H    0.027141
    59  H    0.040326
    60  H    0.035946
    61  H    0.037762
    62  H    0.033419
    63  H    0.016077
    64  H    0.009887
    65  H    0.023771
    66  H    0.013353
    67  H    0.004988
    68  H    0.006447
    69  H    0.002679
    70  H    0.012458
    71  H    0.029108
    72  H    0.028447
    73  H    0.047317
    74  H    0.008293
    75  H    0.046417
    76  H    0.035366
    77  H    0.043323
    78  H    0.046144
    79  H    0.054129
    80  Mg   0.838536
    81  C   -0.016865
    82  C   -0.088337
    83  C   -0.047037
    84  C   -0.062595
    85  N   -0.254469
    86  C   -0.049239
    87  C   -0.015164
    88  C   -0.090584
    89  C    0.045811
    90  C    0.114608
    91  C    0.062638
    92  C   -0.077553
    93  H    0.034414
    94  N   -0.423174
    95  C    0.162601
    96  C   -0.175955
    97  C   -0.008489
    98  C    0.151690
    99  C    0.100017
   100  C    0.014210
   101  O   -0.252590
   102  C    0.061382
   103  N   -0.349581
   104  C    0.038037
   105  C   -0.019350
   106  C   -0.033468
   107  C    0.088784
   108  C    0.062581
   109  C    0.017154
   110  C   -0.001527
   111  N   -0.324622
   112  C    0.078956
   113  C   -0.160843
   114  C    0.002704
   115  C    0.096823
   116  C    0.131406
   117  C    0.043235
   118  O   -0.187486
   119  C    0.000642
   120  C    0.211109
   121  O   -0.251354
   122  O   -0.305542
   123  C    0.152183
   124  H   -0.020939
   125  H   -0.014856
   126  H   -0.039501
   127  H   -0.000724
   128  H   -0.005070
   129  H    0.023166
   130  H    0.014394
   131  H    0.015006
   132  H    0.013763
   133  H    0.037649
   134  H    0.020607
   135  H    0.019185
   136  H    0.008147
   137  H    0.024212
   138  H    0.039158
   139  H    0.036758
   140  H    0.036067
   141  H    0.033868
   142  H    0.013833
   143  H    0.014696
   144  H    0.034802
   145  H    0.011836
   146  H    0.011076
   147  H    0.017273
   148  H    0.003452
   149  H    0.009496
   150  H    0.016171
   151  H    0.028993
   152  H    0.044986
   153  H    0.007945
   154  H    0.052358
   155  H    0.035714
   156  H    0.043736
   157  H    0.049125
   158  H    0.053356
 Sum of Mulliken charges =  -0.00000

 Dipole moment (field-independent basis, Debye):
    X=              2.5338    Y=              3.7367    Z=             -7.5501  Tot=              8.7971
 Quadrupole moment (field-independent basis, Debye-Ang):
   XX=           -489.0088   YY=           -557.8243   ZZ=           -452.7570
   XY=            -21.2109   XZ=             28.8873   YZ=              4.2897

 Normal termination of Gaussian 16 at Fri Sep 10 05:37:24 2021.
