 Gaussian 16, Revision A.03,
 Gaussian 16:  ES64L-G16RevA.03 25-Dec-2016

 -----------------------------------
 #p cam-b3lyp/Def2SVP td=(nstates=5)
 -----------------------------------

 --------------------------------
 TDDFT excited states in gaussian
 --------------------------------
 Symbolic Z-matrix:
 Charge =  0 Multiplicity = 1

                         Standard orientation:
 ---------------------------------------------------------------------
 Center     Atomic      Atomic             Coordinates (Angstroms)
 Number     Number       Type             X           Y           Z
 ---------------------------------------------------------------------
      1         12           0        6.454775   -0.613318    0.341849
      2          6           0        6.864140    2.723079   -0.888229
      3          6           0        7.439055    0.550536    3.394667
      4          6           0        6.539462   -3.621985    1.340534
      5          6           0        6.612169   -1.694942   -2.967377
      6          7           0        7.048180    1.402055    1.039550
      7          6           0        7.105282    2.607761    0.482609
      8          6           0        7.371655    3.750022    1.508114
      9          6           0        8.081950    2.898939    2.654035
     10          6           0        7.460485    1.542829    2.370007
     11          6           0        9.593995    2.791487    2.484690
     12          6           0        6.047251    4.408996    2.021377
     13          6           0        6.223496    5.735049    2.766947
     14          1           0        5.211634    6.768394    2.606695
     15          7           0        6.444424   -1.356417    2.172299
     16          6           0        6.866632   -0.736444    3.300421
     17          6           0        6.654430   -1.702148    4.399998
     18          6           0        6.251965   -3.001354    3.793221
     19          6           0        6.423473   -2.715509    2.391702
     20          6           0        6.787328   -1.342539    5.848020
     21          6           0        5.796682   -4.298480    4.383402
     22          8           0        5.719949   -5.370832    3.691486
     23          6           0        5.523921   -4.301279    5.832069
     24          7           0        6.780102   -2.426716   -0.639673
     25          6           0        6.705039   -3.589751    0.016604
     26          6           0        6.690941   -4.751867   -0.931672
     27          6           0        6.526606   -4.128422   -2.392516
     28          6           0        6.558773   -2.627247   -2.013426
     29          6           0        7.930207   -5.656961   -0.899522
     30          6           0        5.345048   -4.647517   -3.249767
     31          6           0        4.034225   -4.209420   -2.635835
     32          7           0        6.516717    0.328385   -1.612736
     33          6           0        6.602918   -0.314581   -2.856053
     34          6           0        6.726057    0.739376   -3.879811
     35          6           0        6.719567    1.929406   -3.154808
     36          6           0        6.626379    1.636329   -1.764228
     37          6           0        6.883838    0.528613   -5.278067
     38          6           0        6.794486    3.379454   -3.229689
     39          8           0        6.789686    4.201807   -4.146862
     40          6           0        7.013803    3.946523   -1.757901
     41          6           0        6.040581    5.075897   -1.556255
     42          8           0        4.811836    4.861819   -1.514754
     43          8           0        6.711930    6.184589   -1.208931
     44          6           0        5.802339    7.335824   -0.965093
     45          1           0        7.957528    0.750863    4.334346
     46          1           0        6.461496   -4.671187    1.632998
     47          1           0        6.580764   -1.953595   -4.027361
     48          1           0        8.044146    4.531376    1.153618
     49          1           0        7.801905    3.243113    3.649444
     50          1           0        9.918927    3.209797    1.532138
     51          1           0        9.816673    1.725169    2.527973
     52          1           0       10.111629    3.240351    3.332836
     53          1           0        5.629715    3.799599    2.822851
     54          1           0        5.342166    4.547579    1.201026
     55          1           0        7.220275    6.149381    2.613094
     56          1           0        6.175921    5.534045    3.837243
     57          1           0        7.254308   -0.366939    5.977168
     58          1           0        7.497259   -2.043660    6.286354
     59          1           0        5.835390   -1.405251    6.375480
     60          1           0        6.426827   -4.009405    6.368838
     61          1           0        5.123877   -5.288439    6.060825
     62          1           0        4.776403   -3.538549    6.052089
     63          1           0        5.848963   -5.412295   -0.728364
     64          1           0        7.404422   -4.306208   -3.014212
     65          1           0        7.703050   -6.703242   -0.693606
     66          1           0        8.622499   -5.254341   -0.160657
     67          1           0        8.538599   -5.631205   -1.803188
     68          1           0        5.341383   -5.736786   -3.270400
     69          1           0        5.374850   -4.296365   -4.281297
     70          1           0        3.854894   -4.969756   -1.876518
     71          1           0        3.242870   -4.212682   -3.386140
     72          1           0        4.135160   -3.253230   -2.122028
     73          1           0        6.225800    1.244409   -5.770602
     74          1           0        6.633460   -0.495235   -5.554922
     75          1           0        7.945349    0.745489   -5.396451
     76          1           0        8.048607    4.283043   -1.702602
     77          1           0        6.129778    8.146981   -1.615510
     78          1           0        5.810463    7.514822    0.110220
     79          1           0        4.769850    7.212447   -1.293854
     80         12           0       -6.736507    0.247336    0.476922
     81          6           0       -6.007738   -1.018249   -2.801221
     82          6           0       -6.793802   -2.989602    1.550956
     83          6           0       -7.819089    1.297049    3.268621
     84          6           0       -7.737507    3.218806   -1.044277
     85          7           0       -6.425228   -1.668984   -0.582823
     86          6           0       -6.093527   -2.023191   -1.815239
     87          6           0       -5.760891   -3.530000   -1.983888
     88          6           0       -6.588958   -4.100650   -0.731875
     89          6           0       -6.576719   -2.858052    0.156087
     90          6           0       -8.033215   -4.433964   -1.067085
     91          6           0       -4.226243   -3.823168   -1.839269
     92          6           0       -3.792037   -5.217583   -2.296250
     93          1           0       -2.488101   -5.365469   -2.936823
     94          7           0       -6.760213   -0.629578    2.257105
     95          6           0       -6.757201   -1.954947    2.511421
     96          6           0       -6.801311   -2.083631    3.976230
     97          6           0       -6.996928   -0.728952    4.560441
     98          6           0       -7.225486    0.046339    3.357625
     99          6           0       -6.584486   -3.388866    4.685299
    100          6           0       -6.993251   -0.218306    5.969487
    101          8           0       -7.421158    0.953953    6.261972
    102          6           0       -6.561357   -1.164483    7.008577
    103          7           0       -7.843394    1.921034    1.020865
    104          6           0       -8.134567    2.168235    2.310064
    105          6           0       -8.694643    3.559586    2.485705
    106          6           0       -8.492601    4.285287    1.074988
    107          6           0       -7.906174    3.107438    0.266193
    108          6           0      -10.166119    3.637989    2.891927
    109          6           0       -7.721923    5.633879    1.081290
    110          6           0       -6.275765    5.400146    1.454627
    111          7           0       -6.690526    1.063109   -1.523182
    112          6           0       -7.185941    2.316455   -1.944792
    113          6           0       -7.032461    2.373771   -3.412983
    114          6           0       -6.475190    1.130773   -3.748949
    115          6           0       -6.312843    0.345825   -2.575492
    116          6           0       -7.432715    3.453499   -4.249714
    117          6           0       -5.997196    0.300103   -4.830717
    118          8           0       -5.809090    0.465642   -6.035264
    119          6           0       -5.790505   -1.176700   -4.280518
    120          6           0       -4.443407   -1.660379   -4.743000
    121          8           0       -3.402111   -1.118346   -4.332487
    122          8           0       -4.597392   -2.814021   -5.418119
    123          6           0       -3.287599   -3.339075   -5.887766
    124          1           0       -7.059065   -3.971283    1.944446
    125          1           0       -8.109254    1.749984    4.219478
    126          1           0       -7.935273    4.148925   -1.581343
    127          1           0       -6.122826   -3.974997   -2.902996
    128          1           0       -6.061312   -4.919287   -0.249389
    129          1           0       -8.297751   -4.120040   -2.065889
    130          1           0       -8.633556   -3.910538   -0.334511
    131          1           0       -8.221517   -5.499207   -0.905473
    132          1           0       -3.972881   -3.887446   -0.773241
    133          1           0       -3.646416   -3.078828   -2.349551
    134          1           0       -4.569105   -5.718539   -2.886290
    135          1           0       -3.675330   -5.851279   -1.413731
    136          1           0       -6.629495   -4.236482    3.990379
    137          1           0       -7.441718   -3.537458    5.350841
    138          1           0       -5.669053   -3.397737    5.280754
    139          1           0       -7.204031   -2.041417    6.988139
    140          1           0       -6.540588   -0.589897    7.936636
    141          1           0       -5.549668   -1.510060    6.768389
    142          1           0       -8.145212    4.104854    3.243273
    143          1           0       -9.454535    4.540176    0.606428
    144          1           0      -10.330801    4.203253    3.828632
    145          1           0      -10.549075    2.630274    2.983579
    146          1           0      -10.829192    4.070021    2.144342
    147          1           0       -8.134465    6.302279    1.841026
    148          1           0       -7.763391    6.159494    0.133134
    149          1           0       -6.304979    5.369611    2.547925
    150          1           0       -5.651453    6.217403    1.099139
    151          1           0       -5.933088    4.418804    1.106497
    152          1           0       -6.631831    3.610408   -4.959975
    153          1           0       -7.633089    4.352347   -3.670337
    154          1           0       -8.343537    3.034843   -4.686052
    155          1           0       -6.602626   -1.789442   -4.673709
    156          1           0       -3.367863   -3.475672   -6.970629
    157          1           0       -3.092167   -4.242022   -5.279281
    158          1           0       -2.430164   -2.679712   -5.820754
 ---------------------------------------------------------------------

 SCF Done:  E(RCAM-B3LYP) =  -4069.81143110     A.U. after   19 cycles

 Excitation energies and oscillator strengths:

 Excited State   1:      Singlet-A      1.6653 eV  744.52 nm  f=0.0089  <S**2>=0.000
     309 -> 315        0.11055
     310 -> 316       -0.13060
     311 -> 313        0.52508
     312 -> 314        0.44244
 This state for optimization and/or second-order correction.
 Total Energy, E(TD-HF/TD-DFT) =  -4069.75023272
 Copying the excited state density for this state as the 1-particle RhoCI density.

 Excited State   2:      Singlet-A      1.6891 eV  734.02 nm  f=0.7354  <S**2>=0.000
     309 -> 315        0.13583
     310 -> 316        0.11394
     311 -> 313       -0.44154
     312 -> 314        0.52386

 Excited State   3:      Singlet-A      2.1846 eV  567.55 nm  f=0.0450  <S**2>=0.000
     309 -> 314        0.21137
     310 -> 313        0.60731
     311 -> 316        0.25692

 Excited State   4:      Singlet-A      2.1923 eV  565.56 nm  f=0.1458  <S**2>=0.000
     309 -> 314        0.60502
     310 -> 313       -0.20989
     312 -> 315       -0.26304

 Excited State   5:      Singlet-A      2.7085 eV  457.77 nm  f=0.0000  <S**2>=0.000
     312 -> 313        0.70710

 The electronic state is 1-A.
 Alpha  occ. eigenvalues --  -46.87680 -46.87561 -19.26237 -19.26122 -19.19029
 Alpha  occ. eigenvalues --  -19.18846 -19.18751 -19.18649 -19.18030 -19.17940
 Alpha  occ. eigenvalues --  -14.42402 -14.42335 -14.41342 -14.41264 -14.39292
 Alpha  occ. eigenvalues --  -14.39257 -14.38497 -14.38463 -10.38964 -10.38912
 Alpha  occ. eigenvalues --  -10.35388 -10.35329 -10.34249 -10.34117 -10.31660
 Alpha  occ. eigenvalues --  -10.31519 -10.31281 -10.31207 -10.30932 -10.30799
 Alpha  occ. eigenvalues --  -10.30446 -10.30394 -10.30300 -10.30257 -10.30114
 Alpha  occ. eigenvalues --  -10.30055 -10.29811 -10.29798 -10.29518 -10.29346
 Alpha  occ. eigenvalues --  -10.29305 -10.29150 -10.28629 -10.28625 -10.28563
 Alpha  occ. eigenvalues --  -10.28410 -10.28308 -10.28249 -10.28048 -10.28002
 Alpha  occ. eigenvalues --  -10.27903 -10.27676 -10.27615 -10.27575 -10.27479
 Alpha  occ. eigenvalues --  -10.27434 -10.27423 -10.27400 -10.27393 -10.27387
 Alpha  occ. eigenvalues --  -10.27376 -10.27375 -10.27296 -10.27286 -10.27020
 Alpha  occ. eigenvalues --  -10.26943 -10.26588 -10.26572 -10.26381 -10.26377
 Alpha  occ. eigenvalues --  -10.26130 -10.26115 -10.26048 -10.25944 -10.25910
 Alpha  occ. eigenvalues --  -10.25838 -10.25734 -10.25696 -10.25377 -10.25332
 Alpha  occ. eigenvalues --  -10.24771 -10.24709 -10.24684 -10.24627 -10.24607
 Alpha  occ. eigenvalues --  -10.24597  -3.16422  -3.16311  -1.91303  -1.91193
 Alpha  occ. eigenvalues --   -1.90890  -1.90782  -1.90732  -1.90619  -1.16527
 Alpha  occ. eigenvalues --   -1.16470  -1.08544  -1.08483  -1.07156  -1.06903
 Alpha  occ. eigenvalues --   -1.06817  -1.06471  -1.04466  -1.04399  -1.03652
 Alpha  occ. eigenvalues --   -1.03568  -1.03120  -1.02943  -1.02298  -1.02014
 Alpha  occ. eigenvalues --   -0.91886  -0.91849  -0.89423  -0.89401  -0.89070
 Alpha  occ. eigenvalues --   -0.89057  -0.88196  -0.88132  -0.87742  -0.87689
 Alpha  occ. eigenvalues --   -0.87589  -0.87561  -0.87185  -0.87041  -0.84907
 Alpha  occ. eigenvalues --   -0.84869  -0.83846  -0.83786  -0.82899  -0.82862
 Alpha  occ. eigenvalues --   -0.82565  -0.82541  -0.81496  -0.81454  -0.80481
 Alpha  occ. eigenvalues --   -0.80348  -0.78694  -0.78546  -0.77112  -0.77052
 Alpha  occ. eigenvalues --   -0.76818  -0.76805  -0.75802  -0.75745  -0.74804
 Alpha  occ. eigenvalues --   -0.74717  -0.72660  -0.72602  -0.71565  -0.71490
 Alpha  occ. eigenvalues --   -0.69821  -0.69667  -0.68763  -0.68736  -0.67533
 Alpha  occ. eigenvalues --   -0.67509  -0.67111  -0.67110  -0.65175  -0.65167
 Alpha  occ. eigenvalues --   -0.64736  -0.64674  -0.64558  -0.64507  -0.64171
 Alpha  occ. eigenvalues --   -0.64112  -0.62176  -0.62162  -0.60351  -0.60256
 Alpha  occ. eigenvalues --   -0.59701  -0.59687  -0.58897  -0.58875  -0.58390
 Alpha  occ. eigenvalues --   -0.58329  -0.57447  -0.57445  -0.57203  -0.57145
 Alpha  occ. eigenvalues --   -0.56198  -0.56109  -0.55841  -0.55787  -0.55422
 Alpha  occ. eigenvalues --   -0.55366  -0.55232  -0.55152  -0.54404  -0.54389
 Alpha  occ. eigenvalues --   -0.53818  -0.53777  -0.53201  -0.53140  -0.53114
 Alpha  occ. eigenvalues --   -0.53050  -0.52802  -0.52794  -0.52667  -0.52596
 Alpha  occ. eigenvalues --   -0.52350  -0.52307  -0.51778  -0.51773  -0.51569
 Alpha  occ. eigenvalues --   -0.51504  -0.51102  -0.51077  -0.50504  -0.50406
 Alpha  occ. eigenvalues --   -0.49946  -0.49895  -0.49831  -0.49783  -0.49412
 Alpha  occ. eigenvalues --   -0.49405  -0.49108  -0.49099  -0.49009  -0.48980
 Alpha  occ. eigenvalues --   -0.48470  -0.48460  -0.48379  -0.48339  -0.48289
 Alpha  occ. eigenvalues --   -0.48259  -0.47592  -0.47506  -0.47196  -0.47033
 Alpha  occ. eigenvalues --   -0.46688  -0.46614  -0.46463  -0.46440  -0.46250
 Alpha  occ. eigenvalues --   -0.46176  -0.46044  -0.45988  -0.45719  -0.45687
 Alpha  occ. eigenvalues --   -0.45122  -0.45111  -0.44455  -0.44418  -0.44413
 Alpha  occ. eigenvalues --   -0.44384  -0.44046  -0.44037  -0.43987  -0.43981
 Alpha  occ. eigenvalues --   -0.43903  -0.43854  -0.43454  -0.43364  -0.43292
 Alpha  occ. eigenvalues --   -0.43280  -0.42914  -0.42831  -0.42798  -0.42592
 Alpha  occ. eigenvalues --   -0.42523  -0.42465  -0.41903  -0.41868  -0.41588
 Alpha  occ. eigenvalues --   -0.41570  -0.41421  -0.41366  -0.41034  -0.40898
 Alpha  occ. eigenvalues --   -0.40770  -0.40743  -0.40647  -0.40611  -0.40475
 Alpha  occ. eigenvalues --   -0.40403  -0.40136  -0.40116  -0.39358  -0.39334
 Alpha  occ. eigenvalues --   -0.38377  -0.38263  -0.37628  -0.37559  -0.37222
 Alpha  occ. eigenvalues --   -0.37174  -0.37143  -0.37103  -0.36659  -0.36574
 Alpha  occ. eigenvalues --   -0.36118  -0.36068  -0.34169  -0.34154  -0.33736
 Alpha  occ. eigenvalues --   -0.33607  -0.33077  -0.33068  -0.31281  -0.31207
 Alpha  occ. eigenvalues --   -0.30924  -0.30878  -0.29887  -0.29843  -0.29344
 Alpha  occ. eigenvalues --   -0.29236  -0.29196  -0.29108  -0.23965  -0.23938
 Alpha  occ. eigenvalues --   -0.21021  -0.21015
 Alpha virt. eigenvalues --   -0.08697  -0.08663  -0.01644  -0.01591   0.00038
 Alpha virt. eigenvalues --    0.00055   0.02310   0.02324   0.03275   0.03353
 Alpha virt. eigenvalues --    0.04822   0.04833   0.05260   0.05287   0.06270

 Mulliken charges:
               1
     1  Mg   0.839510
     2  C   -0.002636
     3  C   -0.094110
     4  C   -0.046113
     5  C   -0.063791
     6  N   -0.256717
     7  C   -0.052270
     8  C   -0.014056
     9  C   -0.087001
    10  C    0.046281
    11  C    0.104883
    12  C    0.053475
    13  C   -0.071780
    14  H    0.036376
    15  N   -0.432997
    16  C    0.168274
    17  C   -0.177384
    18  C   -0.004415
    19  C    0.148662
    20  C    0.110247
    21  C    0.011896
    22  O   -0.250383
    23  C    0.062649
    24  N   -0.341159
    25  C    0.041211
    26  C   -0.027992
    27  C   -0.023977
    28  C    0.075010
    29  C    0.076306
    30  C    0.035143
    31  C   -0.004211
    32  N   -0.310729
    33  C    0.081066
    34  C   -0.168807
    35  C    0.008668
    36  C    0.083668
    37  C    0.127108
    38  C    0.046823
    39  O   -0.187817
    40  C   -0.005624
    41  C    0.212833
    42  O   -0.256009
    43  O   -0.305083
    44  C    0.157594
    45  H   -0.017884
    46  H   -0.017471
    47  H   -0.041434
    48  H    0.000898
    49  H   -0.004137
    50  H    0.025409
    51  H    0.016272
    52  H    0.016427
    53  H    0.011253
    54  H    0.044705
    55  H    0.017649
    56  H    0.017766
    57  H    0.005866
    58  H    0.026413
    59  H    0.039103
    60  H    0.037405
    61  H    0.034747
    62  H    0.031224
    63  H    0.015939
    64  H    0.009310
    65  H    0.022620
    66  H    0.012549
    67  H    0.004600
    68  H    0.005482
    69  H    0.004897
    70  H    0.007709
    71  H    0.017974
    72  H    0.030385
    73  H    0.048738
    74  H    0.009151
    75  H    0.045707
    76  H    0.034921
    77  H    0.042795
    78  H    0.046122
    79  H    0.054269
    80  Mg   0.838317
    81  C   -0.016564
    82  C   -0.087739
    83  C   -0.045635
    84  C   -0.064857
    85  N   -0.254530
    86  C   -0.049690
    87  C   -0.015155
    88  C   -0.090552
    89  C    0.045748
    90  C    0.114436
    91  C    0.062462
    92  C   -0.077631
    93  H    0.034477
    94  N   -0.423349
    95  C    0.162833
    96  C   -0.174819
    97  C   -0.008078
    98  C    0.152087
    99  C    0.099461
   100  C    0.015330
   101  O   -0.253569
   102  C    0.061317
   103  N   -0.350082
   104  C    0.037471
   105  C   -0.019708
   106  C   -0.034871
   107  C    0.089093
   108  C    0.073768
   109  C    0.034744
   110  C   -0.007664
   111  N   -0.324285
   112  C    0.078867
   113  C   -0.162570
   114  C    0.002436
   115  C    0.096699
   116  C    0.131335
   117  C    0.042979
   118  O   -0.187436
   119  C    0.000659
   120  C    0.211200
   121  O   -0.249911
   122  O   -0.305864
   123  C    0.152020
   124  H   -0.019873
   125  H   -0.015920
   126  H   -0.040345
   127  H   -0.000791
   128  H   -0.004318
   129  H    0.022347
   130  H    0.014306
   131  H    0.016075
   132  H    0.014224
   133  H    0.038147
   134  H    0.020486
   135  H    0.019754
   136  H    0.008797
   137  H    0.025798
   138  H    0.039483
   139  H    0.038224
   140  H    0.035832
   141  H    0.033641
   142  H    0.014192
   143  H    0.012264
   144  H    0.024814
   145  H    0.011526
   146  H    0.005526
   147  H    0.005879
   148  H    0.003816
   149  H    0.010459
   150  H    0.018350
   151  H    0.030646
   152  H    0.046817
   153  H    0.008602
   154  H    0.046667
   155  H    0.034767
   156  H    0.043643
   157  H    0.049007
   158  H    0.053978
 Sum of Mulliken charges =  -0.00000

 Dipole moment (field-independent basis, Debye):
    X=              0.7185    Y=             -3.5114    Z=              6.2417  Tot=              7.1976
 Quadrupole moment (field-independent basis, Debye-Ang):
   XX=           -472.3185   YY=           -475.9684   ZZ=           -524.5414
   XY=             14.1284   XZ=             21.3040   YZ=             31.0415

 Normal termination of Gaussian 16 at Sat Sep 11 08:03:12 2021.
