 Gaussian 16, Revision A.03,
 Gaussian 16:  ES64L-G16RevA.03 25-Dec-2016

 -----------------------------------
 #p cam-b3lyp/Def2SVP td=(nstates=5)
 -----------------------------------

 --------------------------------
 TDDFT excited states in gaussian
 --------------------------------
 Symbolic Z-matrix:
 Charge =  0 Multiplicity = 1

                         Standard orientation:
 ---------------------------------------------------------------------
 Center     Atomic      Atomic             Coordinates (Angstroms)
 Number     Number       Type             X           Y           Z
 ---------------------------------------------------------------------
      1         12           0       -4.980200    0.741471    0.069106
      2          6           0       -5.353459   -2.382137    1.776725
      3          6           0       -5.755331    2.275595    3.016766
      4          6           0       -5.102701    3.485144   -1.516415
      5          6           0       -5.356179   -1.014813   -2.917492
      6          7           0       -5.470470   -0.059760    2.073678
      7          6           0       -5.521000   -1.274630    2.610993
      8          6           0       -5.693809   -1.258689    4.159301
      9          6           0       -6.365079    0.178193    4.322889
     10          6           0       -5.803092    0.851397    3.083175
     11          6           0       -7.886846    0.154797    4.221983
     12          6           0       -4.322847   -1.339523    4.911406
     13          6           0       -4.415641   -1.656837    6.406751
     14          1           0       -3.382585   -2.483267    7.012685
     15          7           0       -4.890634    2.603770    0.722306
     16          6           0       -5.229510    3.046047    1.957151
     17          6           0       -4.986349    4.504636    1.948612
     18          6           0       -4.659195    4.903222    0.551403
     19          6           0       -4.899852    3.668474   -0.150637
     20          6           0       -5.026732    5.352779    3.182619
     21          6           0       -4.212293    6.195115   -0.056399
     22          8           0       -4.207890    6.386517   -1.320487
     23          6           0       -3.859123    7.275366    0.882414
     24          7           0       -5.416355    1.215913   -1.916419
     25          6           0       -5.341010    2.476458   -2.357252
     26          6           0       -5.416257    2.536834   -3.854126
     27          6           0       -5.314548    1.026759   -4.363127
     28          6           0       -5.278602    0.316022   -2.987689
     29          6           0       -6.679417    3.187204   -4.435036
     30          6           0       -4.199579    0.704205   -5.389392
     31          6           0       -2.843429    0.845420   -4.735165
     32          7           0       -5.122000   -1.344291   -0.514448
     33          6           0       -5.297652   -1.846739   -1.811894
     34          6           0       -5.444938   -3.308980   -1.692613
     35          6           0       -5.360768   -3.555397   -0.323657
     36          6           0       -5.199107   -2.322378    0.370476
     37          6           0       -5.687208   -4.212374   -2.764815
     38          6           0       -5.394482   -4.571088    0.716099
     39          8           0       -5.415354   -5.802745    0.724835
     40          6           0       -5.513306   -3.840849    2.126226
     41          6           0       -4.495564   -4.459270    3.045502
     42          8           0       -3.273700   -4.312393    2.838520
     43          8           0       -5.111510   -4.920029    4.144980
     44          6           0       -4.154227   -5.520014    5.112338
     45          1           0       -6.213911    2.857069    3.818972
     46          1           0       -5.041264    4.397888   -2.112705
     47          1           0       -5.392217   -1.637314   -3.813397
     48          1           0       -6.360376   -2.027675    4.550164
     49          1           0       -6.019175    0.689060    5.221270
     50          1           0       -8.251359   -0.828495    3.925020
     51          1           0       -8.139912    0.898785    3.466382
     52          1           0       -8.341956    0.502994    5.149566
     53          1           0       -3.880336   -0.344593    4.959984
     54          1           0       -3.660788   -2.060319    4.430306
     55          1           0       -5.406054   -2.025474    6.675262
     56          1           0       -4.314549   -0.723587    6.960849
     57          1           0       -5.455088    4.812622    4.025997
     58          1           0       -5.732553    6.160681    2.990736
     59          1           0       -4.049193    5.768887    3.426757
     60          1           0       -4.721033    7.502778    1.510063
     61          1           0       -3.477899    8.092464    0.270965
     62          1           0       -3.077032    6.918539    1.553204
     63          1           0       -4.585238    3.108910   -4.264690
     64          1           0       -6.230893    0.697976   -4.853930
     65          1           0       -6.473848    4.030070   -5.095356
     66          1           0       -7.316383    3.487978   -3.603711
     67          1           0       -7.336318    2.506744   -4.976211
     68          1           0       -4.231060    1.410765   -6.218083
     69          1           0       -4.276081   -0.299943   -5.806627
     70          1           0       -2.645701    1.913916   -4.812961
     71          1           0       -2.095783    0.269245   -5.281295
     72          1           0       -2.885575    0.598238   -3.674217
     73          1           0       -5.035748   -5.069468   -2.594639
     74          1           0       -5.484778   -3.746179   -3.728811
     75          1           0       -6.746396   -4.422197   -2.616658
     76          1           0       -6.532390   -4.000567    2.477053
     77          1           0       -4.492080   -6.537553    5.309073
     78          1           0       -4.096582   -4.833731    5.957381
     79          1           0       -3.146104   -5.706201    4.740369
     80         12           0        5.576330    0.141332    0.022082
     81          6           0        3.538743   -1.610056   -2.356977
     82          6           0        4.384418    3.042918   -1.317600
     83          6           0        7.689845    1.710957    1.793177
     84          6           0        7.427823   -2.788880    0.384742
     85          7           0        4.149464    0.535833   -1.621282
     86          6           0        3.391312   -0.208399   -2.412289
     87          6           0        2.362971    0.591480   -3.256242
     88          6           0        3.114587    2.010556   -3.269391
     89          6           0        3.909213    1.878307   -1.971796
     90          6           0        4.097792    2.160196   -4.418422
     91          6           0        0.962352    0.689794   -2.555814
     92          6           0       -0.172454    1.186717   -3.454168
     93          1           0       -1.508297    0.629459   -3.260599
     94          7           0        5.636939    2.051273    0.557844
     95          6           0        5.079595    3.096063   -0.089490
     96          6           0        5.427261    4.289068    0.697918
     97          6           0        6.373537    3.882658    1.772220
     98          6           0        6.625185    2.506261    1.395020
     99          6           0        4.813157    5.635976    0.448622
    100          6           0        6.965267    4.615723    2.937840
    101          8           0        7.949366    4.137031    3.605093
    102          6           0        6.420101    5.952286    3.216949
    103          7           0        7.433528   -0.382405    0.795945
    104          6           0        8.121704    0.468273    1.577408
    105          6           0        9.290583   -0.222428    2.238499
    106          6           0        9.101661   -1.779622    1.926975
    107          6           0        7.850086   -1.707200    1.024923
    108          6           0       10.676649    0.224646    1.774446
    109          6           0        9.080253   -2.743445    3.144862
    110          6           0        7.840209   -2.499445    3.974399
    111          7           0        5.412672   -1.897953   -0.672605
    112          6           0        6.311275   -2.958489   -0.423930
    113          6           0        5.836746   -4.122312   -1.200313
    114          6           0        4.698998   -3.647649   -1.870173
    115          6           0        4.491521   -2.278570   -1.550716
    116          6           0        6.468640   -5.396404   -1.259522
    117          6           0        3.632442   -3.990513   -2.783196
    118          8           0        3.245799   -5.029752   -3.316324
    119          6           0        2.906595   -2.651598   -3.237999
    120          6           0        1.422365   -2.863955   -3.117685
    121          8           0        0.897126   -3.038836   -2.004072
    122          8           0        0.843221   -2.610088   -4.305333
    123          6           0       -0.630550   -2.796354   -4.233662
    124          1           0        4.250098    4.006193   -1.810481
    125          1           0        8.387723    2.173922    2.494684
    126          1           0        7.894060   -3.767034    0.520848
    127          1           0        2.229340    0.232101   -4.269535
    128          1           0        2.407141    2.832874   -3.201150
    129          1           0        4.216000    1.239376   -4.970031
    130          1           0        5.036198    2.453510   -3.966303
    131          1           0        3.800600    2.992456   -5.062889
    132          1           0        0.987238    1.502000   -1.817945
    133          1           0        0.689748   -0.249604   -2.115552
    134          1           0        0.102709    1.165430   -4.515664
    135          1           0       -0.344198    2.244978   -3.242969
    136          1           0        4.279613    5.663682   -0.509484
    137          1           0        5.638334    6.344888    0.320606
    138          1           0        4.183968    5.971637    1.275741
    139          1           0        6.549815    6.585104    2.342205
    140          1           0        6.905599    6.279312    4.138483
    141          1           0        5.340786    5.862212    3.382976
    142          1           0        9.271344   -0.073783    3.311173
    143          1           0        9.917251   -2.171983    1.301907
    144          1           0       11.317100    0.588300    2.600066
    145          1           0       10.553561    0.992423    1.022183
    146          1           0       11.251223   -0.531002    1.241467
    147          1           0        9.934130   -2.547410    3.798014
    148          1           0        9.121157   -3.791383    2.867119
    149          1           0        8.127156   -1.651680    4.603712
    150          1           0        7.603118   -3.374882    4.575596
    151          1           0        7.003424   -2.174559    3.345190
    152          1           0        5.683785   -6.137070   -1.182617
    153          1           0        7.204799   -5.512328   -0.466805
    154          1           0        6.934449   -5.337404   -2.246852
    155          1           0        3.209018   -2.447923   -4.265926
    156          1           0       -0.900170   -3.514396   -5.014305
    157          1           0       -1.064038   -1.781550   -4.311203
    158          1           0       -1.032067   -3.281870   -3.351896
 ---------------------------------------------------------------------

 SCF Done:  E(RCAM-B3LYP) =  -4069.79257455     A.U. after   19 cycles

 Excitation energies and oscillator strengths:

 Excited State   1:      Singlet-A      1.6536 eV  749.78 nm  f=0.0085  <S**2>=0.000
     309 -> 315       -0.11044
     310 -> 316       -0.12539
     311 -> 313       -0.45284
     312 -> 314        0.51706
 This state for optimization and/or second-order correction.
 Total Energy, E(TD-HF/TD-DFT) =  -4069.73180524
 Copying the excited state density for this state as the 1-particle RhoCI density.

 Excited State   2:      Singlet-A      1.6977 eV  730.29 nm  f=0.7070  <S**2>=0.000
     309 -> 315        0.13467
     310 -> 316       -0.11720
     311 -> 313        0.51486
     312 -> 314        0.45107

 Excited State   3:      Singlet-A      2.1818 eV  568.26 nm  f=0.0651  <S**2>=0.000
     309 -> 313        0.27464
     310 -> 314        0.58299
     311 -> 315       -0.11396
     312 -> 316        0.24244

 Excited State   4:      Singlet-A      2.1927 eV  565.44 nm  f=0.1295  <S**2>=0.000
     309 -> 313        0.57902
     310 -> 314       -0.27203
     311 -> 315       -0.25246
     312 -> 316       -0.11858

 Excited State   5:      Singlet-A      2.4239 eV  511.50 nm  f=0.0000  <S**2>=0.000
     312 -> 313        0.70671

 The electronic state is 1-A.
 Alpha  occ. eigenvalues --  -46.87959 -46.87333 -19.26130 -19.26019 -19.19037
 Alpha  occ. eigenvalues --  -19.18839 -19.18719 -19.18482 -19.18182 -19.17720
 Alpha  occ. eigenvalues --  -14.42600 -14.42127 -14.41676 -14.41049 -14.39572
 Alpha  occ. eigenvalues --  -14.39037 -14.38725 -14.38274 -10.38926 -10.38674
 Alpha  occ. eigenvalues --  -10.35671 -10.35166 -10.34398 -10.33892 -10.31576
 Alpha  occ. eigenvalues --  -10.31528 -10.31503 -10.31024 -10.30927 -10.30720
 Alpha  occ. eigenvalues --  -10.30695 -10.30633 -10.30492 -10.30152 -10.30082
 Alpha  occ. eigenvalues --  -10.30021 -10.29865 -10.29806 -10.29588 -10.29445
 Alpha  occ. eigenvalues --  -10.29147 -10.29088 -10.28786 -10.28481 -10.28477
 Alpha  occ. eigenvalues --  -10.28182 -10.28108 -10.28083 -10.27926 -10.27921
 Alpha  occ. eigenvalues --  -10.27886 -10.27815 -10.27758 -10.27700 -10.27656
 Alpha  occ. eigenvalues --  -10.27639 -10.27532 -10.27324 -10.27281 -10.27224
 Alpha  occ. eigenvalues --  -10.27167 -10.27154 -10.27137 -10.27133 -10.26730
 Alpha  occ. eigenvalues --  -10.26700 -10.26667 -10.26656 -10.26644 -10.26300
 Alpha  occ. eigenvalues --  -10.26289 -10.26255 -10.25992 -10.25924 -10.25748
 Alpha  occ. eigenvalues --  -10.25729 -10.25715 -10.25648 -10.25637 -10.25566
 Alpha  occ. eigenvalues --  -10.25190 -10.24988 -10.24942 -10.24562 -10.24518
 Alpha  occ. eigenvalues --  -10.24384  -3.16701  -3.16083  -1.91582  -1.91170
 Alpha  occ. eigenvalues --   -1.91011  -1.90965  -1.90553  -1.90391  -1.16479
 Alpha  occ. eigenvalues --   -1.16288  -1.08618  -1.08319  -1.07443  -1.06740
 Alpha  occ. eigenvalues --   -1.06526  -1.06471  -1.04721  -1.04129  -1.03964
 Alpha  occ. eigenvalues --   -1.03408  -1.03330  -1.02732  -1.02583  -1.01794
 Alpha  occ. eigenvalues --   -0.92078  -0.91649  -0.89931  -0.89253  -0.89213
 Alpha  occ. eigenvalues --   -0.88648  -0.88606  -0.88008  -0.87946  -0.87826
 Alpha  occ. eigenvalues --   -0.87477  -0.87456  -0.87267  -0.86855  -0.85093
 Alpha  occ. eigenvalues --   -0.84566  -0.84363  -0.83622  -0.83231  -0.82778
 Alpha  occ. eigenvalues --   -0.82703  -0.82237  -0.81641  -0.81267  -0.80709
 Alpha  occ. eigenvalues --   -0.80106  -0.78969  -0.78346  -0.77623  -0.77060
 Alpha  occ. eigenvalues --   -0.76797  -0.76434  -0.75997  -0.75488  -0.75179
 Alpha  occ. eigenvalues --   -0.74534  -0.72996  -0.72380  -0.71836  -0.71264
 Alpha  occ. eigenvalues --   -0.70808  -0.69506  -0.69009  -0.68362  -0.67797
 Alpha  occ. eigenvalues --   -0.67305  -0.67277  -0.66657  -0.65443  -0.65114
 Alpha  occ. eigenvalues --   -0.64857  -0.64722  -0.64568  -0.64449  -0.64199
 Alpha  occ. eigenvalues --   -0.63919  -0.62331  -0.61970  -0.60659  -0.60067
 Alpha  occ. eigenvalues --   -0.59900  -0.59353  -0.59161  -0.58670  -0.58655
 Alpha  occ. eigenvalues --   -0.58105  -0.57688  -0.57443  -0.57212  -0.56947
 Alpha  occ. eigenvalues --   -0.56474  -0.55961  -0.55907  -0.55797  -0.55598
 Alpha  occ. eigenvalues --   -0.55538  -0.55165  -0.54968  -0.54682  -0.54197
 Alpha  occ. eigenvalues --   -0.53965  -0.53742  -0.53417  -0.53362  -0.53254
 Alpha  occ. eigenvalues --   -0.52975  -0.52938  -0.52815  -0.52787  -0.52548
 Alpha  occ. eigenvalues --   -0.52318  -0.52149  -0.52050  -0.51689  -0.51583
 Alpha  occ. eigenvalues --   -0.51533  -0.51182  -0.50865  -0.50830  -0.50518
 Alpha  occ. eigenvalues --   -0.50234  -0.50086  -0.49684  -0.49622  -0.49595
 Alpha  occ. eigenvalues --   -0.49342  -0.49206  -0.49146  -0.48887  -0.48782
 Alpha  occ. eigenvalues --   -0.48652  -0.48623  -0.48574  -0.48374  -0.48116
 Alpha  occ. eigenvalues --   -0.48079  -0.47997  -0.47481  -0.47418  -0.47219
 Alpha  occ. eigenvalues --   -0.46842  -0.46654  -0.46619  -0.46453  -0.46364
 Alpha  occ. eigenvalues --   -0.46022  -0.45982  -0.45913  -0.45795  -0.45684
 Alpha  occ. eigenvalues --   -0.45462  -0.45220  -0.44900  -0.44656  -0.44489
 Alpha  occ. eigenvalues --   -0.44224  -0.44177  -0.44096  -0.43999  -0.43907
 Alpha  occ. eigenvalues --   -0.43769  -0.43618  -0.43567  -0.43480  -0.43421
 Alpha  occ. eigenvalues --   -0.43226  -0.43099  -0.42900  -0.42613  -0.42610
 Alpha  occ. eigenvalues --   -0.42567  -0.42406  -0.42258  -0.41872  -0.41673
 Alpha  occ. eigenvalues --   -0.41595  -0.41361  -0.41325  -0.41244  -0.41021
 Alpha  occ. eigenvalues --   -0.40875  -0.40781  -0.40630  -0.40431  -0.40293
 Alpha  occ. eigenvalues --   -0.40223  -0.40121  -0.39595  -0.39343  -0.39083
 Alpha  occ. eigenvalues --   -0.38764  -0.37957  -0.37817  -0.37585  -0.37333
 Alpha  occ. eigenvalues --   -0.37044  -0.36903  -0.36844  -0.36432  -0.36250
 Alpha  occ. eigenvalues --   -0.35930  -0.34646  -0.34409  -0.33878  -0.33674
 Alpha  occ. eigenvalues --   -0.33435  -0.33292  -0.32845  -0.31566  -0.31179
 Alpha  occ. eigenvalues --   -0.31040  -0.30638  -0.30036  -0.29619  -0.29613
 Alpha  occ. eigenvalues --   -0.29433  -0.29034  -0.28898  -0.24248  -0.23709
 Alpha  occ. eigenvalues --   -0.21308  -0.20790
 Alpha virt. eigenvalues --   -0.08939  -0.08480  -0.01956  -0.01369  -0.00211
 Alpha virt. eigenvalues --    0.00273   0.02069   0.02521   0.02685   0.03585
 Alpha virt. eigenvalues --    0.04581   0.05214   0.05266   0.05570   0.06116

 Mulliken charges:
               1
     1  Mg   0.839594
     2  C   -0.000563
     3  C   -0.093061
     4  C   -0.047666
     5  C   -0.067052
     6  N   -0.256355
     7  C   -0.051748
     8  C   -0.014212
     9  C   -0.087160
    10  C    0.046498
    11  C    0.104734
    12  C    0.053334
    13  C   -0.072203
    14  H    0.037761
    15  N   -0.433149
    16  C    0.168407
    17  C   -0.176735
    18  C   -0.004505
    19  C    0.149083
    20  C    0.110041
    21  C    0.011476
    22  O   -0.250837
    23  C    0.062698
    24  N   -0.340689
    25  C    0.040334
    26  C   -0.029308
    27  C   -0.027771
    28  C    0.070826
    29  C    0.076463
    30  C    0.089076
    31  C   -0.079803
    32  N   -0.310828
    33  C    0.079481
    34  C   -0.170129
    35  C    0.010549
    36  C    0.085590
    37  C    0.125888
    38  C    0.048994
    39  O   -0.185876
    40  C   -0.006497
    41  C    0.212520
    42  O   -0.252611
    43  O   -0.305681
    44  C    0.157208
    45  H   -0.017047
    46  H   -0.017801
    47  H   -0.043038
    48  H    0.001516
    49  H   -0.003571
    50  H    0.025787
    51  H    0.016029
    52  H    0.017024
    53  H    0.011212
    54  H    0.046307
    55  H    0.017611
    56  H    0.017660
    57  H    0.006530
    58  H    0.026952
    59  H    0.039422
    60  H    0.038091
    61  H    0.034877
    62  H    0.031009
    63  H    0.014641
    64  H    0.011599
    65  H    0.023096
    66  H    0.013773
    67  H    0.005297
    68  H    0.004328
    69  H    0.001260
    70  H    0.023651
    71  H    0.042069
    72  H    0.054891
    73  H    0.050083
    74  H    0.006356
    75  H    0.047024
    76  H    0.035223
    77  H    0.042931
    78  H    0.045819
    79  H    0.055767
    80  Mg   0.837647
    81  C   -0.016194
    82  C   -0.087747
    83  C   -0.046181
    84  C   -0.065640
    85  N   -0.255211
    86  C   -0.047248
    87  C   -0.015662
    88  C   -0.090759
    89  C    0.046523
    90  C    0.114917
    91  C    0.092957
    92  C   -0.124220
    93  H    0.057522
    94  N   -0.423241
    95  C    0.162478
    96  C   -0.175270
    97  C   -0.008693
    98  C    0.151932
    99  C    0.099566
   100  C    0.014858
   101  O   -0.254095
   102  C    0.061638
   103  N   -0.350191
   104  C    0.037278
   105  C   -0.019559
   106  C   -0.034799
   107  C    0.089176
   108  C    0.073964
   109  C    0.034906
   110  C   -0.007549
   111  N   -0.324360
   112  C    0.079056
   113  C   -0.162923
   114  C    0.002452
   115  C    0.097021
   116  C    0.131290
   117  C    0.043579
   118  O   -0.187548
   119  C    0.000288
   120  C    0.211902
   121  O   -0.246461
   122  O   -0.307201
   123  C    0.153222
   124  H   -0.019986
   125  H   -0.016567
   126  H   -0.041044
   127  H   -0.003976
   128  H   -0.002994
   129  H    0.021308
   130  H    0.013169
   131  H    0.015242
   132  H    0.005596
   133  H    0.031376
   134  H    0.009449
   135  H    0.012011
   136  H    0.009310
   137  H    0.025309
   138  H    0.038014
   139  H    0.038090
   140  H    0.035272
   141  H    0.032824
   142  H    0.013721
   143  H    0.011916
   144  H    0.024354
   145  H    0.011495
   146  H    0.005142
   147  H    0.005494
   148  H    0.003497
   149  H    0.010288
   150  H    0.017557
   151  H    0.030926
   152  H    0.046777
   153  H    0.008063
   154  H    0.046276
   155  H    0.033888
   156  H    0.041555
   157  H    0.042017
   158  H    0.058717
 Sum of Mulliken charges =  -0.00000

 Dipole moment (field-independent basis, Debye):
    X=             -2.8433    Y=              6.8659    Z=              1.4558  Tot=              7.5726
 Quadrupole moment (field-independent basis, Debye-Ang):
   XX=           -486.1114   YY=           -538.6958   ZZ=           -469.1923
   XY=            -23.1193   XZ=            -17.1427   YZ=             -8.3118

 Normal termination of Gaussian 16 at Fri Sep 10 16:24:12 2021.
