 Gaussian 16, Revision A.03,
 Gaussian 16:  ES64L-G16RevA.03 25-Dec-2016

 -----------------------------------
 #p cam-b3lyp/Def2SVP td=(nstates=5)
 -----------------------------------

 --------------------------------
 TDDFT excited states in gaussian
 --------------------------------
 Symbolic Z-matrix:
 Charge =  0 Multiplicity = 1

                         Standard orientation:
 ---------------------------------------------------------------------
 Center     Atomic      Atomic             Coordinates (Angstroms)
 Number     Number       Type             X           Y           Z
 ---------------------------------------------------------------------
      1         12           0        3.357923    1.287198    0.611098
      2          6           0        4.419405   -1.780796   -0.896510
      3          6           0        4.277796    2.852210   -2.278130
      4          6           0        2.855421    4.053722    2.077543
      5          6           0        3.594021   -0.318250    3.695325
      6          7           0        4.224503    0.523999   -1.277608
      7          6           0        4.527803   -0.680864   -1.750350
      8          6           0        4.900069   -0.675215   -3.263215
      9          6           0        5.363534    0.843908   -3.402736
     10          6           0        4.547374    1.451370   -2.275440
     11          6           0        6.844557    1.058597   -3.107811
     12          6           0        3.668822   -0.985010   -4.179615
     13          6           0        4.005743   -1.319626   -5.635593
     14          1           0        3.198181   -2.310084   -6.331426
     15          7           0        3.077010    3.097157   -0.129162
     16          6           0        3.506344    3.557033   -1.328943
     17          6           0        3.047838    4.960237   -1.415381
     18          6           0        2.482118    5.336537   -0.090068
     19          6           0        2.810293    4.170929    0.690340
     20          6           0        3.123645    5.774824   -2.670152
     21          6           0        1.769567    6.557838    0.398633
     22          8           0        1.568834    6.776266    1.642244
     23          6           0        1.385779    7.547817   -0.623957
     24          7           0        3.450597    1.870485    2.613303
     25          6           0        3.128921    3.114327    2.985278
     26          6           0        2.995033    3.221202    4.475442
     27          6           0        3.054758    1.726109    5.033011
     28          6           0        3.308756    0.985855    3.696681
     29          6           0        4.057801    4.072769    5.183516
     30          6           0        1.874753    1.259469    5.921974
     31          6           0        0.611674    1.173605    5.094715
     32          7           0        3.732822   -0.737048    1.298795
     33          6           0        3.808314   -1.175274    2.628807
     34          6           0        4.188127   -2.599550    2.593456
     35          6           0        4.324259   -2.888511    1.237059
     36          6           0        4.072689   -1.712203    0.474626
     37          6           0        4.419001   -3.428834    3.726337
     38          6           0        4.647799   -3.911201    0.255588
     39          8           0        4.854457   -5.124660    0.303562
     40          6           0        4.841529   -3.205120   -1.158536
     41          6           0        4.059278   -3.995216   -2.172016
     42          8           0        2.812683   -4.034232   -2.129056
     43          8           0        4.877783   -4.381170   -3.162789
     44          6           0        4.158371   -5.144848   -4.217016
     45          1           0        4.746108    3.478374   -3.040063
     46          1           0        2.579007    4.959897    2.620570
     47          1           0        3.604027   -0.906197    4.614929
     48          1           0        5.720490   -1.340911   -3.531878
     49          1           0        5.067049    1.273605   -4.359386
     50          1           0        7.310022    0.150870   -2.724021
     51          1           0        6.880490    1.850534   -2.359455
     52          1           0        7.361149    1.450839   -3.984199
     53          1           0        3.092249   -0.071947   -4.327735
     54          1           0        3.064681   -1.787892   -3.755682
     55          1           0        5.067062   -1.536903   -5.759297
     56          1           0        3.839978   -0.426694   -6.238413
     57          1           0        3.736327    5.287526   -3.427585
     58          1           0        3.668312    6.686517   -2.425480
     59          1           0        2.135802    6.028786   -3.054861
     60          1           0        2.279283    7.890824   -1.146016
     61          1           0        0.808426    8.310419   -0.102467
     62          1           0        0.762138    7.058453   -1.372651
     63          1           0        2.040467    3.667446    4.751301
     64          1           0        3.936812    1.554798    5.650512
     65          1           0        3.642185    4.889155    5.774685
     66          1           0        4.746917    4.448593    4.427760
     67          1           0        4.731833    3.515179    5.833279
     68          1           0        1.689525    1.981902    6.716157
     69          1           0        2.045232    0.289452    6.389152
     70          1           0        0.247103    2.200198    5.099785
     71          1           0       -0.106672    0.501868    5.565842
     72          1           0        0.830821    0.910753    4.059646
     73          1           0        3.932104   -4.380185    3.512257
     74          1           0        4.022776   -2.976769    4.635318
     75          1           0        5.507876   -3.475753    3.723695
     76          1           0        5.910466   -3.213575   -1.369306
     77          1           0        4.668343   -6.102266   -4.324318
     78          1           0        4.110867   -4.496038   -5.091770
     79          1           0        3.149339   -5.475837   -3.968743
     80         12           0       -4.337028   -0.383264   -0.350657
     81          6           0       -1.394236   -2.280679    0.436036
     82          6           0       -2.326555    2.363675   -0.567154
     83          6           0       -6.955741    1.390816   -0.600503
     84          6           0       -6.210298   -2.979051    1.027200
     85          7           0       -2.157690   -0.119685   -0.080013
     86          6           0       -1.131750   -0.923306    0.156598
     87          6           0        0.259420   -0.250270    0.010880
     88          6           0       -0.181938    1.272247    0.267802
     89          6           0       -1.637676    1.184613   -0.185881
     90          6           0       -0.161940    1.665118    1.735658
     91          6           0        0.866911   -0.437950   -1.423605
     92          6           0        2.348877   -0.076887   -1.546679
     93          1           0        3.183983   -0.862746   -2.450828
     94          7           0       -4.574832    1.467361   -1.026814
     95          6           0       -3.646765    2.446525   -1.061623
     96          6           0       -4.323994    3.622750   -1.629091
     97          6           0       -5.771062    3.306662   -1.773327
     98          6           0       -5.828140    2.021975   -1.105184
     99          6           0       -3.587729    4.861510   -2.049569
    100          6           0       -6.916638    4.045087   -2.396713
    101          8           0       -8.132849    3.692835   -2.197806
    102          6           0       -6.577624    5.248185   -3.170738
    103          7           0       -6.284680   -0.640663    0.329609
    104          6           0       -7.242891    0.256559    0.038477
    105          6           0       -8.611848   -0.272692    0.393821
    106          6           0       -8.394441   -1.813749    0.761885
    107          6           0       -6.856939   -1.889440    0.636359
    108          6           0       -9.317576    0.432247    1.552008
    109          6           0       -9.251408   -2.850521   -0.014894
    110          6           0       -8.837146   -2.877038   -1.468535
    111          7           0       -3.928581   -2.367238    0.401067
    112          6           0       -4.855375   -3.276597    0.956219
    113          6           0       -4.087298   -4.446202    1.430050
    114          6           0       -2.753871   -4.123544    1.136186
    115          6           0       -2.693061   -2.834579    0.540890
    116          6           0       -4.629896   -5.588748    2.082973
    117          6           0       -1.382873   -4.575737    1.203879
    118          8           0       -0.829360   -5.625140    1.529610
    119          6           0       -0.429077   -3.349173    0.868927
    120          6           0        0.594020   -3.815673   -0.130165
    121          8           0        0.249756   -4.153972   -1.276307
    122          8           0        1.825648   -3.579989    0.357619
    123          6           0        2.874693   -4.015665   -0.602330
    124          1           0       -1.824793    3.322897   -0.436666
    125          1           0       -7.901037    1.914042   -0.762153
    126          1           0       -6.730975   -3.872111    1.379356
    127          1           0        0.991078   -0.554998    0.749520
    128          1           0        0.374579    1.957236   -0.366575
    129          1           0        0.032745    0.818238    2.376778
    130          1           0       -1.139975    2.079417    1.942647
    131          1           0        0.550639    2.478791    1.898431
    132          1           0        0.434002    0.313093   -2.096856
    133          1           0        0.708194   -1.438339   -1.776689
    134          1           0        2.831569    0.022874   -0.566879
    135          1           0        2.427743    0.920040   -1.987049
    136          1           0       -2.558709    4.866379   -1.669447
    137          1           0       -4.068088    5.706142   -1.543884
    138          1           0       -3.624884    5.027875   -3.128279
    139          1           0       -6.053197    5.953584   -2.530540
    140          1           0       -7.517408    5.586629   -3.611357
    141          1           0       -5.879524    4.966708   -3.967000
    142          1           0       -9.284286   -0.205020   -0.452552
    143          1           0       -8.634173   -2.018727    1.815615
    144          1           0      -10.308648    0.839461    1.276289
    145          1           0       -8.671290    1.219311    1.917233
    146          1           0       -9.465503   -0.176899    2.442101
    147          1           0      -10.304764   -2.560182    0.002393
    148          1           0       -9.187402   -3.854598    0.390945
    149          1           0       -9.393943   -2.039404   -1.899139
    150          1           0       -9.122274   -3.819852   -1.930983
    151          1           0       -7.769443   -2.653961   -1.577629
    152          1           0       -4.149236   -6.454242    1.646642
    153          1           0       -5.711125   -5.634713    1.970752
    154          1           0       -4.332673   -5.383226    3.114811
    155          1           0        0.029693   -3.025992    1.804159
    156          1           0        3.527735   -4.712225   -0.067518
    157          1           0        3.335528   -3.085172   -0.983873
    158          1           0        2.562735   -4.622368   -1.444380
 ---------------------------------------------------------------------

 SCF Done:  E(RCAM-B3LYP) =  -4069.02873305     A.U. after   25 cycles

 Excitation energies and oscillator strengths:

 Excited State   1:      Singlet-A      0.9774 eV 1268.52 nm  f=0.0999  <S**2>=0.000
     311 -> 315        0.12351
     312 -> 314        0.59950
     312 -> 315        0.34318
     312 <- 314       -0.13814
     312 <- 315       -0.12946
 This state for optimization and/or second-order correction.
 Total Energy, E(TD-HF/TD-DFT) =  -4068.99281458
 Copying the excited state density for this state as the 1-particle RhoCI density.

 Excited State   2:      Singlet-A      1.3700 eV  905.02 nm  f=0.1114  <S**2>=0.000
     310 -> 313       -0.13136
     311 -> 314        0.35316
     311 -> 315        0.10113
     312 -> 314       -0.32672
     312 -> 315        0.46600

 Excited State   3:      Singlet-A      1.5066 eV  822.96 nm  f=0.0011  <S**2>=0.000
     312 -> 313        0.69575

 Excited State   4:      Singlet-A      1.5341 eV  808.17 nm  f=0.0590  <S**2>=0.000
     311 -> 314        0.55940
     312 -> 314        0.14104
     312 -> 315       -0.30592
     312 -> 317       -0.14959

 Excited State   5:      Singlet-A      1.6729 eV  741.12 nm  f=0.4071  <S**2>=0.000
     309 -> 316        0.16672
     310 -> 313        0.65569
     310 -> 314       -0.10202
     311 -> 313        0.12064
     309 <- 316        0.10050

 The electronic state is 1-A.
 Alpha  occ. eigenvalues --  -46.87769 -46.87466 -19.33361 -19.28617 -19.26887
 Alpha  occ. eigenvalues --  -19.20140 -19.18590 -19.18016 -19.18002 -19.15822
 Alpha  occ. eigenvalues --  -14.42194 -14.41203 -14.41182 -14.39745 -14.39162
 Alpha  occ. eigenvalues --  -14.38538 -14.38529 -14.38438 -10.39911 -10.38835
 Alpha  occ. eigenvalues --  -10.36239 -10.35268 -10.34679 -10.34342 -10.34206
 Alpha  occ. eigenvalues --  -10.33523 -10.31834 -10.31062 -10.30773 -10.30441
 Alpha  occ. eigenvalues --  -10.30244 -10.30212 -10.30173 -10.29968 -10.29958
 Alpha  occ. eigenvalues --  -10.29744 -10.29516 -10.29478 -10.29326 -10.29251
 Alpha  occ. eigenvalues --  -10.29250 -10.29079 -10.28777 -10.28710 -10.28696
 Alpha  occ. eigenvalues --  -10.28570 -10.28488 -10.28479 -10.28248 -10.28139
 Alpha  occ. eigenvalues --  -10.27852 -10.27536 -10.27416 -10.27406 -10.27393
 Alpha  occ. eigenvalues --  -10.27350 -10.27316 -10.27308 -10.27280 -10.27251
 Alpha  occ. eigenvalues --  -10.27076 -10.27039 -10.26883 -10.26706 -10.26610
 Alpha  occ. eigenvalues --  -10.26490 -10.26313 -10.26250 -10.26059 -10.25987
 Alpha  occ. eigenvalues --  -10.25900 -10.25769 -10.25760 -10.25565 -10.25269
 Alpha  occ. eigenvalues --  -10.25266 -10.25056 -10.24950 -10.24798 -10.24742
 Alpha  occ. eigenvalues --  -10.24711 -10.24705 -10.24684 -10.24522 -10.24117
 Alpha  occ. eigenvalues --  -10.23247  -3.16603  -3.16218  -1.91457  -1.91138
 Alpha  occ. eigenvalues --   -1.91100  -1.90876  -1.90687  -1.90526  -1.35210
 Alpha  occ. eigenvalues --   -1.17837  -1.16692  -1.12212  -1.08735  -1.07842
 Alpha  occ. eigenvalues --   -1.06843  -1.06539  -1.06439  -1.04230  -1.03449
 Alpha  occ. eigenvalues --   -1.03127  -1.02870  -1.02801  -1.01935  -1.01660
 Alpha  occ. eigenvalues --   -0.95807  -0.91953  -0.90954  -0.89777  -0.89361
 Alpha  occ. eigenvalues --   -0.89176  -0.88682  -0.88400  -0.88041  -0.87641
 Alpha  occ. eigenvalues --   -0.87528  -0.87409  -0.87323  -0.86959  -0.86546
 Alpha  occ. eigenvalues --   -0.85622  -0.84767  -0.84290  -0.83654  -0.83188
 Alpha  occ. eigenvalues --   -0.82773  -0.82509  -0.82214  -0.82045  -0.81158
 Alpha  occ. eigenvalues --   -0.80846  -0.80171  -0.78976  -0.78488  -0.78425
 Alpha  occ. eigenvalues --   -0.78051  -0.77163  -0.76574  -0.76149  -0.75258
 Alpha  occ. eigenvalues --   -0.74834  -0.74377  -0.72646  -0.72590  -0.71850
 Alpha  occ. eigenvalues --   -0.71527  -0.70514  -0.70126  -0.69762  -0.69424
 Alpha  occ. eigenvalues --   -0.69265  -0.68323  -0.68144  -0.67624  -0.67252
 Alpha  occ. eigenvalues --   -0.66747  -0.65879  -0.65327  -0.64706  -0.64501
 Alpha  occ. eigenvalues --   -0.64483  -0.64110  -0.63661  -0.63214  -0.62161
 Alpha  occ. eigenvalues --   -0.61608  -0.60717  -0.60183  -0.59756  -0.59495
 Alpha  occ. eigenvalues --   -0.59041  -0.58747  -0.58308  -0.58107  -0.57504
 Alpha  occ. eigenvalues --   -0.57288  -0.57126  -0.56940  -0.56567  -0.56239
 Alpha  occ. eigenvalues --   -0.56042  -0.55903  -0.55446  -0.55283  -0.55112
 Alpha  occ. eigenvalues --   -0.54836  -0.54683  -0.54287  -0.53887  -0.53540
 Alpha  occ. eigenvalues --   -0.53405  -0.53344  -0.53090  -0.52774  -0.52652
 Alpha  occ. eigenvalues --   -0.52384  -0.52333  -0.52281  -0.52180  -0.51947
 Alpha  occ. eigenvalues --   -0.51726  -0.51556  -0.51467  -0.51235  -0.50651
 Alpha  occ. eigenvalues --   -0.50356  -0.50224  -0.50057  -0.49928  -0.49835
 Alpha  occ. eigenvalues --   -0.49718  -0.49669  -0.49500  -0.49134  -0.49102
 Alpha  occ. eigenvalues --   -0.48992  -0.48881  -0.48739  -0.48268  -0.48215
 Alpha  occ. eigenvalues --   -0.48196  -0.48066  -0.47844  -0.47639  -0.47443
 Alpha  occ. eigenvalues --   -0.47324  -0.46976  -0.46898  -0.46715  -0.46660
 Alpha  occ. eigenvalues --   -0.46577  -0.46254  -0.46193  -0.46053  -0.45996
 Alpha  occ. eigenvalues --   -0.45780  -0.45634  -0.45333  -0.45257  -0.44931
 Alpha  occ. eigenvalues --   -0.44756  -0.44642  -0.44314  -0.44264  -0.44106
 Alpha  occ. eigenvalues --   -0.44088  -0.43915  -0.43849  -0.43618  -0.43601
 Alpha  occ. eigenvalues --   -0.43367  -0.43271  -0.43001  -0.42707  -0.42430
 Alpha  occ. eigenvalues --   -0.42369  -0.42179  -0.42024  -0.41876  -0.41832
 Alpha  occ. eigenvalues --   -0.41677  -0.41560  -0.41321  -0.41152  -0.40813
 Alpha  occ. eigenvalues --   -0.40674  -0.40604  -0.40410  -0.40287  -0.40096
 Alpha  occ. eigenvalues --   -0.39810  -0.39490  -0.39293  -0.39058  -0.38712
 Alpha  occ. eigenvalues --   -0.38471  -0.37954  -0.37588  -0.37239  -0.37174
 Alpha  occ. eigenvalues --   -0.36974  -0.36490  -0.36280  -0.36158  -0.35696
 Alpha  occ. eigenvalues --   -0.34969  -0.34613  -0.34273  -0.33978  -0.33398
 Alpha  occ. eigenvalues --   -0.32997  -0.31232  -0.31139  -0.30800  -0.30573
 Alpha  occ. eigenvalues --   -0.30349  -0.29928  -0.29432  -0.29176  -0.29074
 Alpha  occ. eigenvalues --   -0.28597  -0.28281  -0.24212  -0.23845  -0.20910
 Alpha  occ. eigenvalues --   -0.20677  -0.18204
 Alpha virt. eigenvalues --   -0.08625  -0.08473  -0.03419  -0.01503  -0.01223
 Alpha virt. eigenvalues --    0.00135   0.00534   0.02304   0.02584   0.03368
 Alpha virt. eigenvalues --    0.03891   0.04568   0.04686   0.05264   0.06420

 Mulliken charges:
               1
     1  Mg   0.548849
     2  C    0.003962
     3  C   -0.082573
     4  C   -0.064386
     5  C   -0.080957
     6  N   -0.275717
     7  C   -0.117652
     8  C   -0.077061
     9  C   -0.030034
    10  C    0.027150
    11  C    0.108786
    12  C    0.056944
    13  C   -0.039678
    14  H    0.040192
    15  N   -0.425674
    16  C    0.156360
    17  C   -0.184002
    18  C   -0.015249
    19  C    0.147021
    20  C    0.112597
    21  C    0.004139
    22  O   -0.253425
    23  C    0.065053
    24  N   -0.317957
    25  C    0.037015
    26  C   -0.022551
    27  C   -0.025311
    28  C    0.082041
    29  C    0.079009
    30  C    0.041643
    31  C   -0.013766
    32  N   -0.306410
    33  C    0.074707
    34  C   -0.215957
    35  C    0.101969
    36  C    0.049468
    37  C    0.130937
    38  C   -0.082830
    39  O   -0.245718
    40  C    0.179967
    41  C    0.009061
    42  O    0.077766
    43  O   -0.279388
    44  C    0.147062
    45  H   -0.023238
    46  H   -0.024505
    47  H   -0.049189
    48  H    0.002526
    49  H   -0.010909
    50  H    0.023831
    51  H    0.023384
    52  H    0.013617
    53  H    0.026480
    54  H    0.055837
    55  H    0.022420
    56  H    0.023530
    57  H    0.000801
    58  H    0.023392
    59  H    0.031787
    60  H    0.037091
    61  H    0.032043
    62  H    0.024250
    63  H    0.011138
    64  H    0.007701
    65  H    0.020086
    66  H    0.012443
    67  H    0.002074
    68  H    0.003753
    69  H    0.002068
    70  H    0.008624
    71  H    0.015059
    72  H    0.030510
    73  H    0.042734
    74  H    0.008174
    75  H    0.043207
    76  H    0.012921
    77  H    0.060577
    78  H    0.055662
    79  H    0.049425
    80  Mg   0.836342
    81  C   -0.020716
    82  C   -0.090296
    83  C   -0.045962
    84  C   -0.065300
    85  N   -0.257613
    86  C   -0.027312
    87  C   -0.072247
    88  C   -0.148570
    89  C    0.061079
    90  C    0.100309
    91  C    0.196068
    92  C   -0.146311
    93  H    0.118959
    94  N   -0.423965
    95  C    0.163057
    96  C   -0.173257
    97  C   -0.008325
    98  C    0.152680
    99  C    0.098544
   100  C    0.015261
   101  O   -0.253492
   102  C    0.061471
   103  N   -0.349908
   104  C    0.037739
   105  C   -0.019907
   106  C   -0.034503
   107  C    0.088391
   108  C    0.073649
   109  C    0.034949
   110  C   -0.007480
   111  N   -0.323466
   112  C    0.077509
   113  C   -0.164212
   114  C    0.003435
   115  C    0.093577
   116  C    0.131808
   117  C    0.038331
   118  O   -0.188576
   119  C    0.001697
   120  C    0.242614
   121  O   -0.264882
   122  O   -0.266586
   123  C    0.208814
   124  H   -0.011018
   125  H   -0.015993
   126  H   -0.041408
   127  H    0.040819
   128  H    0.047641
   129  H    0.038465
   130  H    0.010366
   131  H    0.053756
   132  H   -0.015554
   133  H    0.006705
   134  H    0.069725
   135  H    0.077908
   136  H    0.010806
   137  H    0.027691
   138  H    0.037373
   139  H    0.039008
   140  H    0.035821
   141  H    0.032750
   142  H    0.013770
   143  H    0.012197
   144  H    0.024711
   145  H    0.012347
   146  H    0.005513
   147  H    0.005908
   148  H    0.003223
   149  H    0.010709
   150  H    0.016984
   151  H    0.029883
   152  H    0.044605
   153  H    0.008084
   154  H    0.046823
   155  H    0.040159
   156  H    0.111641
   157  H    0.005560
   158  H   -0.065084
 Sum of Mulliken charges =  -0.00000

 Dipole moment (field-independent basis, Debye):
    X=              1.5528    Y=              1.5178    Z=             -5.8747  Tot=              6.2631
 Quadrupole moment (field-independent basis, Debye-Ang):
   XX=           -510.8562   YY=           -543.3245   ZZ=           -472.6788
   XY=             22.5495   XZ=            -37.1193   YZ=             -3.3999

 Normal termination of Gaussian 16 at Thu Sep  9 02:38:30 2021.
