 Gaussian 16, Revision A.03,
 Gaussian 16:  ES64L-G16RevA.03 25-Dec-2016

 -----------------------------------
 #p cam-b3lyp/Def2SVP td=(nstates=5)
 -----------------------------------

 --------------------------------
 TDDFT excited states in gaussian
 --------------------------------
 Symbolic Z-matrix:
 Charge =  0 Multiplicity = 1

                         Standard orientation:
 ---------------------------------------------------------------------
 Center     Atomic      Atomic             Coordinates (Angstroms)
 Number     Number       Type             X           Y           Z
 ---------------------------------------------------------------------
      1         12           0       -3.937630   -0.328757    0.325586
      2          6           0       -3.736672    3.243635    0.226347
      3          6           0       -5.017184   -0.209301   -2.909126
      4          6           0       -4.555609   -3.432359    0.531443
      5          6           0       -3.946690   -0.084345    3.802056
      6          7           0       -4.289913    1.362606   -1.058550
      7          6           0       -4.117473    2.679096   -0.993051
      8          6           0       -4.306323    3.395867   -2.363434
      9          6           0       -5.236643    2.320141   -3.084071
     10          6           0       -4.797890    1.076430   -2.331339
     11          6           0       -6.725929    2.541909   -2.840458
     12          6           0       -2.952412    3.585444   -3.126791
     13          6           0       -2.999666    4.557174   -4.309525
     14          1           0       -1.836406    5.388542   -4.579713
     15          7           0       -4.205457   -1.678539   -1.091879
     16          6           0       -4.634055   -1.450610   -2.356647
     17          6           0       -4.668468   -2.771934   -3.019671
     18          6           0       -4.407272   -3.808384   -1.982540
     19          6           0       -4.404947   -3.006077   -0.786013
     20          6           0       -4.879929   -2.948455   -4.492042
     21          6           0       -4.204085   -5.288701   -2.056769
     22          8           0       -4.222463   -6.030808   -1.015849
     23          6           0       -4.069410   -5.866453   -3.406253
     24          7           0       -4.434265   -1.574743    1.925119
     25          6           0       -4.591896   -2.891493    1.751030
     26          6           0       -4.661530   -3.611515    3.065054
     27          6           0       -4.273337   -2.535951    4.179604
     28          6           0       -4.119162   -1.294834    3.266298
     29          6           0       -6.018071   -4.239909    3.412800
     30          6           0       -3.107046   -2.900118    5.132268
     31          6           0       -1.808275   -2.947108    4.358909
     32          7           0       -3.679957    1.256906    1.785148
     33          6           0       -3.744814    1.136823    3.180873
     34          6           0       -3.616699    2.496040    3.737817
     35          6           0       -3.502104    3.319562    2.619548
     36          6           0       -3.581615    2.528007    1.438273
     37          6           0       -3.674198    2.840293    5.117171
     38          6           0       -3.355706    4.686833    2.147326
     39          8           0       -3.145484    5.773327    2.688464
     40          6           0       -3.623953    4.706282    0.577774
     41          6           0       -2.517980    5.500091   -0.062538
     42          8           0       -1.343200    5.079092   -0.058408
     43          8           0       -3.048084    6.502781   -0.779577
     44          6           0       -2.005450    7.312074   -1.465226
     45          1           0       -5.584938   -0.280246   -3.838944
     46          1           0       -4.660103   -4.512670    0.651632
     47          1           0       -3.856099    0.060326    4.880164
     48          1           0       -4.821006    4.355236   -2.307435
     49          1           0       -5.001980    2.224095   -4.143991
     50          1           0       -6.896600    3.327846   -2.104866
     51          1           0       -7.106053    1.588216   -2.473758
     52          1           0       -7.247865    2.731692   -3.778723
     53          1           0       -2.704723    2.663921   -3.653579
     54          1           0       -2.162030    3.891153   -2.440377
     55          1           0       -3.906191    5.162821   -4.291797
     56          1           0       -3.081034    3.974548   -5.227199
     57          1           0       -5.208231   -2.022884   -4.963297
     58          1           0       -5.722610   -3.628805   -4.613374
     59          1           0       -4.000285   -3.360944   -4.986421
     60          1           0       -4.965157   -5.640918   -3.985321
     61          1           0       -3.841718   -6.921761   -3.260197
     62          1           0       -3.241335   -5.376357   -3.919135
     63          1           0       -3.948211   -4.433999    3.098567
     64          1           0       -5.106670   -2.321855    4.849225
     65          1           0       -5.967232   -5.311456    3.607499
     66          1           0       -6.708741   -4.022736    2.598489
     67          1           0       -6.530142   -3.782666    4.259044
     68          1           0       -3.261747   -3.890164    5.559845
     69          1           0       -2.989665   -2.197250    5.957162
     70          1           0       -1.813489   -3.950700    3.935106
     71          1           0       -0.960252   -2.811520    5.030983
     72          1           0       -1.814400   -2.242194    3.527318
     73          1           0       -2.875468    3.562717    5.284807
     74          1           0       -3.552692    1.961464    5.750021
     75          1           0       -4.676785    3.263336    5.178088
     76          1           0       -4.598648    5.170893    0.432080
     77          1           0       -2.148659    8.347748   -1.156833
     78          1           0       -2.086241    7.084928   -2.528373
     79          1           0       -0.976477    7.142719   -1.146052
     80         12           0        3.938548   -1.232850   -0.193790
     81          6           0        4.175455    2.301185    0.383712
     82          6           0        2.932184   -0.495509   -3.368400
     83          6           0        3.288028   -4.312144   -0.596481
     84          6           0        3.845793   -1.651294    3.264821
     85          7           0        3.632533    0.692009   -1.239507
     86          6           0        3.813299    1.969128   -0.938416
     87          6           0        3.671818    2.939840   -2.141436
     88          6           0        2.739380    2.027644   -3.078102
     89          6           0        3.146491    0.649621   -2.560412
     90          6           0        1.254512    2.216816   -2.815954
     91          6           0        5.049424    3.246820   -2.826995
     92          6           0        5.031987    4.421096   -3.808072
     93          1           0        6.215362    5.272189   -3.896064
     94          7           0        3.692576   -2.286631   -1.857406
     95          6           0        3.301460   -1.824000   -3.063335
     96          6           0        3.254478   -2.997936   -3.948686
     97          6           0        3.490266   -4.215533   -3.126139
     98          6           0        3.478517   -3.641210   -1.795689
     99          6           0        3.083755   -2.889026   -5.436106
    100          6           0        3.680459   -5.659938   -3.477878
    101          8           0        3.633060   -6.581474   -2.588300
    102          6           0        3.830682   -5.972484   -4.906596
    103          7           0        3.401109   -2.744988    1.127926
    104          6           0        3.227995   -4.007891    0.700108
    105          6           0        3.118024   -4.966957    1.861358
    106          6           0        3.496910   -4.114251    3.160168
    107          6           0        3.681762   -2.726939    2.507032
    108          6           0        1.748595   -5.616054    2.060664
    109          6           0        4.638488   -4.667151    4.056714
    110          6           0        5.954960   -4.598869    3.316710
    111          7           0        4.182219    0.041091    1.534144
    112          6           0        4.078419   -0.333711    2.891654
    113          6           0        4.208023    0.899340    3.694892
    114          6           0        4.356372    1.917043    2.740548
    115          6           0        4.301435    1.360279    1.434223
    116          6           0        4.132933    0.979414    5.114075
    117          6           0        4.536301    3.337075    2.540967
    118          8           0        4.737660    4.299592    3.280401
    119          6           0        4.300467    3.665213    1.003730
    120          6           0        5.427784    4.545679    0.538463
    121          8           0        6.593290    4.113469    0.501192
    122          8           0        4.917323    5.673598    0.011596
    123          6           0        5.996429    6.574405   -0.474101
    124          1           0        2.392278   -0.373931   -4.307872
    125          1           0        3.170123   -5.395330   -0.675786
    126          1           0        3.925495   -1.710055    4.352420
    127          1           0        3.171336    3.873693   -1.915183
    128          1           0        3.006466    2.135435   -4.126143
    129          1           0        1.073972    2.848363   -1.958811
    130          1           0        0.857191    1.224811   -2.645377
    131          1           0        0.757380    2.589957   -3.715929
    132          1           0        5.296177    2.429407   -3.516688
    133          1           0        5.814835    3.401679   -2.091601
    134          1           0        4.126558    5.031342   -3.704498
    135          1           0        4.972453    4.023520   -4.824146
    136          1           0        2.769036   -1.880691   -5.732118
    137          1           0        2.237283   -3.528675   -5.708487
    138          1           0        3.967370   -3.218660   -5.986762
    139          1           0        2.953077   -5.624963   -5.446514
    140          1           0        4.045304   -7.041998   -4.950777
    141          1           0        4.685103   -5.410341   -5.299743
    142          1           0        3.823747   -5.782044    1.757911
    143          1           0        2.646135   -4.025217    3.851608
    144          1           0        1.783854   -6.721809    2.049153
    145          1           0        1.081682   -5.248841    1.291951
    146          1           0        1.229645   -5.328420    2.973448
    147          1           0        4.464522   -5.721783    4.283950
    148          1           0        4.735598   -4.145576    5.003035
    149          1           0        5.943209   -5.507799    2.707783
    150          1           0        6.788357   -4.603242    4.016343
    151          1           0        5.977443   -3.743406    2.631635
    152          1           0        4.927170    1.642184    5.430969
    153          1           0        4.226549   -0.002531    5.573195
    154          1           0        3.128401    1.394147    5.233146
    155          1           0        3.332452    4.160596    0.919247
    156          1           0        5.853660    7.539887    0.021027
    157          1           0        5.924356    6.558832   -1.577884
    158          1           0        7.014162    6.337726   -0.186587
 ---------------------------------------------------------------------

 SCF Done:  E(RCAM-B3LYP) =  -4069.81202435     A.U. after   19 cycles

 Excitation energies and oscillator strengths:

 Excited State   1:      Singlet-A      1.6383 eV  756.78 nm  f=0.0049  <S**2>=0.000
     309 -> 315       -0.11292
     310 -> 316        0.11929
     311 -> 313       -0.46996
     312 -> 314        0.50285
 This state for optimization and/or second-order correction.
 Total Energy, E(TD-HF/TD-DFT) =  -4069.75181712
 Copying the excited state density for this state as the 1-particle RhoCI density.

 Excited State   2:      Singlet-A      1.7105 eV  724.84 nm  f=0.6753  <S**2>=0.000
     309 -> 315        0.13453
     310 -> 316        0.12384
     311 -> 313        0.49948
     312 -> 314        0.46681

 Excited State   3:      Singlet-A      2.1767 eV  569.61 nm  f=0.0149  <S**2>=0.000
     309 -> 313       -0.31802
     310 -> 314        0.56299
     311 -> 315        0.12925
     312 -> 316       -0.23052

 Excited State   4:      Singlet-A      2.1986 eV  563.94 nm  f=0.1529  <S**2>=0.000
     309 -> 313        0.55623
     310 -> 314        0.31172
     311 -> 315       -0.24748
     312 -> 316       -0.14032

 Excited State   5:      Singlet-A      2.2284 eV  556.39 nm  f=0.0000  <S**2>=0.000
     312 -> 313        0.70708

 The electronic state is 1-A.
 Alpha  occ. eigenvalues --  -46.87927 -46.87369 -19.26522 -19.25959 -19.19298
 Alpha  occ. eigenvalues --  -19.18876 -19.18786 -19.18499 -19.18267 -19.17663
 Alpha  occ. eigenvalues --  -14.42598 -14.42192 -14.41583 -14.41069 -14.39526
 Alpha  occ. eigenvalues --  -14.39069 -14.38709 -14.38294 -10.39336 -10.38700
 Alpha  occ. eigenvalues --  -10.35509 -10.35185 -10.34497 -10.33825 -10.31913
 Alpha  occ. eigenvalues --  -10.31561 -10.31433 -10.31074 -10.30975 -10.30706
 Alpha  occ. eigenvalues --  -10.30703 -10.30620 -10.30334 -10.30101 -10.30053
 Alpha  occ. eigenvalues --  -10.30041 -10.29898 -10.29744 -10.29593 -10.29372
 Alpha  occ. eigenvalues --  -10.29180 -10.29119 -10.28991 -10.28932 -10.28495
 Alpha  occ. eigenvalues --  -10.28428 -10.28325 -10.28321 -10.28089 -10.27902
 Alpha  occ. eigenvalues --  -10.27873 -10.27754 -10.27707 -10.27697 -10.27636
 Alpha  occ. eigenvalues --  -10.27632 -10.27572 -10.27550 -10.27387 -10.27339
 Alpha  occ. eigenvalues --  -10.27318 -10.27299 -10.27198 -10.27156 -10.27120
 Alpha  occ. eigenvalues --  -10.27065 -10.26559 -10.26450 -10.26409 -10.26400
 Alpha  occ. eigenvalues --  -10.26353 -10.26290 -10.26148 -10.25962 -10.25897
 Alpha  occ. eigenvalues --  -10.25668 -10.25579 -10.25537 -10.25466 -10.25108
 Alpha  occ. eigenvalues --  -10.24943 -10.24911 -10.24905 -10.24560 -10.24556
 Alpha  occ. eigenvalues --  -10.24390  -3.16669  -3.16119  -1.91550  -1.91138
 Alpha  occ. eigenvalues --   -1.91002  -1.90979  -1.90590  -1.90427  -1.16872
 Alpha  occ. eigenvalues --   -1.16257  -1.08730  -1.08254  -1.07271  -1.06895
 Alpha  occ. eigenvalues --   -1.06756  -1.06569  -1.04731  -1.04179  -1.03894
 Alpha  occ. eigenvalues --   -1.03366  -1.03356  -1.02751  -1.02538  -1.01813
 Alpha  occ. eigenvalues --   -0.92115  -0.91633  -0.89661  -0.89410  -0.89228
 Alpha  occ. eigenvalues --   -0.88785  -0.88425  -0.87973  -0.87959  -0.87836
 Alpha  occ. eigenvalues --   -0.87501  -0.87392  -0.87384  -0.86904  -0.85188
 Alpha  occ. eigenvalues --   -0.84680  -0.84083  -0.83617  -0.83070  -0.82823
 Alpha  occ. eigenvalues --   -0.82737  -0.82344  -0.81761  -0.81269  -0.80748
 Alpha  occ. eigenvalues --   -0.80138  -0.78914  -0.78386  -0.77385  -0.77131
 Alpha  occ. eigenvalues --   -0.76862  -0.76576  -0.76098  -0.75486  -0.75038
 Alpha  occ. eigenvalues --   -0.74511  -0.72903  -0.72408  -0.71819  -0.71250
 Alpha  occ. eigenvalues --   -0.70063  -0.69524  -0.69059  -0.68518  -0.67779
 Alpha  occ. eigenvalues --   -0.67429  -0.67313  -0.66936  -0.65488  -0.65008
 Alpha  occ. eigenvalues --   -0.64933  -0.64792  -0.64470  -0.64411  -0.64338
 Alpha  occ. eigenvalues --   -0.63935  -0.62481  -0.61945  -0.60556  -0.60097
 Alpha  occ. eigenvalues --   -0.59988  -0.59454  -0.59130  -0.58688  -0.58647
 Alpha  occ. eigenvalues --   -0.58113  -0.57750  -0.57445  -0.57172  -0.56939
 Alpha  occ. eigenvalues --   -0.56442  -0.56185  -0.55926  -0.55644  -0.55556
 Alpha  occ. eigenvalues --   -0.55496  -0.55178  -0.54955  -0.54703  -0.54185
 Alpha  occ. eigenvalues --   -0.54117  -0.53574  -0.53428  -0.53384  -0.53105
 Alpha  occ. eigenvalues --   -0.52966  -0.52894  -0.52845  -0.52607  -0.52601
 Alpha  occ. eigenvalues --   -0.52424  -0.52179  -0.52006  -0.51809  -0.51592
 Alpha  occ. eigenvalues --   -0.51361  -0.51343  -0.50889  -0.50681  -0.50295
 Alpha  occ. eigenvalues --   -0.50183  -0.50052  -0.49700  -0.49672  -0.49609
 Alpha  occ. eigenvalues --   -0.49361  -0.49269  -0.49200  -0.48884  -0.48758
 Alpha  occ. eigenvalues --   -0.48719  -0.48590  -0.48547  -0.48230  -0.48121
 Alpha  occ. eigenvalues --   -0.48060  -0.47852  -0.47435  -0.47307  -0.46955
 Alpha  occ. eigenvalues --   -0.46868  -0.46763  -0.46497  -0.46424  -0.46301
 Alpha  occ. eigenvalues --   -0.46243  -0.46007  -0.45970  -0.45784  -0.45490
 Alpha  occ. eigenvalues --   -0.45335  -0.44917  -0.44721  -0.44669  -0.44290
 Alpha  occ. eigenvalues --   -0.44265  -0.44202  -0.44186  -0.44149  -0.43828
 Alpha  occ. eigenvalues --   -0.43792  -0.43660  -0.43642  -0.43556  -0.43230
 Alpha  occ. eigenvalues --   -0.43170  -0.43070  -0.42895  -0.42818  -0.42612
 Alpha  occ. eigenvalues --   -0.42552  -0.42308  -0.42185  -0.41850  -0.41736
 Alpha  occ. eigenvalues --   -0.41691  -0.41324  -0.41291  -0.41157  -0.41071
 Alpha  occ. eigenvalues --   -0.40950  -0.40721  -0.40664  -0.40497  -0.40489
 Alpha  occ. eigenvalues --   -0.40406  -0.40199  -0.39934  -0.39610  -0.39204
 Alpha  occ. eigenvalues --   -0.38630  -0.38081  -0.38014  -0.37467  -0.37449
 Alpha  occ. eigenvalues --   -0.37369  -0.36991  -0.36927  -0.36887  -0.36430
 Alpha  occ. eigenvalues --   -0.36373  -0.35913  -0.34421  -0.34012  -0.33951
 Alpha  occ. eigenvalues --   -0.33498  -0.33325  -0.32880  -0.31412  -0.31172
 Alpha  occ. eigenvalues --   -0.31055  -0.30660  -0.30131  -0.29556  -0.29556
 Alpha  occ. eigenvalues --   -0.29428  -0.29065  -0.28897  -0.24218  -0.23726
 Alpha  occ. eigenvalues --   -0.21258  -0.20824
 Alpha virt. eigenvalues --   -0.08896  -0.08500  -0.01878  -0.01400  -0.00168
 Alpha virt. eigenvalues --    0.00240   0.02084   0.02388   0.02639   0.03617
 Alpha virt. eigenvalues --    0.04501   0.04783   0.05058   0.05553   0.05816

 Mulliken charges:
               1
     1  Mg   0.838600
     2  C   -0.003986
     3  C   -0.095361
     4  C   -0.045243
     5  C   -0.063570
     6  N   -0.256625
     7  C   -0.053400
     8  C   -0.013312
     9  C   -0.086872
    10  C    0.045971
    11  C    0.104791
    12  C    0.050160
    13  C   -0.071930
    14  H    0.033678
    15  N   -0.433358
    16  C    0.168531
    17  C   -0.177661
    18  C   -0.003271
    19  C    0.149163
    20  C    0.110370
    21  C    0.013745
    22  O   -0.248700
    23  C    0.062332
    24  N   -0.340889
    25  C    0.041096
    26  C   -0.028578
    27  C   -0.023900
    28  C    0.074648
    29  C    0.076046
    30  C    0.035234
    31  C   -0.007711
    32  N   -0.310755
    33  C    0.080671
    34  C   -0.168975
    35  C    0.008983
    36  C    0.083208
    37  C    0.126980
    38  C    0.046667
    39  O   -0.186841
    40  C   -0.005993
    41  C    0.214127
    42  O   -0.259310
    43  O   -0.304285
    44  C    0.157123
    45  H   -0.017845
    46  H   -0.016343
    47  H   -0.041220
    48  H    0.001360
    49  H   -0.004982
    50  H    0.025828
    51  H    0.017023
    52  H    0.016693
    53  H    0.010510
    54  H    0.045383
    55  H    0.019630
    56  H    0.017383
    57  H    0.005134
    58  H    0.027336
    59  H    0.038346
    60  H    0.036728
    61  H    0.037190
    62  H    0.031183
    63  H    0.016726
    64  H    0.009925
    65  H    0.023536
    66  H    0.012766
    67  H    0.004964
    68  H    0.006257
    69  H    0.005013
    70  H    0.010087
    71  H    0.016857
    72  H    0.031217
    73  H    0.049203
    74  H    0.009057
    75  H    0.046220
    76  H    0.035559
    77  H    0.044507
    78  H    0.045414
    79  H    0.053571
    80  Mg   0.836679
    81  C   -0.015260
    82  C   -0.088255
    83  C   -0.045657
    84  C   -0.065929
    85  N   -0.254891
    86  C   -0.046843
    87  C   -0.015383
    88  C   -0.091842
    89  C    0.046093
    90  C    0.107536
    91  C    0.062693
    92  C   -0.076806
    93  H    0.033528
    94  N   -0.423378
    95  C    0.162753
    96  C   -0.176325
    97  C   -0.008462
    98  C    0.151692
    99  C    0.100423
   100  C    0.014691
   101  O   -0.253315
   102  C    0.061644
   103  N   -0.350370
   104  C    0.037333
   105  C   -0.020105
   106  C   -0.034876
   107  C    0.089651
   108  C    0.072941
   109  C    0.034785
   110  C   -0.007425
   111  N   -0.324663
   112  C    0.079525
   113  C   -0.163116
   114  C    0.004273
   115  C    0.095713
   116  C    0.130976
   117  C    0.044429
   118  O   -0.186595
   119  C   -0.000916
   120  C    0.210183
   121  O   -0.252544
   122  O   -0.303769
   123  C    0.152502
   124  H   -0.021893
   125  H   -0.015785
   126  H   -0.041699
   127  H    0.004081
   128  H   -0.007067
   129  H    0.040977
   130  H    0.011761
   131  H    0.011685
   132  H    0.012845
   133  H    0.037404
   134  H    0.020439
   135  H    0.018206
   136  H    0.007530
   137  H    0.022902
   138  H    0.039006
   139  H    0.036429
   140  H    0.035779
   141  H    0.033671
   142  H    0.013802
   143  H    0.011555
   144  H    0.024983
   145  H    0.014191
   146  H    0.004877
   147  H    0.005649
   148  H    0.002833
   149  H    0.010814
   150  H    0.017332
   151  H    0.030529
   152  H    0.045811
   153  H    0.007076
   154  H    0.048316
   155  H    0.046177
   156  H    0.043718
   157  H    0.048299
   158  H    0.052644
 Sum of Mulliken charges =  -0.00000

 Dipole moment (field-independent basis, Debye):
    X=             -4.9827    Y=             -1.3965    Z=             -6.8833  Tot=              8.6114
 Quadrupole moment (field-independent basis, Debye-Ang):
   XX=           -519.5874   YY=           -548.2304   ZZ=           -450.8241
   XY=             -7.6087   XZ=             -1.4645   YZ=            -47.2059

 Normal termination of Gaussian 16 at Fri Sep  3 12:08:21 2021.
