 Gaussian 16, Revision A.03,
 Gaussian 16:  ES64L-G16RevA.03 25-Dec-2016

 -----------------------------------
 #p cam-b3lyp/Def2SVP td=(nstates=5)
 -----------------------------------

 --------------------------------
 TDDFT excited states in gaussian
 --------------------------------
 Symbolic Z-matrix:
 Charge =  0 Multiplicity = 1

                         Standard orientation:
 ---------------------------------------------------------------------
 Center     Atomic      Atomic             Coordinates (Angstroms)
 Number     Number       Type             X           Y           Z
 ---------------------------------------------------------------------
      1         12           0        6.852751    0.290614    0.158003
      2          6           0        6.866101   -3.096125   -1.000459
      3          6           0        7.728254    1.219737   -3.006375
      4          6           0        7.290452    3.231993    1.259516
      5          6           0        7.099435   -0.971751    3.397022
      6          7           0        7.219105   -0.881679   -1.683778
      7          6           0        7.132567   -2.167668   -2.009225
      8          6           0        7.277033   -2.429065   -3.538334
      9          6           0        8.091321   -1.119056   -3.941829
     10          6           0        7.625958   -0.192462   -2.832421
     11          6           0        9.603971   -1.286384   -3.839874
     12          6           0        5.891258   -2.488696   -4.264834
     13          6           0        5.922395   -3.059431   -5.685625
     14          1           0        4.797598   -3.861301   -6.142993
     15          7           0        6.945676    2.016441   -0.798937
     16          6           0        7.305618    2.207731   -2.090888
     17          6           0        7.216115    3.664677   -2.327484
     18          6           0        6.958574    4.323514   -1.016873
     19          6           0        7.082258    3.204981   -0.117449
     20          6           0        7.321593    4.285580   -3.686566
     21          6           0        6.660328    5.738783   -0.634517
     22          8           0        6.699615    6.138088    0.579396
     23          6           0        6.404212    6.678233   -1.741260
     24          7           0        7.373163    1.041225    2.035073
     25          6           0        7.437981    2.358493    2.257754
     26          6           0        7.547169    2.659819    3.723093
     27          6           0        7.298079    1.275426    4.478847
     28          6           0        7.162416    0.352723    3.242529
     29          6           0        8.881942    3.260545    4.185177
     30          6           0        6.174988    1.248880    5.545797
     31          6           0        4.828936    1.421693    4.878432
     32          7           0        6.787152   -1.671431    1.083811
     33          6           0        6.933738   -1.965766    2.447099
     34          6           0        6.925449   -3.434636    2.575236
     35          6           0        6.790383   -3.896005    1.267283
     36          6           0        6.745219   -2.786217    0.375867
     37          6           0        7.092236   -4.166686    3.783838
     38          6           0        6.698476   -5.068924    0.413075
     39          8           0        6.590606   -6.279904    0.611533
     40          6           0        6.866352   -4.601336   -1.099871
     41          6           0        5.772604   -5.253289   -1.901109
     42          8           0        4.576820   -4.945254   -1.720606
     43          8           0        6.316409   -5.953924   -2.908049
     44          6           0        5.283800   -6.602245   -3.759842
     45          1           0        8.229856    1.607078   -3.895365
     46          1           0        7.335741    4.232838    1.693907
     47          1           0        7.087143   -1.436065    4.384805
     48          1           0        7.852314   -3.318792   -3.794971
     49          1           0        7.783802   -0.731747   -4.912986
     50          1           0        9.869443   -2.239243   -3.382156
     51          1           0        9.947377   -0.457666   -3.220365
     52          1           0       10.075442   -1.148291   -4.813230
     53          1           0        5.554097   -1.474662   -4.479586
     54          1           0        5.166769   -3.044697   -3.668759
     55          1           0        6.863748   -3.570597   -5.889274
     56          1           0        5.908819   -2.226505   -6.388654
     57          1           0        7.675386    3.569788   -4.427524
     58          1           0        8.111300    5.034779   -3.633928
     59          1           0        6.388380    4.756254   -3.996262
     60          1           0        7.273219    6.704939   -2.399031
     61          1           0        6.121822    7.621742   -1.275539
     62          1           0        5.576731    6.299251   -2.341758
     63          1           0        6.788194    3.377247    4.032416
     64          1           0        8.184175    0.938051    5.017072
     65          1           0        8.777821    4.218866    4.694574
     66          1           0        9.531103    3.348967    3.314510
     67          1           0        9.474321    2.614354    4.832434
     68          1           0        6.295524    2.076604    6.243860
     69          1           0        6.154152    0.326194    6.125855
     70          1           0        4.745223    2.503016    4.775653
     71          1           0        4.035646    1.027388    5.514377
     72          1           0        4.825170    0.997654    3.874110
     73          1           0        6.351860   -4.966237    3.760816
     74          1           0        6.957645   -3.527180    4.655917
     75          1           0        8.120798   -4.509355    3.672061
     76          1           0        7.856462   -4.924506   -1.419819
     77          1           0        5.509933   -7.668342   -3.783009
     78          1           0        5.282213   -6.064622   -4.708189
     79          1           0        4.268909   -6.615771   -3.360903
     80         12           0       -6.367537    0.965775    0.359462
     81          6           0       -8.594173   -1.841522    0.158902
     82          6           0       -7.895602    2.187184   -2.434776
     83          6           0       -4.135299    3.217711    0.243853
     84          6           0       -4.314165   -0.984854    2.390333
     85          7           0       -8.019762    0.182975   -0.885371
     86          6           0       -8.830328   -0.863047   -0.829159
     87          6           0      -10.006658   -0.820327   -1.841080
     88          6           0       -9.348705    0.155579   -2.933593
     89          6           0       -8.383246    0.919126   -2.029399
     90          6           0       -8.536448   -0.580227   -3.986295
     91          6           0      -11.305852   -0.195804   -1.221337
     92          6           0      -12.576770   -0.403680   -2.047961
     93          1           0      -13.839998   -0.605248   -1.343615
     94          7           0       -6.349882    2.709091   -0.588756
     95          6           0       -7.048713    3.041063   -1.694520
     96          6           0       -6.671337    4.428044   -2.007635
     97          6           0       -5.569095    4.832138   -1.093033
     98          6           0       -5.288418    3.567422   -0.443575
     99          6           0       -7.391646    5.255834   -3.031999
    100          6           0       -4.873062    6.137564   -0.853017
    101          8           0       -3.782862    6.206056   -0.182490
    102          6           0       -5.454744    7.320173   -1.504613
    103          7           0       -4.396687    1.032584    1.017969
    104          6           0       -3.662911    2.152124    0.890922
    105          6           0       -2.378142    2.054561    1.678475
    106          6           0       -2.514034    0.726792    2.559467
    107          6           0       -3.875846    0.216390    2.039530
    108          6           0       -1.094421    1.987143    0.851492
    109          6           0       -2.317313    0.876473    4.092948
    110          6           0       -3.449199    1.687345    4.681764
    111          7           0       -6.500488   -0.975598    1.298315
    112          6           0       -5.515714   -1.611601    2.085589
    113          6           0       -6.018871   -2.963675    2.403613
    114          6           0       -7.261210   -3.029317    1.754944
    115          6           0       -7.505367   -1.811996    1.063549
    116          6           0       -5.326023   -3.953403    3.156299
    117          6           0       -8.416813   -3.855512    1.489090
    118          8           0       -8.808266   -4.953854    1.881686
    119          6           0       -9.274347   -3.170174    0.339593
    120          6           0      -10.714488   -3.166738    0.773742
    121          8           0      -11.076779   -2.496182    1.756439
    122          8           0      -11.459409   -3.777231   -0.165818
    123          6           0      -12.897168   -3.789160    0.214357
    124          1           0       -8.150627    2.546489   -3.432143
    125          1           0       -3.379538    4.002207    0.326734
    126          1           0       -3.776953   -1.618104    3.099604
    127          1           0      -10.251419   -1.773772   -2.293631
    128          1           0      -10.088375    0.829897   -3.357307
    129          1           0       -8.437817   -1.630943   -3.757375
    130          1           0       -7.565591   -0.102344   -3.995874
    131          1           0       -8.964891   -0.412151   -4.978528
    132          1           0      -11.231870    0.898537   -1.262459
    133          1           0      -11.461822   -0.554287   -0.222443
    134          1           0      -12.443428   -1.167127   -2.824061
    135          1           0      -12.781462    0.513099   -2.606209
    136          1           0       -8.047740    4.639071   -3.658536
    137          1           0       -6.634031    5.637162   -3.725169
    138          1           0       -7.924849    6.100955   -2.591390
    139          1           0       -5.479385    7.164219   -2.580495
    140          1           0       -4.872022    8.169493   -1.142698
    141          1           0       -6.495449    7.423362   -1.177646
    142          1           0       -2.264315    2.904862    2.339633
    143          1           0       -1.766350   -0.028526    2.276068
    144          1           0       -0.373214    2.788831    1.098917
    145          1           0       -1.361011    2.025599   -0.196358
    146          1           0       -0.551556    1.045785    0.917357
    147          1           0       -1.397772    1.427574    4.304793
    148          1           0       -2.251481   -0.072476    4.614633
    149          1           0       -3.132354    2.719266    4.503355
    150          1           0       -3.552572    1.484566    5.745828
    151          1           0       -4.379501    1.527147    4.124511
    152          1           0       -6.048613   -4.394938    3.829654
    153          1           0       -4.486065   -3.524591    3.698841
    154          1           0       -4.999008   -4.617086    2.351405
    155          1           0       -9.122914   -3.749723   -0.571882
    156          1           0      -13.224540   -4.833227    0.193350
    157          1           0      -13.396421   -3.090595   -0.483143
    158          1           0      -13.149273   -3.508875    1.230393
 ---------------------------------------------------------------------

 SCF Done:  E(RCAM-B3LYP) =  -4069.81180428     A.U. after   19 cycles

 Excitation energies and oscillator strengths:

 Excited State   1:      Singlet-A      1.6649 eV  744.70 nm  f=0.0091  <S**2>=0.000
     309 -> 315       -0.10818
     310 -> 316        0.13281
     311 -> 313       -0.43229
     312 -> 314        0.53349
 This state for optimization and/or second-order correction.
 Total Energy, E(TD-HF/TD-DFT) =  -4069.75062114
 Copying the excited state density for this state as the 1-particle RhoCI density.

 Excited State   2:      Singlet-A      1.6897 eV  733.75 nm  f=0.7325  <S**2>=0.000
     309 -> 315        0.13847
     310 -> 316        0.11157
     311 -> 313        0.53228
     312 -> 314        0.43136

 Excited State   3:      Singlet-A      2.1850 eV  567.43 nm  f=0.0858  <S**2>=0.000
     309 -> 313       -0.11803
     310 -> 314        0.63193
     312 -> 316       -0.26784

 Excited State   4:      Singlet-A      2.1938 eV  565.15 nm  f=0.1123  <S**2>=0.000
     309 -> 313        0.62972
     310 -> 314        0.11677
     311 -> 315       -0.27426

 Excited State   5:      Singlet-A      2.6478 eV  468.26 nm  f=0.0000  <S**2>=0.000
     312 -> 313        0.70689

 The electronic state is 1-A.
 Alpha  occ. eigenvalues --  -46.87836 -46.87542 -19.26313 -19.26262 -19.19069
 Alpha  occ. eigenvalues --  -19.19055 -19.18810 -19.18622 -19.18198 -19.17937
 Alpha  occ. eigenvalues --  -14.42485 -14.42383 -14.41489 -14.41234 -14.39436
 Alpha  occ. eigenvalues --  -14.39238 -14.38627 -14.38479 -10.39114 -10.38996
 Alpha  occ. eigenvalues --  -10.35441 -10.35302 -10.34419 -10.34114 -10.31701
 Alpha  occ. eigenvalues --  -10.31679 -10.31443 -10.31194 -10.30937 -10.30921
 Alpha  occ. eigenvalues --  -10.30608 -10.30542 -10.30275 -10.30241 -10.30240
 Alpha  occ. eigenvalues --  -10.30014 -10.29962 -10.29759 -10.29661 -10.29320
 Alpha  occ. eigenvalues --  -10.29284 -10.29284 -10.28779 -10.28629 -10.28587
 Alpha  occ. eigenvalues --  -10.28568 -10.28396 -10.28294 -10.28147 -10.28048
 Alpha  occ. eigenvalues --  -10.27883 -10.27822 -10.27761 -10.27609 -10.27557
 Alpha  occ. eigenvalues --  -10.27551 -10.27491 -10.27490 -10.27437 -10.27390
 Alpha  occ. eigenvalues --  -10.27369 -10.27356 -10.27355 -10.27221 -10.27189
 Alpha  occ. eigenvalues --  -10.26943 -10.26737 -10.26613 -10.26373 -10.26351
 Alpha  occ. eigenvalues --  -10.26262 -10.26260 -10.26060 -10.25992 -10.25938
 Alpha  occ. eigenvalues --  -10.25881 -10.25800 -10.25679 -10.25464 -10.25220
 Alpha  occ. eigenvalues --  -10.24864 -10.24821 -10.24807 -10.24753 -10.24606
 Alpha  occ. eigenvalues --  -10.24568  -3.16580  -3.16292  -1.91461  -1.91174
 Alpha  occ. eigenvalues --   -1.91048  -1.90890  -1.90763  -1.90600  -1.16662
 Alpha  occ. eigenvalues --   -1.16555  -1.08656  -1.08545  -1.07209  -1.06876
 Alpha  occ. eigenvalues --   -1.06853  -1.06676  -1.04615  -1.04383  -1.03797
 Alpha  occ. eigenvalues --   -1.03545  -1.03269  -1.02915  -1.02447  -1.01990
 Alpha  occ. eigenvalues --   -0.92006  -0.91872  -0.89569  -0.89363  -0.89219
 Alpha  occ. eigenvalues --   -0.89055  -0.88333  -0.88082  -0.87904  -0.87707
 Alpha  occ. eigenvalues --   -0.87659  -0.87568  -0.87287  -0.87023  -0.85012
 Alpha  occ. eigenvalues --   -0.84900  -0.83989  -0.83740  -0.82976  -0.82835
 Alpha  occ. eigenvalues --   -0.82672  -0.82554  -0.81617  -0.81490  -0.80624
 Alpha  occ. eigenvalues --   -0.80336  -0.78820  -0.78526  -0.77256  -0.77035
 Alpha  occ. eigenvalues --   -0.76969  -0.76788  -0.75954  -0.75737  -0.74937
 Alpha  occ. eigenvalues --   -0.74668  -0.72810  -0.72575  -0.71705  -0.71461
 Alpha  occ. eigenvalues --   -0.69971  -0.69620  -0.68901  -0.68726  -0.67669
 Alpha  occ. eigenvalues --   -0.67488  -0.67242  -0.67110  -0.65320  -0.65171
 Alpha  occ. eigenvalues --   -0.64889  -0.64657  -0.64653  -0.64545  -0.64315
 Alpha  occ. eigenvalues --   -0.64072  -0.62331  -0.62172  -0.60464  -0.60230
 Alpha  occ. eigenvalues --   -0.59835  -0.59693  -0.59023  -0.58872  -0.58537
 Alpha  occ. eigenvalues --   -0.58309  -0.57617  -0.57445  -0.57342  -0.57116
 Alpha  occ. eigenvalues --   -0.56337  -0.56089  -0.56007  -0.55789  -0.55538
 Alpha  occ. eigenvalues --   -0.55383  -0.55353  -0.55119  -0.54566  -0.54366
 Alpha  occ. eigenvalues --   -0.53925  -0.53817  -0.53326  -0.53241  -0.53114
 Alpha  occ. eigenvalues --   -0.53039  -0.52949  -0.52798  -0.52767  -0.52583
 Alpha  occ. eigenvalues --   -0.52505  -0.52269  -0.51951  -0.51737  -0.51638
 Alpha  occ. eigenvalues --   -0.51566  -0.51234  -0.51085  -0.50574  -0.50387
 Alpha  occ. eigenvalues --   -0.50077  -0.49933  -0.49880  -0.49738  -0.49534
 Alpha  occ. eigenvalues --   -0.49391  -0.49240  -0.49124  -0.49100  -0.48996
 Alpha  occ. eigenvalues --   -0.48624  -0.48495  -0.48455  -0.48451  -0.48243
 Alpha  occ. eigenvalues --   -0.48238  -0.47723  -0.47490  -0.47322  -0.47006
 Alpha  occ. eigenvalues --   -0.46838  -0.46589  -0.46584  -0.46456  -0.46395
 Alpha  occ. eigenvalues --   -0.46199  -0.46150  -0.45954  -0.45855  -0.45701
 Alpha  occ. eigenvalues --   -0.45242  -0.45075  -0.44610  -0.44531  -0.44410
 Alpha  occ. eigenvalues --   -0.44364  -0.44185  -0.44117  -0.44039  -0.44024
 Alpha  occ. eigenvalues --   -0.43962  -0.43841  -0.43527  -0.43446  -0.43420
 Alpha  occ. eigenvalues --   -0.43274  -0.43061  -0.42829  -0.42783  -0.42739
 Alpha  occ. eigenvalues --   -0.42702  -0.42428  -0.42060  -0.41847  -0.41737
 Alpha  occ. eigenvalues --   -0.41566  -0.41555  -0.41355  -0.41172  -0.40908
 Alpha  occ. eigenvalues --   -0.40876  -0.40827  -0.40631  -0.40616  -0.40597
 Alpha  occ. eigenvalues --   -0.40362  -0.40260  -0.40144  -0.39512  -0.39288
 Alpha  occ. eigenvalues --   -0.38513  -0.38217  -0.37780  -0.37560  -0.37363
 Alpha  occ. eigenvalues --   -0.37295  -0.37139  -0.37095  -0.36749  -0.36669
 Alpha  occ. eigenvalues --   -0.36231  -0.36096  -0.34323  -0.34135  -0.33806
 Alpha  occ. eigenvalues --   -0.33765  -0.33222  -0.33056  -0.31342  -0.31179
 Alpha  occ. eigenvalues --   -0.31067  -0.30857  -0.30058  -0.29841  -0.29474
 Alpha  occ. eigenvalues --   -0.29355  -0.29218  -0.29090  -0.24117  -0.23916
 Alpha  occ. eigenvalues --   -0.21162  -0.20998
 Alpha virt. eigenvalues --   -0.08804  -0.08676  -0.01783  -0.01564  -0.00074
 Alpha virt. eigenvalues --    0.00072   0.02168   0.02328   0.03036   0.03336
 Alpha virt. eigenvalues --    0.04683   0.04838   0.05065   0.05261   0.06146

 Mulliken charges:
               1
     1  Mg   0.837980
     2  C   -0.003057
     3  C   -0.094003
     4  C   -0.045908
     5  C   -0.064195
     6  N   -0.256800
     7  C   -0.052574
     8  C   -0.013966
     9  C   -0.087020
    10  C    0.046349
    11  C    0.104781
    12  C    0.053444
    13  C   -0.071820
    14  H    0.036118
    15  N   -0.433268
    16  C    0.168509
    17  C   -0.176933
    18  C   -0.003698
    19  C    0.148688
    20  C    0.110151
    21  C    0.012693
    22  O   -0.249296
    23  C    0.062271
    24  N   -0.341052
    25  C    0.041121
    26  C   -0.028271
    27  C   -0.023906
    28  C    0.074474
    29  C    0.076095
    30  C    0.035245
    31  C   -0.004623
    32  N   -0.310378
    33  C    0.079952
    34  C   -0.170104
    35  C    0.008369
    36  C    0.082566
    37  C    0.127385
    38  C    0.045926
    39  O   -0.188343
    40  C   -0.005249
    41  C    0.212987
    42  O   -0.257464
    43  O   -0.304722
    44  C    0.157624
    45  H   -0.017441
    46  H   -0.016573
    47  H   -0.041642
    48  H    0.001019
    49  H   -0.003966
    50  H    0.025548
    51  H    0.016493
    52  H    0.016757
    53  H    0.011189
    54  H    0.043949
    55  H    0.017965
    56  H    0.017971
    57  H    0.005811
    58  H    0.026984
    59  H    0.040028
    60  H    0.037103
    61  H    0.036358
    62  H    0.032121
    63  H    0.016603
    64  H    0.009659
    65  H    0.023469
    66  H    0.012698
    67  H    0.004840
    68  H    0.006704
    69  H    0.004733
    70  H    0.009105
    71  H    0.016909
    72  H    0.028492
    73  H    0.047389
    74  H    0.008894
    75  H    0.046198
    76  H    0.035288
    77  H    0.043150
    78  H    0.046405
    79  H    0.053699
    80  Mg   0.837836
    81  C   -0.016977
    82  C   -0.088086
    83  C   -0.045659
    84  C   -0.063970
    85  N   -0.254571
    86  C   -0.049769
    87  C   -0.015104
    88  C   -0.090494
    89  C    0.045773
    90  C    0.114460
    91  C    0.062592
    92  C   -0.077750
    93  H    0.034664
    94  N   -0.423407
    95  C    0.162850
    96  C   -0.175049
    97  C   -0.008068
    98  C    0.152044
    99  C    0.099563
   100  C    0.015222
   101  O   -0.253209
   102  C    0.061265
   103  N   -0.349980
   104  C    0.037541
   105  C   -0.019961
   106  C   -0.035181
   107  C    0.088886
   108  C    0.073032
   109  C    0.034608
   110  C   -0.007635
   111  N   -0.324204
   112  C    0.078414
   113  C   -0.162662
   114  C    0.002276
   115  C    0.096329
   116  C    0.131588
   117  C    0.042555
   118  O   -0.187779
   119  C    0.000845
   120  C    0.211224
   121  O   -0.251120
   122  O   -0.305625
   123  C    0.152101
   124  H   -0.020176
   125  H   -0.015609
   126  H   -0.039491
   127  H   -0.000736
   128  H   -0.004640
   129  H    0.022566
   130  H    0.014433
   131  H    0.015826
   132  H    0.013854
   133  H    0.037664
   134  H    0.020703
   135  H    0.019410
   136  H    0.008498
   137  H    0.025508
   138  H    0.039470
   139  H    0.037794
   140  H    0.036130
   141  H    0.033845
   142  H    0.014280
   143  H    0.014427
   144  H    0.025298
   145  H    0.011135
   146  H    0.007314
   147  H    0.006258
   148  H    0.003964
   149  H    0.010824
   150  H    0.017505
   151  H    0.029923
   152  H    0.045739
   153  H    0.009010
   154  H    0.048153
   155  H    0.035074
   156  H    0.043827
   157  H    0.049330
   158  H    0.053493
 Sum of Mulliken charges =  -0.00000

 Dipole moment (field-independent basis, Debye):
    X=              1.9672    Y=              4.6717    Z=             -7.0556  Tot=              8.6877
 Quadrupole moment (field-independent basis, Debye-Ang):
   XX=           -467.8412   YY=           -560.2101   ZZ=           -457.2597
   XY=            -19.4646   XZ=             27.6417   YZ=             -1.9742

 Normal termination of Gaussian 16 at Sat Sep 11 16:32:27 2021.
