 Gaussian 16, Revision A.03,
 Gaussian 16:  ES64L-G16RevA.03 25-Dec-2016

 -----------------------------------
 #p cam-b3lyp/Def2SVP td=(nstates=5)
 -----------------------------------

 --------------------------------
 TDDFT excited states in gaussian
 --------------------------------
 Symbolic Z-matrix:
 Charge =  0 Multiplicity = 1

                         Standard orientation:
 ---------------------------------------------------------------------
 Center     Atomic      Atomic             Coordinates (Angstroms)
 Number     Number       Type             X           Y           Z
 ---------------------------------------------------------------------
      1         12           0      -15.853973   -0.696892    0.106713
      2          6           0      -16.035636    2.861344    0.450473
      3          6           0      -16.738986   -0.277123   -3.161866
      4          6           0      -16.143447   -3.847664   -0.106504
      5          6           0      -16.103400   -0.896982    3.577075
      6          7           0      -16.301630    1.112442   -1.087674
      7          6           0      -16.277242    2.420617   -0.852613
      8          6           0      -16.457964    3.282720   -2.137717
      9          6           0      -17.220098    2.219403   -3.049039
     10          6           0      -16.696303    0.940483   -2.419812
     11          6           0      -18.736799    2.258567   -2.892243
     12          6           0      -15.088176    3.701822   -2.769985
     13          6           0      -15.167586    4.805924   -3.828289
     14          1           0      -14.086868    5.776880   -3.909780
     15          7           0      -15.886195   -1.876191   -1.477920
     16          6           0      -16.258316   -1.533865   -2.734751
     17          6           0      -16.108458   -2.757323   -3.551681
     18          6           0      -15.800799   -3.885471   -2.629334
     19          6           0      -15.959079   -3.245018   -1.348652
     20          6           0      -16.208527   -2.766146   -5.046223
     21          6           0      -15.434197   -5.316680   -2.864650
     22          8           0      -15.436065   -6.182762   -1.924186
     23          6           0      -15.154907   -5.702452   -4.259720
     24          7           0      -16.310139   -2.178811    1.504377
     25          6           0      -16.313124   -3.472007    1.162881
     26          6           0      -16.385049   -4.356012    2.372551
     27          6           0      -16.185040   -3.396935    3.633472
     28          6           0      -16.110367   -2.040977    2.889112
     29          6           0      -17.684312   -5.155795    2.540698
     30          6           0      -15.047004   -3.760454    4.619955
     31          6           0      -13.705673   -3.579063    3.945399
     32          7           0      -15.859981    0.708850    1.760466
     33          6           0      -15.997214    0.407051    3.123096
     34          6           0      -16.051680    1.690708    3.846509
     35          6           0      -15.958408    2.656552    2.846364
     36          6           0      -15.878816    2.017065    1.576319
     37          6           0      -16.230928    1.849969    5.248985
     38          6           0      -15.932269    4.080358    2.553193
     39          8           0      -15.874739    5.105074    3.234472
     40          6           0      -16.103939    4.271572    0.981636
     41          6           0      -15.053213    5.246623    0.524953
     42          8           0      -13.842220    4.948024    0.566195
     43          8           0      -15.643723    6.274030   -0.104552
     44          6           0      -14.654731    7.263775   -0.608984
     45          1           0      -17.237402   -0.286092   -4.133176
     46          1           0      -16.137443   -4.939488   -0.124435
     47          1           0      -16.095543   -0.881726    4.668477
     48          1           0      -17.076053    4.170987   -2.005919
     49          1           0      -16.911626    2.282337   -4.092402
     50          1           0      -19.036586    2.923966   -2.082741
     51          1           0      -19.033169    1.232929   -2.671509
     52          1           0      -19.217491    2.512560   -3.837336
     53          1           0      -14.710127    2.883861   -3.383238
     54          1           0      -14.379331    3.995561   -1.995013
     55          1           0      -16.133772    5.310791   -3.805843
     56          1           0      -15.128701    4.339050   -4.812523
     57          1           0      -16.605577   -1.825816   -5.426586
     58          1           0      -16.963437   -3.506428   -5.310425
     59          1           0      -15.260612   -3.022693   -5.519482
     60          1           0      -16.032476   -5.496037   -4.872757
     61          1           0      -14.823609   -6.739678   -4.224317
     62          1           0      -14.354840   -5.071051   -4.647242
     63          1           0      -15.590217   -5.100675    2.360526
     64          1           0      -17.076288   -3.353753    4.259958
     65          1           0      -17.529722   -6.232884    2.609150
     66          1           0      -18.343019   -4.907338    1.709034
     67          1           0      -18.294024   -4.862920    3.395035
     68          1           0      -15.119516   -4.807152    4.913400
     69          1           0      -15.057478   -3.159562    5.529389
     70          1           0      -13.575999   -4.516339    3.405462
     71          1           0      -12.920317   -3.445638    4.690130
     72          1           0      -13.736968   -2.778653    3.205906
     73          1           0      -15.527035    2.621515    5.560787
     74          1           0      -16.054071    0.914631    5.779520
     75          1           0      -17.275294    2.159555    5.285209
     76          1           0      -17.112422    4.651141    0.820353
     77          1           0      -14.928044    8.232499   -0.190524
     78          1           0      -14.644847    7.166209   -1.694704
     79          1           0      -13.635069    7.159041   -0.236614
     80         12           0       15.901979   -0.869548   -0.019292
     81          6           0       16.344874    2.677438    0.299809
     82          6           0       14.463953   -0.266501   -3.052941
     83          6           0       15.091970   -3.935208   -0.133495
     84          6           0       16.306717   -1.090852    3.435113
     85          7           0       15.512217    1.005779   -1.125423
     86          6           0       15.779975    2.288548   -0.932705
     87          6           0       15.496275    3.196197   -2.159593
     88          6           0       14.404393    2.274871   -2.892956
     89          6           0       14.835154    0.911307   -2.356472
     90          6           0       12.982079    2.542790   -2.429721
     91          6           0       16.767328    3.404367   -3.055751
     92          6           0       16.646148    4.521994   -4.094000
     93          1           0       17.832518    5.314558   -4.405194
     94          7           0       15.376254   -2.002370   -1.561660
     95          6           0       14.827636   -1.590828   -2.723951
     96          6           0       14.609395   -2.808953   -3.519384
     97          6           0       14.921465   -3.988099   -2.666784
     98          6           0       15.126484   -3.340823   -1.386522
     99          6           0       14.224664   -2.775474   -4.970001
    100          6           0       15.007034   -5.456721   -2.953202
    101          8           0       15.059452   -6.324501   -2.011369
    102          6           0       14.933502   -5.854371   -4.366697
    103          7           0       15.513261   -2.281119    1.456748
    104          6           0       15.234846   -3.557100    1.136916
    105          6           0       15.264235   -4.444493    2.358409
    106          6           0       15.860411   -3.538297    3.533541
    107          6           0       15.995057   -2.198758    2.776642
    108          6           0       13.917464   -5.021273    2.794198
    109          6           0       17.101917   -4.089729    4.286710
    110          6           0       18.296177   -4.120033    3.360319
    111          7           0       16.442622    0.486560    1.573428
    112          6           0       16.527519    0.192595    2.951995
    113          6           0       16.817360    1.461539    3.650697
    114          6           0       16.858519    2.417247    2.624347
    115          6           0       16.591755    1.791729    1.376522
    116          6           0       16.955635    1.623485    5.058097
    117          6           0       17.056455    3.814822    2.314012
    118          8           0       17.398351    4.807231    2.955869
    119          6           0       16.607682    4.067049    0.810228
    120          6           0       17.683926    4.870391    0.132838
    121          8           0       18.815321    4.386444   -0.046988
    122          8           0       17.140927    5.988478   -0.382335
    123          6           0       18.167211    6.813077   -1.074141
    124          1           0       13.795736   -0.173888   -3.909558
    125          1           0       14.925889   -5.014957   -0.128237
    126          1           0       16.544143   -1.092541    4.501087
    127          1           0       15.067626    4.162088   -1.920646
    128          1           0       14.517296    2.312563   -3.973323
    129          1           0       12.952330    3.228214   -1.595789
    130          1           0       12.579919    1.580019   -2.142669
    131          1           0       12.370760    2.886659   -3.268988
    132          1           0       16.880777    2.539955   -3.722570
    133          1           0       17.637931    3.566349   -2.450401
    134          1           0       15.787821    5.175907   -3.897451
    135          1           0       16.423283    4.071578   -5.064299
    136          1           0       13.905083   -1.772385   -5.278355
    137          1           0       13.325428   -3.391799   -5.076634
    138          1           0       15.005171   -3.173342   -5.622060
    139          1           0       13.998436   -5.499473   -4.793505
    140          1           0       15.101763   -6.933016   -4.375958
    141          1           0       15.739570   -5.352663   -4.913663
    142          1           0       15.918029   -5.294026    2.203595
    143          1           0       15.124770   -3.374042    4.334596
    144          1           0       13.911997   -6.126452    2.845511
    145          1           0       13.157514   -4.668626    2.109608
    146          1           0       13.549444   -4.661083    3.753384
    147          1           0       16.926720   -5.121542    4.601070
    148          1           0       17.355950   -3.521142    5.175062
    149          1           0       18.162843   -5.059995    2.816466
    150          1           0       19.223130   -4.121837    3.930227
    151          1           0       18.247042   -3.305716    2.628099
    152          1           0       17.810630    2.267612    5.214866
    153          1           0       17.081710    0.665410    5.558065
    154          1           0       15.994826    2.087530    5.296359
    155          1           0       15.655712    4.598649    0.837229
    156          1           0       18.132970    7.809862   -0.623662
    157          1           0       17.932337    6.739390   -2.152645
    158          1           0       19.207364    6.548637   -0.923750
 ---------------------------------------------------------------------

 SCF Done:  E(RCAM-B3LYP) =  -4069.81176585     A.U. after   19 cycles

 Excitation energies and oscillator strengths:

 Excited State   1:      Singlet-A      1.6753 eV  740.06 nm  f=0.2236  <S**2>=0.000
     310 -> 316        0.16894
     311 -> 314       -0.15689
     312 -> 313        0.66787
     310 <- 316        0.10184
 This state for optimization and/or second-order correction.
 Total Energy, E(TD-HF/TD-DFT) =  -4069.75019885
 Copying the excited state density for this state as the 1-particle RhoCI density.

 Excited State   2:      Singlet-A      1.6801 eV  737.96 nm  f=0.5541  <S**2>=0.000
     309 -> 315        0.17096
     311 -> 314        0.66751
     312 -> 313        0.15684
     309 <- 315        0.10236

 Excited State   3:      Singlet-A      2.1861 eV  567.15 nm  f=0.0951  <S**2>=0.000
     310 -> 313        0.64210
     312 -> 316       -0.27294

 Excited State   4:      Singlet-A      2.1925 eV  565.48 nm  f=0.1050  <S**2>=0.000
     309 -> 314        0.64032
     311 -> 315       -0.27814

 Excited State   5:      Singlet-A      3.0653 eV  404.48 nm  f=0.0000  <S**2>=0.000
     312 -> 314        0.70711

 The electronic state is 1-A.
 Alpha  occ. eigenvalues --  -46.87804 -46.87660 -19.26349 -19.26292 -19.19161
 Alpha  occ. eigenvalues --  -19.19028 -19.18823 -19.18715 -19.18176 -19.18051
 Alpha  occ. eigenvalues --  -14.42497 -14.42457 -14.41457 -14.41359 -14.39410
 Alpha  occ. eigenvalues --  -14.39352 -14.38600 -14.38594 -10.39090 -10.39087
 Alpha  occ. eigenvalues --  -10.35456 -10.35393 -10.34396 -10.34228 -10.31756
 Alpha  occ. eigenvalues --  -10.31687 -10.31412 -10.31308 -10.31023 -10.30917
 Alpha  occ. eigenvalues --  -10.30577 -10.30515 -10.30398 -10.30361 -10.30214
 Alpha  occ. eigenvalues --  -10.30141 -10.29927 -10.29894 -10.29638 -10.29437
 Alpha  occ. eigenvalues --  -10.29401 -10.29262 -10.28757 -10.28719 -10.28655
 Alpha  occ. eigenvalues --  -10.28549 -10.28405 -10.28372 -10.28139 -10.28124
 Alpha  occ. eigenvalues --  -10.28001 -10.27800 -10.27734 -10.27669 -10.27592
 Alpha  occ. eigenvalues --  -10.27518 -10.27507 -10.27490 -10.27484 -10.27468
 Alpha  occ. eigenvalues --  -10.27465 -10.27456 -10.27411 -10.27375 -10.27165
 Alpha  occ. eigenvalues --  -10.27050 -10.26714 -10.26693 -10.26419 -10.26417
 Alpha  occ. eigenvalues --  -10.26242 -10.26189 -10.26138 -10.26026 -10.26022
 Alpha  occ. eigenvalues --  -10.25934 -10.25850 -10.25849 -10.25441 -10.25396
 Alpha  occ. eigenvalues --  -10.24873 -10.24840 -10.24795 -10.24732 -10.24693
 Alpha  occ. eigenvalues --  -10.24690  -3.16547  -3.16410  -1.91428  -1.91293
 Alpha  occ. eigenvalues --   -1.91015  -1.90881  -1.90857  -1.90718  -1.16643
 Alpha  occ. eigenvalues --   -1.16641  -1.08658  -1.08634  -1.07224  -1.06967
 Alpha  occ. eigenvalues --   -1.06945  -1.06650  -1.04588  -1.04495  -1.03768
 Alpha  occ. eigenvalues --   -1.03663  -1.03241  -1.03039  -1.02418  -1.02111
 Alpha  occ. eigenvalues --   -0.91987  -0.91979  -0.89526  -0.89494  -0.89196
 Alpha  occ. eigenvalues --   -0.89151  -0.88293  -0.88220  -0.87877  -0.87794
 Alpha  occ. eigenvalues --   -0.87684  -0.87680  -0.87282  -0.87121  -0.85000
 Alpha  occ. eigenvalues --   -0.84990  -0.83943  -0.83876  -0.82975  -0.82932
 Alpha  occ. eigenvalues --   -0.82656  -0.82653  -0.81596  -0.81593  -0.80604
 Alpha  occ. eigenvalues --   -0.80443  -0.78805  -0.78636  -0.77226  -0.77144
 Alpha  occ. eigenvalues --   -0.76942  -0.76898  -0.75931  -0.75838  -0.74905
 Alpha  occ. eigenvalues --   -0.74802  -0.72781  -0.72699  -0.71679  -0.71580
 Alpha  occ. eigenvalues --   -0.69913  -0.69758  -0.68881  -0.68827  -0.67649
 Alpha  occ. eigenvalues --   -0.67602  -0.67228  -0.67200  -0.65294  -0.65271
 Alpha  occ. eigenvalues --   -0.64861  -0.64770  -0.64654  -0.64628  -0.64276
 Alpha  occ. eigenvalues --   -0.64204  -0.62305  -0.62278  -0.60450  -0.60340
 Alpha  occ. eigenvalues --   -0.59812  -0.59796  -0.58994  -0.58993  -0.58511
 Alpha  occ. eigenvalues --   -0.58426  -0.57592  -0.57554  -0.57316  -0.57237
 Alpha  occ. eigenvalues --   -0.56317  -0.56204  -0.55986  -0.55886  -0.55528
 Alpha  occ. eigenvalues --   -0.55452  -0.55346  -0.55248  -0.54530  -0.54488
 Alpha  occ. eigenvalues --   -0.53912  -0.53903  -0.53306  -0.53230  -0.53228
 Alpha  occ. eigenvalues --   -0.53142  -0.52922  -0.52902  -0.52764  -0.52669
 Alpha  occ. eigenvalues --   -0.52445  -0.52402  -0.51921  -0.51885  -0.51659
 Alpha  occ. eigenvalues --   -0.51625  -0.51203  -0.51201  -0.50581  -0.50476
 Alpha  occ. eigenvalues --   -0.50038  -0.49980  -0.49926  -0.49867  -0.49522
 Alpha  occ. eigenvalues --   -0.49488  -0.49222  -0.49202  -0.49104  -0.49104
 Alpha  occ. eigenvalues --   -0.48600  -0.48558  -0.48468  -0.48453  -0.48376
 Alpha  occ. eigenvalues --   -0.48339  -0.47702  -0.47595  -0.47304  -0.47118
 Alpha  occ. eigenvalues --   -0.46804  -0.46709  -0.46563  -0.46554  -0.46366
 Alpha  occ. eigenvalues --   -0.46271  -0.46169  -0.46085  -0.45829  -0.45822
 Alpha  occ. eigenvalues --   -0.45208  -0.45208  -0.44585  -0.44515  -0.44514
 Alpha  occ. eigenvalues --   -0.44476  -0.44152  -0.44127  -0.44096  -0.44078
 Alpha  occ. eigenvalues --   -0.44027  -0.43939  -0.43553  -0.43502  -0.43393
 Alpha  occ. eigenvalues --   -0.43386  -0.43034  -0.42930  -0.42901  -0.42706
 Alpha  occ. eigenvalues --   -0.42662  -0.42554  -0.42016  -0.41964  -0.41711
 Alpha  occ. eigenvalues --   -0.41669  -0.41542  -0.41459  -0.41148  -0.40989
 Alpha  occ. eigenvalues --   -0.40877  -0.40831  -0.40723  -0.40699  -0.40578
 Alpha  occ. eigenvalues --   -0.40493  -0.40243  -0.40227  -0.39447  -0.39426
 Alpha  occ. eigenvalues --   -0.38476  -0.38350  -0.37757  -0.37654  -0.37327
 Alpha  occ. eigenvalues --   -0.37271  -0.37266  -0.37199  -0.36771  -0.36721
 Alpha  occ. eigenvalues --   -0.36217  -0.36200  -0.34293  -0.34253  -0.33862
 Alpha  occ. eigenvalues --   -0.33778  -0.33194  -0.33176  -0.31353  -0.31274
 Alpha  occ. eigenvalues --   -0.31043  -0.30973  -0.30036  -0.29955  -0.29457
 Alpha  occ. eigenvalues --   -0.29329  -0.29328  -0.29212  -0.24088  -0.24036
 Alpha  occ. eigenvalues --   -0.21135  -0.21117
 Alpha virt. eigenvalues --   -0.08792  -0.08781  -0.01757  -0.01684  -0.00066
 Alpha virt. eigenvalues --   -0.00029   0.02193   0.02207   0.03115   0.03227
 Alpha virt. eigenvalues --    0.04710   0.04730   0.05090   0.05166   0.06169

 Mulliken charges:
               1
     1  Mg   0.838781
     2  C   -0.002966
     3  C   -0.094129
     4  C   -0.045879
     5  C   -0.063952
     6  N   -0.256795
     7  C   -0.052470
     8  C   -0.014011
     9  C   -0.087006
    10  C    0.046323
    11  C    0.104811
    12  C    0.053473
    13  C   -0.071786
    14  H    0.036093
    15  N   -0.433149
    16  C    0.168413
    17  C   -0.177165
    18  C   -0.004010
    19  C    0.148721
    20  C    0.110179
    21  C    0.012280
    22  O   -0.249616
    23  C    0.062481
    24  N   -0.341159
    25  C    0.041250
    26  C   -0.028187
    27  C   -0.023964
    28  C    0.074839
    29  C    0.076165
    30  C    0.035128
    31  C   -0.004506
    32  N   -0.310472
    33  C    0.080411
    34  C   -0.169694
    35  C    0.008358
    36  C    0.082971
    37  C    0.127310
    38  C    0.046128
    39  O   -0.188422
    40  C   -0.005336
    41  C    0.212880
    42  O   -0.257123
    43  O   -0.304790
    44  C    0.157700
    45  H   -0.017607
    46  H   -0.016829
    47  H   -0.041472
    48  H    0.000947
    49  H   -0.004050
    50  H    0.025484
    51  H    0.016455
    52  H    0.016657
    53  H    0.011185
    54  H    0.044116
    55  H    0.017887
    56  H    0.017933
    57  H    0.005867
    58  H    0.026830
    59  H    0.039521
    60  H    0.037350
    61  H    0.035649
    62  H    0.031475
    63  H    0.016556
    64  H    0.009475
    65  H    0.023222
    66  H    0.012547
    67  H    0.004768
    68  H    0.006380
    69  H    0.004744
    70  H    0.008778
    71  H    0.018155
    72  H    0.028963
    73  H    0.047582
    74  H    0.009124
    75  H    0.046023
    76  H    0.035161
    77  H    0.042961
    78  H    0.046385
    79  H    0.053675
    80  Mg   0.837880
    81  C   -0.016811
    82  C   -0.087774
    83  C   -0.045505
    84  C   -0.064870
    85  N   -0.254565
    86  C   -0.049836
    87  C   -0.015087
    88  C   -0.090517
    89  C    0.045753
    90  C    0.114366
    91  C    0.062520
    92  C   -0.077898
    93  H    0.034889
    94  N   -0.423495
    95  C    0.162913
    96  C   -0.174613
    97  C   -0.007812
    98  C    0.152127
    99  C    0.099364
   100  C    0.015578
   101  O   -0.253177
   102  C    0.061194
   103  N   -0.350087
   104  C    0.037533
   105  C   -0.019836
   106  C   -0.034811
   107  C    0.088920
   108  C    0.073633
   109  C    0.034731
   110  C   -0.007678
   111  N   -0.324113
   112  C    0.078464
   113  C   -0.163114
   114  C    0.002248
   115  C    0.096176
   116  C    0.131487
   117  C    0.042407
   118  O   -0.187852
   119  C    0.000915
   120  C    0.211252
   121  O   -0.251028
   122  O   -0.305614
   123  C    0.152021
   124  H   -0.019649
   125  H   -0.015563
   126  H   -0.040438
   127  H   -0.000620
   128  H   -0.004338
   129  H    0.022501
   130  H    0.014455
   131  H    0.016302
   132  H    0.013904
   133  H    0.037675
   134  H    0.020813
   135  H    0.019581
   136  H    0.008762
   137  H    0.026154
   138  H    0.039776
   139  H    0.038257
   140  H    0.036393
   141  H    0.033886
   142  H    0.014397
   143  H    0.012459
   144  H    0.025148
   145  H    0.011671
   146  H    0.005719
   147  H    0.006274
   148  H    0.003662
   149  H    0.010928
   150  H    0.017930
   151  H    0.030092
   152  H    0.046005
   153  H    0.008517
   154  H    0.046994
   155  H    0.035073
   156  H    0.043933
   157  H    0.049491
   158  H    0.053572
 Sum of Mulliken charges =  -0.00000

 Dipole moment (field-independent basis, Debye):
    X=             -4.8981    Y=             -1.7669    Z=             -7.3507  Tot=              9.0081
 Quadrupole moment (field-independent basis, Debye-Ang):
   XX=           -545.1325   YY=           -546.0322   ZZ=           -451.2625
   XY=             -5.0399   XZ=             11.6734   YZ=            -51.1649

 Normal termination of Gaussian 16 at Sun Sep 12 11:29:02 2021.
