 Gaussian 16, Revision A.03,
 Gaussian 16:  ES64L-G16RevA.03 25-Dec-2016

 -----------------------------------
 #p cam-b3lyp/Def2SVP td=(nstates=5)
 -----------------------------------

 --------------------------------
 TDDFT excited states in gaussian
 --------------------------------
 Symbolic Z-matrix:
 Charge =  0 Multiplicity = 1

                         Standard orientation:
 ---------------------------------------------------------------------
 Center     Atomic      Atomic             Coordinates (Angstroms)
 Number     Number       Type             X           Y           Z
 ---------------------------------------------------------------------
      1         12           0       16.048800    0.562162    0.195462
      2          6           0       16.222639   -2.928906   -0.575538
      3          6           0       16.922619    1.169618   -3.046529
      4          6           0       16.345479    3.624699    0.963228
      5          6           0       16.309487   -0.318105    3.557430
      6          7           0       16.488229   -0.791269   -1.500349
      7          6           0       16.461302   -2.108137   -1.680084
      8          6           0       16.635885   -2.532152   -3.169079
      9          6           0       17.397841   -1.240698   -3.710896
     10          6           0       16.879196   -0.217425   -2.715987
     11          6           0       18.914919   -1.328461   -3.579464
     12          6           0       15.263099   -2.733892   -3.894677
     13          6           0       15.336469   -3.457911   -5.242181
     14          1           0       14.253081   -4.354873   -5.615112
     15          7           0       16.079051    2.172629   -0.948361
     16          6           0       16.446417    2.234063   -2.250879
     17          6           0       16.297082    3.650037   -2.650126
     18          6           0       15.995104    4.439183   -1.423687
     19          6           0       16.155755    3.434765   -0.403533
     20          6           0       16.392537    4.119201   -4.069465
     21          6           0       15.631350    5.873722   -1.204796
     22          8           0       15.638298    6.407549   -0.043093
     23          6           0       15.348699    6.671322   -2.411853
     24          7           0       16.512998    1.540164    1.980305
     25          6           0       16.518153    2.875638    2.054254
     26          6           0       16.596038    3.343392    3.477306
     27          6           0       16.397545    2.042484    4.381735
     28          6           0       16.317178    0.982284    3.255774
     29          6           0       17.897810    4.050491    3.879068
     30          6           0       15.263486    2.085670    5.436469
     31          6           0       13.919621    2.123057    4.743848
     32          7           0       16.056425   -1.285081    1.335059
     33          6           0       16.198637   -1.418418    2.723825
     34          6           0       16.252140   -2.862681    3.015904
     35          6           0       16.153354   -3.472872    1.767003
     36          6           0       16.071421   -2.472765    0.756377
     37          6           0       16.435338   -3.446954    4.300232
     38          6           0       16.122750   -4.736828    1.049133
     39          8           0       16.064773   -5.921618    1.381403
     40          6           0       16.289067   -4.434301   -0.505422
     41          6           0       15.234497   -5.219494   -1.236630
     42          8           0       14.024388   -4.946449   -1.100807
     43          8           0       15.820484   -6.003522   -2.154487
     44          6           0       14.827463   -6.788054   -2.935878
     45          1           0       17.418041    1.476991   -3.969578
     46          1           0       16.342147    4.668843    1.282902
     47          1           0       16.304977   -0.669191    4.590954
     48          1           0       17.252159   -3.418646   -3.319939
     49          1           0       17.085979   -0.978356   -4.721659
     50          1           0       19.215553   -2.211500   -3.015741
     51          1           0       19.214533   -0.421310   -3.054296
     52          1           0       19.392042   -1.279292   -4.558604
     53          1           0       14.885195   -1.766138   -4.224377
     54          1           0       14.555930   -3.251306   -3.245431
     55          1           0       16.301455   -3.946463   -5.380120
     56          1           0       15.295698   -2.710203   -6.034312
     57          1           0       16.786056    3.341445   -4.722751
     58          1           0       17.148471    4.903807   -4.095300
     59          1           0       15.443803    4.510540   -4.437010
     60          1           0       16.223845    6.662782   -3.061928
     61          1           0       15.020105    7.647542   -2.057073
     62          1           0       14.545860    6.191343   -2.972226
     63          1           0       15.803035    4.056595    3.698472
     64          1           0       17.290622    1.806935    4.961049
     65          1           0       17.746123    5.054188    4.276922
     66          1           0       18.553311    4.069692    3.008873
     67          1           0       18.509435    3.507551    4.599170
     68          1           0       15.339522    2.990749    6.038132
     69          1           0       15.275279    1.233586    6.116223
     70          1           0       13.790614    3.181345    4.519761
     71          1           0       13.136247    1.767576    5.414050
     72          1           0       13.946623    1.589674    3.793448
     73          1           0       15.730491   -4.276052    4.361515
     74          1           0       16.262465   -2.720571    5.094011
     75          1           0       17.479035   -3.754102    4.235330
     76          1           0       17.296093   -4.747061   -0.779651
     77          1           0       15.099653   -7.838999   -2.837579
     78          1           0       14.814455   -6.360397   -3.938547
     79          1           0       13.809226   -6.801816   -2.545567
     80         12           0      -15.710677    0.813099    0.254228
     81          6           0      -17.486113   -2.298840    0.047509
     82          6           0      -16.851976    1.501205   -2.885595
     83          6           0      -13.801472    3.347145    0.223072
     84          6           0      -13.825692   -0.592767    2.826412
     85          7           0      -16.996486   -0.329542   -1.136212
     86          6           0      -17.663079   -1.472811   -1.081994
     87          6           0      -18.632670   -1.709008   -2.270972
     88          6           0      -17.918534   -0.763704   -3.355074
     89          6           0      -17.238371    0.223247   -2.408503
     90          6           0      -16.841891   -1.475084   -4.157641
     91          6           0      -20.091621   -1.223712   -1.957998
     92          6           0      -21.154850   -1.701403   -2.949506
     93          1           0      -22.488208   -2.014631   -2.443033
     94          7           0      -15.745311    2.433147   -0.891554
     95          6           0      -16.269353    2.542605   -2.130377
     96          6           0      -16.022405    3.930659   -2.550477
     97          6           0      -15.164695    4.585388   -1.525599
     98          6           0      -14.846431    3.449649   -0.683635
     99          6           0      -16.645625    4.532981   -3.776124
    100          6           0      -14.696575    5.997231   -1.341821
    101          8           0      -13.763484    6.295008   -0.515079
    102          6           0      -15.297461    7.007356   -2.225028
    103          7           0      -13.916436    1.238541    1.214470
    104          6           0      -13.321339    2.435460    1.069004
    105          6           0      -12.198405    2.610776    2.063334
    106          6           0      -12.320133    1.375028    3.071158
    107          6           0      -13.488710    0.617763    2.403050
    108          6           0      -10.788433    2.649869    1.474401
    109          6           0      -12.424750    1.708798    4.584543
    110          6           0      -13.738836    2.399030    4.871178
    111          7           0      -15.761405   -1.019813    1.396992
    112          6           0      -14.861988   -1.418622    2.409949
    113          6           0      -15.236957   -2.790488    2.809715
    114          6           0      -16.322723   -3.105777    1.978923
    115          6           0      -16.591729   -2.015563    1.107971
    116          6           0      -14.570653   -3.584039    3.785635
    117          6           0      -17.295698   -4.117018    1.633386
    118          8           0      -17.607726   -5.215100    2.092280
    119          6           0      -18.011858   -3.688007    0.280811
    120          6           0      -19.495149   -3.853537    0.467841
    121          8           0      -20.112006   -3.146820    1.284320
    122          8           0      -19.973465   -4.660874   -0.496417
    123          6           0      -21.442695   -4.846716   -0.359845
    124          1           0      -16.966353    1.714457   -3.948772
    125          1           0      -13.179972    4.239331    0.329077
    126          1           0      -13.348974   -1.063209    3.689018
    127          1           0      -18.667403   -2.729563   -2.632966
    128          1           0      -18.649583   -0.253558   -3.976907
    129          1           0      -16.652512   -2.470467   -3.784153
    130          1           0      -15.954640   -0.862099   -4.067738
    131          1           0      -17.101802   -1.475104   -5.220072
    132          1           0      -20.152217   -0.140554   -2.124889
    133          1           0      -20.378405   -1.496913   -0.961137
    134          1           0      -20.786705   -2.512218   -3.589809
    135          1           0      -21.370945   -0.887280   -3.645581
    136          1           0      -17.093127    3.764767   -4.418778
    137          1           0      -15.830355    4.949222   -4.377751
    138          1           0      -17.353494    5.330432   -3.540185
    139          1           0      -15.106982    6.739893   -3.261672
    140          1           0      -14.903454    7.966274   -1.882814
    141          1           0      -16.384627    6.988149   -2.089707
    142          1           0      -12.315873    3.531865    2.620905
    143          1           0      -11.443055    0.713842    3.012933
    144          1           0      -10.232586    3.570722    1.733490
    145          1           0      -10.863861    2.540634    0.400663
    146          1           0      -10.150393    1.811164    1.747693
    147          1           0      -11.636964    2.408921    4.873281
    148          1           0      -12.333330    0.838699    5.226064
    149          1           0      -13.529782    3.442704    4.617924
    150          1           0      -14.006044    2.293462    5.920701
    151          1           0      -14.524727    2.046366    4.193204
    152          1           0      -15.340479   -4.056348    4.381291
    153          1           0      -13.904599   -2.982062    4.400257
    154          1           0      -14.021218   -4.270985    3.136401
    155          1           0      -17.625156   -4.329147   -0.512274
    156          1           0      -21.624394   -5.924351   -0.301835
    157          1           0      -21.892900   -4.305189   -1.212955
    158          1           0      -21.908147   -4.504107    0.556911
 ---------------------------------------------------------------------

 SCF Done:  E(RCAM-B3LYP) =  -4069.81176990     A.U. after   19 cycles

 Excitation energies and oscillator strengths:

 Excited State   1:      Singlet-A      1.6753 eV  740.08 nm  f=0.2128  <S**2>=0.000
     310 -> 316        0.16864
     311 -> 313        0.66669
     312 -> 314       -0.16187
     310 <- 316        0.10167
 This state for optimization and/or second-order correction.
 Total Energy, E(TD-HF/TD-DFT) =  -4069.75020412
 Copying the excited state density for this state as the 1-particle RhoCI density.

 Excited State   2:      Singlet-A      1.6801 eV  737.95 nm  f=0.5646  <S**2>=0.000
     309 -> 315        0.17066
     311 -> 313        0.16182
     312 -> 314        0.66632
     309 <- 315        0.10218

 Excited State   3:      Singlet-A      2.1861 eV  567.15 nm  f=0.0991  <S**2>=0.000
     310 -> 313        0.64228
     311 -> 316       -0.27303

 Excited State   4:      Singlet-A      2.1925 eV  565.48 nm  f=0.1017  <S**2>=0.000
     309 -> 314        0.64051
     312 -> 315       -0.27822

 Excited State   5:      Singlet-A      3.0636 eV  404.71 nm  f=0.0000  <S**2>=0.000
     312 -> 313        0.70711

 The electronic state is 1-A.
 Alpha  occ. eigenvalues --  -46.87783 -46.87660 -19.26350 -19.26271 -19.19161
 Alpha  occ. eigenvalues --  -19.19007 -19.18802 -19.18715 -19.18156 -19.18051
 Alpha  occ. eigenvalues --  -14.42498 -14.42437 -14.41437 -14.41358 -14.39390
 Alpha  occ. eigenvalues --  -14.39352 -14.38599 -14.38574 -10.39091 -10.39066
 Alpha  occ. eigenvalues --  -10.35435 -10.35392 -10.34376 -10.34228 -10.31757
 Alpha  occ. eigenvalues --  -10.31666 -10.31392 -10.31309 -10.31024 -10.30896
 Alpha  occ. eigenvalues --  -10.30557 -10.30494 -10.30397 -10.30360 -10.30194
 Alpha  occ. eigenvalues --  -10.30140 -10.29908 -10.29893 -10.29618 -10.29436
 Alpha  occ. eigenvalues --  -10.29401 -10.29241 -10.28736 -10.28720 -10.28656
 Alpha  occ. eigenvalues --  -10.28526 -10.28405 -10.28352 -10.28142 -10.28104
 Alpha  occ. eigenvalues --  -10.28000 -10.27780 -10.27714 -10.27669 -10.27571
 Alpha  occ. eigenvalues --  -10.27513 -10.27488 -10.27483 -10.27469 -10.27469
 Alpha  occ. eigenvalues --  -10.27465 -10.27436 -10.27390 -10.27372 -10.27145
 Alpha  occ. eigenvalues --  -10.27050 -10.26694 -10.26692 -10.26417 -10.26397
 Alpha  occ. eigenvalues --  -10.26222 -10.26170 -10.26132 -10.26027 -10.26006
 Alpha  occ. eigenvalues --  -10.25933 -10.25847 -10.25830 -10.25423 -10.25392
 Alpha  occ. eigenvalues --  -10.24872 -10.24820 -10.24775 -10.24727 -10.24689
 Alpha  occ. eigenvalues --  -10.24673  -3.16526  -3.16410  -1.91408  -1.91292
 Alpha  occ. eigenvalues --   -1.90994  -1.90881  -1.90836  -1.90718  -1.16644
 Alpha  occ. eigenvalues --   -1.16620  -1.08658  -1.08614  -1.07203  -1.06967
 Alpha  occ. eigenvalues --   -1.06946  -1.06629  -1.04568  -1.04495  -1.03747
 Alpha  occ. eigenvalues --   -1.03663  -1.03221  -1.03038  -1.02398  -1.02111
 Alpha  occ. eigenvalues --   -0.91987  -0.91959  -0.89506  -0.89492  -0.89175
 Alpha  occ. eigenvalues --   -0.89152  -0.88274  -0.88217  -0.87857  -0.87792
 Alpha  occ. eigenvalues --   -0.87684  -0.87660  -0.87261  -0.87121  -0.85000
 Alpha  occ. eigenvalues --   -0.84969  -0.83923  -0.83873  -0.82954  -0.82932
 Alpha  occ. eigenvalues --   -0.82653  -0.82636  -0.81596  -0.81573  -0.80583
 Alpha  occ. eigenvalues --   -0.80443  -0.78784  -0.78636  -0.77205  -0.77144
 Alpha  occ. eigenvalues --   -0.76921  -0.76898  -0.75910  -0.75839  -0.74885
 Alpha  occ. eigenvalues --   -0.74800  -0.72761  -0.72698  -0.71659  -0.71580
 Alpha  occ. eigenvalues --   -0.69894  -0.69754  -0.68860  -0.68828  -0.67628
 Alpha  occ. eigenvalues --   -0.67601  -0.67207  -0.67201  -0.65274  -0.65272
 Alpha  occ. eigenvalues --   -0.64841  -0.64770  -0.64654  -0.64608  -0.64256
 Alpha  occ. eigenvalues --   -0.64202  -0.62285  -0.62278  -0.60429  -0.60339
 Alpha  occ. eigenvalues --   -0.59797  -0.59791  -0.58992  -0.58974  -0.58491
 Alpha  occ. eigenvalues --   -0.58425  -0.57571  -0.57554  -0.57296  -0.57235
 Alpha  occ. eigenvalues --   -0.56297  -0.56204  -0.55965  -0.55887  -0.55507
 Alpha  occ. eigenvalues --   -0.55452  -0.55326  -0.55246  -0.54510  -0.54486
 Alpha  occ. eigenvalues --   -0.53914  -0.53882  -0.53286  -0.53227  -0.53209
 Alpha  occ. eigenvalues --   -0.53142  -0.52902  -0.52902  -0.52743  -0.52669
 Alpha  occ. eigenvalues --   -0.52425  -0.52397  -0.51902  -0.51883  -0.51660
 Alpha  occ. eigenvalues --   -0.51604  -0.51200  -0.51183  -0.50559  -0.50476
 Alpha  occ. eigenvalues --   -0.50018  -0.49980  -0.49905  -0.49865  -0.49502
 Alpha  occ. eigenvalues --   -0.49488  -0.49203  -0.49202  -0.49105  -0.49083
 Alpha  occ. eigenvalues --   -0.48580  -0.48559  -0.48448  -0.48432  -0.48374
 Alpha  occ. eigenvalues --   -0.48339  -0.47682  -0.47595  -0.47284  -0.47118
 Alpha  occ. eigenvalues --   -0.46784  -0.46708  -0.46555  -0.46542  -0.46346
 Alpha  occ. eigenvalues --   -0.46270  -0.46149  -0.46084  -0.45821  -0.45809
 Alpha  occ. eigenvalues --   -0.45206  -0.45188  -0.44565  -0.44514  -0.44494
 Alpha  occ. eigenvalues --   -0.44476  -0.44131  -0.44127  -0.44077  -0.44075
 Alpha  occ. eigenvalues --   -0.44006  -0.43940  -0.43553  -0.43482  -0.43386
 Alpha  occ. eigenvalues --   -0.43373  -0.43014  -0.42930  -0.42901  -0.42686
 Alpha  occ. eigenvalues --   -0.42642  -0.42551  -0.41996  -0.41963  -0.41691
 Alpha  occ. eigenvalues --   -0.41669  -0.41521  -0.41459  -0.41128  -0.40989
 Alpha  occ. eigenvalues --   -0.40856  -0.40810  -0.40723  -0.40699  -0.40558
 Alpha  occ. eigenvalues --   -0.40491  -0.40228  -0.40221  -0.39428  -0.39422
 Alpha  occ. eigenvalues --   -0.38456  -0.38348  -0.37735  -0.37655  -0.37307
 Alpha  occ. eigenvalues --   -0.37264  -0.37251  -0.37200  -0.36771  -0.36700
 Alpha  occ. eigenvalues --   -0.36216  -0.36179  -0.34273  -0.34253  -0.33862
 Alpha  occ. eigenvalues --   -0.33757  -0.33175  -0.33173  -0.31331  -0.31274
 Alpha  occ. eigenvalues --   -0.31022  -0.30973  -0.30016  -0.29955  -0.29436
 Alpha  occ. eigenvalues --   -0.29327  -0.29309  -0.29211  -0.24067  -0.24036
 Alpha  occ. eigenvalues --   -0.21117  -0.21115
 Alpha virt. eigenvalues --   -0.08792  -0.08761  -0.01737  -0.01683  -0.00045
 Alpha virt. eigenvalues --   -0.00029   0.02208   0.02213   0.03136   0.03228
 Alpha virt. eigenvalues --    0.04730   0.04731   0.05111   0.05165   0.06181

 Mulliken charges:
               1
     1  Mg   0.838725
     2  C   -0.002961
     3  C   -0.094112
     4  C   -0.045845
     5  C   -0.063956
     6  N   -0.256771
     7  C   -0.052472
     8  C   -0.014019
     9  C   -0.087002
    10  C    0.046319
    11  C    0.104817
    12  C    0.053472
    13  C   -0.071807
    14  H    0.036135
    15  N   -0.433132
    16  C    0.168419
    17  C   -0.177149
    18  C   -0.004005
    19  C    0.148701
    20  C    0.110177
    21  C    0.012291
    22  O   -0.249620
    23  C    0.062475
    24  N   -0.341111
    25  C    0.041221
    26  C   -0.028185
    27  C   -0.023962
    28  C    0.074849
    29  C    0.076171
    30  C    0.035115
    31  C   -0.004502
    32  N   -0.310477
    33  C    0.080401
    34  C   -0.169711
    35  C    0.008347
    36  C    0.082995
    37  C    0.127310
    38  C    0.046120
    39  O   -0.188439
    40  C   -0.005337
    41  C    0.212878
    42  O   -0.257098
    43  O   -0.304803
    44  C    0.157697
    45  H   -0.017611
    46  H   -0.016835
    47  H   -0.041492
    48  H    0.000936
    49  H   -0.004035
    50  H    0.025470
    51  H    0.016444
    52  H    0.016648
    53  H    0.011212
    54  H    0.044130
    55  H    0.017863
    56  H    0.017948
    57  H    0.005869
    58  H    0.026818
    59  H    0.039563
    60  H    0.037336
    61  H    0.035660
    62  H    0.031513
    63  H    0.016564
    64  H    0.009455
    65  H    0.023215
    66  H    0.012539
    67  H    0.004747
    68  H    0.006367
    69  H    0.004730
    70  H    0.008787
    71  H    0.018148
    72  H    0.028986
    73  H    0.047575
    74  H    0.009113
    75  H    0.046001
    76  H    0.035143
    77  H    0.042944
    78  H    0.046396
    79  H    0.053694
    80  Mg   0.837878
    81  C   -0.016792
    82  C   -0.087819
    83  C   -0.045524
    84  C   -0.064839
    85  N   -0.254571
    86  C   -0.049857
    87  C   -0.015084
    88  C   -0.090501
    89  C    0.045750
    90  C    0.114386
    91  C    0.062512
    92  C   -0.077890
    93  H    0.034903
    94  N   -0.423493
    95  C    0.162927
    96  C   -0.174628
    97  C   -0.007822
    98  C    0.152120
    99  C    0.099363
   100  C    0.015579
   101  O   -0.253163
   102  C    0.061197
   103  N   -0.350086
   104  C    0.037531
   105  C   -0.019841
   106  C   -0.034847
   107  C    0.088930
   108  C    0.073636
   109  C    0.034735
   110  C   -0.007688
   111  N   -0.324121
   112  C    0.078461
   113  C   -0.163106
   114  C    0.002266
   115  C    0.096178
   116  C    0.131484
   117  C    0.042388
   118  O   -0.187850
   119  C    0.000903
   120  C    0.211242
   121  O   -0.251011
   122  O   -0.305630
   123  C    0.152029
   124  H   -0.019679
   125  H   -0.015543
   126  H   -0.040391
   127  H   -0.000651
   128  H   -0.004339
   129  H    0.022467
   130  H    0.014431
   131  H    0.016261
   132  H    0.013919
   133  H    0.037686
   134  H    0.020782
   135  H    0.019583
   136  H    0.008749
   137  H    0.026127
   138  H    0.039788
   139  H    0.038236
   140  H    0.036398
   141  H    0.033894
   142  H    0.014407
   143  H    0.012499
   144  H    0.025177
   145  H    0.011620
   146  H    0.005764
   147  H    0.006323
   148  H    0.003698
   149  H    0.010932
   150  H    0.017956
   151  H    0.030064
   152  H    0.046024
   153  H    0.008565
   154  H    0.046994
   155  H    0.035035
   156  H    0.043918
   157  H    0.049481
   158  H    0.053586
 Sum of Mulliken charges =  -0.00000

 Dipole moment (field-independent basis, Debye):
    X=              2.1939    Y=              3.9645    Z=             -7.5698  Tot=              8.8222
 Quadrupole moment (field-independent basis, Debye-Ang):
   XX=           -443.6363   YY=           -563.5912   ZZ=           -449.2694
   XY=             -4.1512   XZ=             35.6956   YZ=             11.4222

 Normal termination of Gaussian 16 at Sun Sep 12 20:48:00 2021.
