 Gaussian 16, Revision A.03,
 Gaussian 16:  ES64L-G16RevA.03 25-Dec-2016

 -----------------------------------
 #p cam-b3lyp/Def2SVP td=(nstates=5)
 -----------------------------------

 --------------------------------
 TDDFT excited states in gaussian
 --------------------------------
 Symbolic Z-matrix:
 Charge =  0 Multiplicity = 1

                         Standard orientation:
 ---------------------------------------------------------------------
 Center     Atomic      Atomic             Coordinates (Angstroms)
 Number     Number       Type             X           Y           Z
 ---------------------------------------------------------------------
      1         12           0       -4.590712    0.009288    0.393437
      2          6           0       -4.117207    3.456572    1.232626
      3          6           0       -5.605373    1.053838   -2.692409
      4          6           0       -5.446074   -2.982497   -0.218284
      5          6           0       -4.637641   -0.663920    3.812538
      6          7           0       -4.790881    2.025793   -0.497790
      7          6           0       -4.519959    3.261852   -0.090446
      8          6           0       -4.631493    4.324439   -1.224396
      9          6           0       -5.629059    3.550145   -2.197705
     10          6           0       -5.298398    2.122712   -1.798929
     11          6           0       -7.100940    3.815389   -1.898182
     12          6           0       -3.254867    4.601357   -1.917179
     13          6           0       -3.208903    5.849179   -2.803847
     14          1           0       -1.981579    6.629390   -2.851755
     15          7           0       -4.937301   -0.897876   -1.326964
     16          6           0       -5.326731   -0.314604   -2.486026
     17          6           0       -5.450705   -1.409782   -3.471875
     18          6           0       -5.285929   -2.698400   -2.743587
     19          6           0       -5.242064   -2.239574   -1.378694
     20          6           0       -5.651026   -1.178190   -4.938159
     21          6           0       -5.194672   -4.118945   -3.203865
     22          8           0       -5.286313   -5.103674   -2.393628
     23          6           0       -5.082398   -4.332368   -4.658131
     24          7           0       -5.206537   -1.569166    1.612812
     25          6           0       -5.460952   -2.778230    1.100541
     26          6           0       -5.606451   -3.809147    2.180347
     27          6           0       -5.155783   -3.095937    3.536069
     28          6           0       -4.892899   -1.675029    2.979129
     29          6           0       -7.012302   -4.399361    2.357095
     30          6           0       -4.036177   -3.785923    4.355106
     31          6           0       -2.732344   -3.729708    3.590935
     32          7           0       -4.237000    1.133168    2.216299
     33          6           0       -4.333462    0.657707    3.532090
     34          6           0       -4.111466    1.809807    4.425092
     35          6           0       -3.916454    2.885622    3.561126
     36          6           0       -4.036703    2.439142    2.214097
     37          6           0       -4.165031    1.784784    5.846689
     38          6           0       -3.658900    4.313166    3.462944
     39          8           0       -3.375518    5.200644    4.268903
     40          6           0       -3.899360    4.763116    1.954450
     41          6           0       -2.725992    5.608422    1.539751
     42          8           0       -1.586834    5.111129    1.428463
     43          8           0       -3.166628    6.801730    1.112672
     44          6           0       -2.054495    7.678704    0.658545
     45          1           0       -6.161697    1.272783   -3.605922
     46          1           0       -5.634321   -4.045162   -0.384845
     47          1           0       -4.553841   -0.813678    4.890500
     48          1           0       -5.072606    5.272733   -0.916853
     49          1           0       -5.385189    3.716685   -3.246758
     50          1           0       -7.223304    4.392422   -0.981677
     51          1           0       -7.558362    2.831473   -1.792504
     52          1           0       -7.591629    4.283829   -2.751742
     53          1           0       -3.069416    3.833302   -2.668018
     54          1           0       -2.454789    4.654642   -1.178015
     55          1           0       -4.066937    6.497581   -2.624235
     56          1           0       -3.319403    5.534921   -3.841745
     57          1           0       -5.900326   -0.139008   -5.149098
     58          1           0       -6.540901   -1.735613   -5.229896
     59          1           0       -4.797366   -1.514035   -5.527060
     60          1           0       -5.948886   -3.894445   -5.154087
     61          1           0       -4.937984   -5.403523   -4.794590
     62          1           0       -4.211245   -3.791012   -5.028231
     63          1           0       -4.958353   -4.664569    1.994203
     64          1           0       -5.981199   -3.000380    4.241924
     65          1           0       -7.046230   -5.485133    2.264078
     66          1           0       -7.671146   -3.923887    1.631051
     67          1           0       -7.501816   -4.140996    3.295733
     68          1           0       -4.272611   -4.838227    4.509055
     69          1           0       -3.879125   -3.334517    5.334810
     70          1           0       -2.806942   -4.584020    2.919059
     71          1           0       -1.887498   -3.840816    4.271450
     72          1           0       -2.671360   -2.833596    2.973075
     73          1           0       -3.316528    2.373989    6.194323
     74          1           0       -4.120974    0.764367    6.226702
     75          1           0       -5.133418    2.253670    6.020556
     76          1           0       -4.833424    5.323854    1.939693
     77          1           0       -2.123558    8.605580    1.228076
     78          1           0       -2.135037    7.744442   -0.426626
     79          1           0       -1.046693    7.352450    0.917836
     80         12           0        4.235404   -1.518129   -0.483553
     81          6           0        6.004251    1.569397   -0.017281
     82          6           0        2.270089    0.121282   -2.738425
     83          6           0        2.378340   -4.088847   -0.584371
     84          6           0        5.553783   -2.573015    2.565180
     85          7           0        4.235824    0.574124   -1.200986
     86          6           0        4.993762    1.641343   -0.998685
     87          6           0        4.701642    2.828383   -1.955338
     88          6           0        3.184208    2.464088   -2.334209
     89          6           0        3.233207    0.953530   -2.114028
     90          6           0        2.165686    3.054078   -1.373022
     91          6           0        5.628268    2.817597   -3.221535
     92          6           0        5.612288    4.109785   -4.041155
     93          1           0        6.851708    4.544615   -4.679305
     94          7           0        2.897216   -2.083517   -1.835651
     95          6           0        2.211530   -1.288645   -2.683770
     96          6           0        1.338979   -2.184697   -3.458305
     97          6           0        1.445186   -3.553877   -2.884908
     98          6           0        2.245909   -3.285117   -1.707331
     99          6           0        0.574366   -1.730655   -4.667701
    100          6           0        0.903599   -4.882829   -3.317092
    101          8           0        0.920115   -5.901743   -2.539681
    102          6           0        0.268939   -4.932550   -4.642322
    103          7           0        3.827183   -3.017660    0.897428
    104          6           0        3.023982   -4.048618    0.581323
    105          6           0        3.097402   -5.137318    1.625215
    106          6           0        4.305151   -4.726881    2.589823
    107          6           0        4.679913   -3.366720    1.961402
    108          6           0        1.831997   -5.348616    2.456176
    109          6           0        5.428322   -5.779379    2.798187
    110          6           0        6.191885   -5.981408    1.509178
    111          7           0        5.682611   -0.760749    0.930661
    112          6           0        6.066813   -1.348909    2.155626
    113          6           0        6.991760   -0.407489    2.819428
    114          6           0        7.064098    0.681901    1.938241
    115          6           0        6.226536    0.445566    0.814796
    116          6           0        7.596518   -0.595137    4.094248
    117          6           0        7.650285    1.982701    1.708045
    118          8           0        8.504082    2.663415    2.274965
    119          6           0        6.892193    2.670614    0.492124
    120          6           0        7.927955    3.226234   -0.446491
    121          8           0        8.697139    2.466045   -1.060560
    122          8           0        7.697633    4.539164   -0.629588
    123          6           0        8.692656    5.132940   -1.561885
    124          1           0        1.455756    0.592984   -3.289101
    125          1           0        1.843162   -5.040589   -0.619960
    126          1           0        6.083972   -2.871446    3.472107
    127          1           0        4.744526    3.806631   -1.491678
    128          1           0        2.971800    2.690911   -3.375739
    129          1           0        2.638518    3.524265   -0.523616
    130          1           0        1.549424    2.224571   -1.051804
    131          1           0        1.497592    3.737730   -1.904635
    132          1           0        5.214963    2.120471   -3.961770
    133          1           0        6.637445    2.572430   -2.953066
    134          1           0        5.150511    4.939937   -3.492939
    135          1           0        4.960404    3.964157   -4.905938
    136          1           0        0.561945   -0.636712   -4.748444
    137          1           0       -0.473955   -2.002849   -4.504005
    138          1           0        0.922706   -2.203693   -5.588336
    139          1           0       -0.556499   -4.225382   -4.674184
    140          1           0        0.024799   -5.983304   -4.810165
    141          1           0        0.996622   -4.600852   -5.391370
    142          1           0        3.320585   -6.094671    1.170505
    143          1           0        3.956879   -4.515694    3.611559
    144          1           0        1.443229   -6.383127    2.403979
    145          1           0        1.082554   -4.643446    2.122083
    146          1           0        1.926566   -5.102162    3.512358
    147          1           0        4.995599   -6.748678    3.057763
    148          1           0        6.125721   -5.516532    3.586561
    149          1           0        5.570604   -6.698329    0.964096
    150          1           0        7.180906   -6.388484    1.709568
    151          1           0        6.222117   -5.057080    0.920647
    152          1           0        8.630961   -0.294019    3.995482
    153          1           0        7.512211   -1.627852    4.426147
    154          1           0        6.988272    0.081724    4.700197
    155          1           0        6.252482    3.451745    0.904655
    156          1           0        9.158461    5.973844   -1.038834
    157          1           0        8.133703    5.363262   -2.488317
    158          1           0        9.560190    4.535280   -1.816148
 ---------------------------------------------------------------------

 SCF Done:  E(RCAM-B3LYP) =  -4069.81131063     A.U. after   19 cycles

 Excitation energies and oscillator strengths:

 Excited State   1:      Singlet-A      1.6433 eV  754.46 nm  f=0.0739  <S**2>=0.000
     309 -> 315       -0.11367
     310 -> 316        0.12092
     311 -> 313       -0.46913
     312 -> 314        0.50312
 This state for optimization and/or second-order correction.
 Total Energy, E(TD-HF/TD-DFT) =  -4069.75091865
 Copying the excited state density for this state as the 1-particle RhoCI density.

 Excited State   2:      Singlet-A      1.7037 eV  727.72 nm  f=0.6434  <S**2>=0.000
     309 -> 315        0.13367
     310 -> 316        0.12276
     311 -> 313        0.50027
     312 -> 314        0.46656

 Excited State   3:      Singlet-A      2.1792 eV  568.94 nm  f=0.0118  <S**2>=0.000
     309 -> 313       -0.32927
     310 -> 314        0.55548
     311 -> 315        0.13565
     312 -> 316       -0.22963

 Excited State   4:      Singlet-A      2.1956 eV  564.69 nm  f=0.1620  <S**2>=0.000
     309 -> 313        0.55013
     310 -> 314        0.32448
     311 -> 315       -0.24277
     312 -> 316       -0.14337

 Excited State   5:      Singlet-A      2.3080 eV  537.20 nm  f=0.0000  <S**2>=0.000
     312 -> 313        0.70685

 The electronic state is 1-A.
 Alpha  occ. eigenvalues --  -46.87994 -46.87455 -19.26549 -19.26171 -19.19293
 Alpha  occ. eigenvalues --  -19.18981 -19.18973 -19.18547 -19.18364 -19.17849
 Alpha  occ. eigenvalues --  -14.42665 -14.42273 -14.41633 -14.41164 -14.39602
 Alpha  occ. eigenvalues --  -14.39155 -14.38783 -14.38394 -10.39345 -10.38904
 Alpha  occ. eigenvalues --  -10.35610 -10.35233 -10.34588 -10.34022 -10.31952
 Alpha  occ. eigenvalues --  -10.31627 -10.31606 -10.31145 -10.31073 -10.30809
 Alpha  occ. eigenvalues --  -10.30779 -10.30686 -10.30384 -10.30200 -10.30165
 Alpha  occ. eigenvalues --  -10.30076 -10.29963 -10.29829 -10.29699 -10.29452
 Alpha  occ. eigenvalues --  -10.29248 -10.29223 -10.29047 -10.28956 -10.28575
 Alpha  occ. eigenvalues --  -10.28518 -10.28456 -10.28383 -10.28202 -10.27992
 Alpha  occ. eigenvalues --  -10.27942 -10.27810 -10.27809 -10.27793 -10.27764
 Alpha  occ. eigenvalues --  -10.27620 -10.27614 -10.27546 -10.27457 -10.27432
 Alpha  occ. eigenvalues --  -10.27379 -10.27370 -10.27296 -10.27271 -10.27225
 Alpha  occ. eigenvalues --  -10.27115 -10.26826 -10.26651 -10.26508 -10.26461
 Alpha  occ. eigenvalues --  -10.26355 -10.26277 -10.26203 -10.26013 -10.25998
 Alpha  occ. eigenvalues --  -10.25748 -10.25662 -10.25520 -10.25454 -10.25267
 Alpha  occ. eigenvalues --  -10.25030 -10.24956 -10.24753 -10.24674 -10.24610
 Alpha  occ. eigenvalues --  -10.24493  -3.16736  -3.16204  -1.91617  -1.91204
 Alpha  occ. eigenvalues --   -1.91086  -1.91046  -1.90675  -1.90512  -1.16898
 Alpha  occ. eigenvalues --   -1.16464  -1.08824  -1.08454  -1.07365  -1.06911
 Alpha  occ. eigenvalues --   -1.06794  -1.06765  -1.04800  -1.04273  -1.03950
 Alpha  occ. eigenvalues --   -1.03459  -1.03427  -1.02845  -1.02603  -1.01911
 Alpha  occ. eigenvalues --   -0.92181  -0.91775  -0.89675  -0.89464  -0.89321
 Alpha  occ. eigenvalues --   -0.88868  -0.88430  -0.88059  -0.88055  -0.87897
 Alpha  occ. eigenvalues --   -0.87598  -0.87496  -0.87483  -0.86987  -0.85246
 Alpha  occ. eigenvalues --   -0.84765  -0.84073  -0.83720  -0.83167  -0.82888
 Alpha  occ. eigenvalues --   -0.82814  -0.82438  -0.81814  -0.81408  -0.80816
 Alpha  occ. eigenvalues --   -0.80256  -0.79011  -0.78478  -0.77437  -0.77161
 Alpha  occ. eigenvalues --   -0.76950  -0.76687  -0.76155  -0.75588  -0.75052
 Alpha  occ. eigenvalues --   -0.74630  -0.72967  -0.72502  -0.71868  -0.71353
 Alpha  occ. eigenvalues --   -0.70028  -0.69603  -0.69121  -0.68605  -0.67847
 Alpha  occ. eigenvalues --   -0.67506  -0.67419  -0.67026  -0.65545  -0.65060
 Alpha  occ. eigenvalues --   -0.65046  -0.64833  -0.64573  -0.64450  -0.64425
 Alpha  occ. eigenvalues --   -0.64030  -0.62520  -0.62097  -0.60636  -0.60191
 Alpha  occ. eigenvalues --   -0.60053  -0.59548  -0.59181  -0.58797  -0.58702
 Alpha  occ. eigenvalues --   -0.58235  -0.57806  -0.57489  -0.57352  -0.57067
 Alpha  occ. eigenvalues --   -0.56518  -0.56231  -0.56024  -0.55731  -0.55708
 Alpha  occ. eigenvalues --   -0.55506  -0.55280  -0.55077  -0.54709  -0.54319
 Alpha  occ. eigenvalues --   -0.54173  -0.53650  -0.53504  -0.53467  -0.53140
 Alpha  occ. eigenvalues --   -0.53055  -0.53008  -0.52949  -0.52715  -0.52557
 Alpha  occ. eigenvalues --   -0.52498  -0.52257  -0.52092  -0.51888  -0.51692
 Alpha  occ. eigenvalues --   -0.51458  -0.51395  -0.51008  -0.50814  -0.50375
 Alpha  occ. eigenvalues --   -0.50210  -0.50116  -0.49789  -0.49749  -0.49695
 Alpha  occ. eigenvalues --   -0.49438  -0.49331  -0.49283  -0.48998  -0.48826
 Alpha  occ. eigenvalues --   -0.48813  -0.48641  -0.48612  -0.48338  -0.48216
 Alpha  occ. eigenvalues --   -0.48167  -0.47911  -0.47498  -0.47409  -0.46996
 Alpha  occ. eigenvalues --   -0.46964  -0.46820  -0.46552  -0.46518  -0.46343
 Alpha  occ. eigenvalues --   -0.46319  -0.46103  -0.46033  -0.45908  -0.45619
 Alpha  occ. eigenvalues --   -0.45350  -0.45036  -0.44791  -0.44726  -0.44344
 Alpha  occ. eigenvalues --   -0.44324  -0.44311  -0.44263  -0.44229  -0.43924
 Alpha  occ. eigenvalues --   -0.43866  -0.43765  -0.43710  -0.43603  -0.43366
 Alpha  occ. eigenvalues --   -0.43223  -0.43169  -0.42932  -0.42798  -0.42749
 Alpha  occ. eigenvalues --   -0.42702  -0.42392  -0.42194  -0.41909  -0.41788
 Alpha  occ. eigenvalues --   -0.41780  -0.41460  -0.41344  -0.41252  -0.41109
 Alpha  occ. eigenvalues --   -0.41037  -0.40749  -0.40720  -0.40564  -0.40548
 Alpha  occ. eigenvalues --   -0.40488  -0.40297  -0.40032  -0.39554  -0.39277
 Alpha  occ. eigenvalues --   -0.38635  -0.38174  -0.38058  -0.37518  -0.37488
 Alpha  occ. eigenvalues --   -0.37462  -0.37082  -0.36981  -0.36945  -0.36596
 Alpha  occ. eigenvalues --   -0.36396  -0.36030  -0.34485  -0.34049  -0.34030
 Alpha  occ. eigenvalues --   -0.33677  -0.33387  -0.32977  -0.31499  -0.31231
 Alpha  occ. eigenvalues --   -0.31102  -0.30764  -0.30225  -0.29751  -0.29652
 Alpha  occ. eigenvalues --   -0.29517  -0.29149  -0.29012  -0.24278  -0.23829
 Alpha  occ. eigenvalues --   -0.21328  -0.20916
 Alpha virt. eigenvalues --   -0.08975  -0.08598  -0.01939  -0.01487  -0.00264
 Alpha virt. eigenvalues --    0.00160   0.02012   0.02392   0.02723   0.03466
 Alpha virt. eigenvalues --    0.04459   0.04811   0.04959   0.05353   0.05783

 Mulliken charges:
               1
     1  Mg   0.838673
     2  C   -0.003696
     3  C   -0.096062
     4  C   -0.043940
     5  C   -0.063427
     6  N   -0.256704
     7  C   -0.053147
     8  C   -0.013689
     9  C   -0.086692
    10  C    0.045615
    11  C    0.104733
    12  C    0.053362
    13  C   -0.071368
    14  H    0.034002
    15  N   -0.433054
    16  C    0.167721
    17  C   -0.179357
    18  C   -0.004920
    19  C    0.149446
    20  C    0.110410
    21  C    0.012683
    22  O   -0.246404
    23  C    0.062836
    24  N   -0.341157
    25  C    0.041129
    26  C   -0.028656
    27  C   -0.024188
    28  C    0.075186
    29  C    0.075918
    30  C    0.035185
    31  C   -0.006439
    32  N   -0.310560
    33  C    0.080709
    34  C   -0.169179
    35  C    0.008557
    36  C    0.083144
    37  C    0.127227
    38  C    0.046324
    39  O   -0.187756
    40  C   -0.005465
    41  C    0.213183
    42  O   -0.258319
    43  O   -0.304442
    44  C    0.157538
    45  H   -0.017732
    46  H   -0.015344
    47  H   -0.040895
    48  H    0.001535
    49  H   -0.004979
    50  H    0.025852
    51  H    0.017008
    52  H    0.016846
    53  H    0.008357
    54  H    0.043256
    55  H    0.019579
    56  H    0.017520
    57  H    0.005658
    58  H    0.027821
    59  H    0.036346
    60  H    0.037636
    61  H    0.038060
    62  H    0.026496
    63  H    0.018538
    64  H    0.009710
    65  H    0.024100
    66  H    0.012353
    67  H    0.004843
    68  H    0.006874
    69  H    0.004320
    70  H    0.011971
    71  H    0.017596
    72  H    0.029399
    73  H    0.048065
    74  H    0.009494
    75  H    0.046392
    76  H    0.035522
    77  H    0.044084
    78  H    0.045716
    79  H    0.053166
    80  Mg   0.838531
    81  C   -0.016591
    82  C   -0.088127
    83  C   -0.045604
    84  C   -0.064844
    85  N   -0.254849
    86  C   -0.048062
    87  C   -0.015165
    88  C   -0.091412
    89  C    0.047085
    90  C    0.115818
    91  C    0.062717
    92  C   -0.077147
    93  H    0.033713
    94  N   -0.423441
    95  C    0.162896
    96  C   -0.174887
    97  C   -0.007627
    98  C    0.151447
    99  C    0.099475
   100  C    0.016869
   101  O   -0.251725
   102  C    0.061206
   103  N   -0.349864
   104  C    0.037248
   105  C   -0.019873
   106  C   -0.034857
   107  C    0.089067
   108  C    0.073274
   109  C    0.034840
   110  C   -0.007579
   111  N   -0.324272
   112  C    0.078944
   113  C   -0.162944
   114  C    0.002740
   115  C    0.096443
   116  C    0.131301
   117  C    0.042676
   118  O   -0.187972
   119  C    0.000728
   120  C    0.211004
   121  O   -0.251560
   122  O   -0.305176
   123  C    0.152278
   124  H   -0.020381
   125  H   -0.015256
   126  H   -0.040861
   127  H    0.000035
   128  H   -0.006862
   129  H    0.026847
   130  H    0.017422
   131  H    0.016160
   132  H    0.013138
   133  H    0.037240
   134  H    0.020876
   135  H    0.018549
   136  H    0.007783
   137  H    0.024002
   138  H    0.038274
   139  H    0.035280
   140  H    0.037152
   141  H    0.032975
   142  H    0.014161
   143  H    0.012058
   144  H    0.024560
   145  H    0.013310
   146  H    0.004302
   147  H    0.005724
   148  H    0.003446
   149  H    0.010804
   150  H    0.017550
   151  H    0.030344
   152  H    0.045610
   153  H    0.007991
   154  H    0.047885
   155  H    0.037065
   156  H    0.043691
   157  H    0.049135
   158  H    0.053156
 Sum of Mulliken charges =  -0.00000

 Dipole moment (field-independent basis, Debye):
    X=             -6.3513    Y=              0.7966    Z=             -5.5519  Tot=              8.4733
 Quadrupole moment (field-independent basis, Debye-Ang):
   XX=           -541.8946   YY=           -517.9559   ZZ=           -472.4355
   XY=            -18.2912   XZ=              6.6380   YZ=            -58.2835

 Normal termination of Gaussian 16 at Fri Sep 10 02:54:36 2021.
