 Gaussian 16, Revision A.03,
 Gaussian 16:  ES64L-G16RevA.03 25-Dec-2016

 -----------------------------------
 #p cam-b3lyp/Def2SVP td=(nstates=5)
 -----------------------------------

 --------------------------------
 TDDFT excited states in gaussian
 --------------------------------
 Symbolic Z-matrix:
 Charge =  0 Multiplicity = 1

                         Standard orientation:
 ---------------------------------------------------------------------
 Center     Atomic      Atomic             Coordinates (Angstroms)
 Number     Number       Type             X           Y           Z
 ---------------------------------------------------------------------
      1         12           0       -4.266303   -0.958398    0.321235
      2          6           0       -4.550301    1.922047    2.427082
      3          6           0       -5.445057    0.975514   -2.230938
      4          6           0       -4.455300   -3.588841   -1.439921
      5          6           0       -4.207754   -2.890131    3.221346
      6          7           0       -4.882549    1.166014    0.233152
      7          6           0       -4.886811    2.177407    1.095844
      8          6           0       -5.209779    3.551184    0.435690
      9          6           0       -6.007478    3.034068   -0.844258
     10          6           0       -5.383985    1.655981   -0.978633
     11          6           0       -7.505398    2.874272   -0.605085
     12          6           0       -3.916246    4.333248    0.027183
     13          6           0       -4.127815    5.809523   -0.320960
     14          1           0       -3.095150    6.769075    0.039886
     15          7           0       -4.391082   -1.182503   -1.637606
     16          6           0       -4.882764   -0.285367   -2.525683
     17          6           0       -4.758389   -0.918739   -3.856116
     18          6           0       -4.330414   -2.330261   -3.649873
     19          6           0       -4.401406   -2.432554   -2.214647
     20          6           0       -4.986626   -0.184410   -5.141581
     21          6           0       -3.932323   -3.417938   -4.596771
     22          8           0       -3.820722   -4.636141   -4.225152
     23          6           0       -3.760231   -3.029619   -6.008378
     24          7           0       -4.544560   -2.971057    0.800206
     25          6           0       -4.528730   -3.914541   -0.147724
     26          6           0       -4.462982   -5.288506    0.450471
     27          6           0       -4.190867   -5.079142    2.009918
     28          6           0       -4.231350   -3.531577    2.050852
     29          6           0       -5.712136   -6.160552    0.262963
     30          6           0       -2.959195   -5.800931    2.611935
     31          6           0       -1.688770   -5.204684    2.048369
     32          7           0       -4.182072   -0.576698    2.456242
     33          6           0       -4.189874   -1.530556    3.484234
     34          6           0       -4.229594   -0.791177    4.759307
     35          6           0       -4.259067    0.549860    4.381688
     36          6           0       -4.265534    0.641688    2.960485
     37          6           0       -4.292994   -1.370844    6.057151
     38          6           0       -4.311476    1.925949    4.848046
     39          8           0       -4.233666    2.471780    5.949639
     40          6           0       -4.625107    2.865875    3.601449
     41          6           0       -3.654823    4.014843    3.643054
     42          8           0       -2.434490    3.828570    3.460144
     43          8           0       -4.335373    5.171252    3.653683
     44          6           0       -3.431217    6.352153    3.665050
     45          1           0       -6.024731    1.417134   -3.043890
     46          1           0       -4.410122   -4.520364   -2.007954
     47          1           0       -4.106342   -3.423727    4.168153
     48          1           0       -5.846912    4.203795    1.032838
     49          1           0       -5.792736    3.634926   -1.727761
     50          1           0       -7.758851    3.019054    0.445020
     51          1           0       -7.743134    1.857189   -0.917364
     52          1           0       -8.074977    3.530716   -1.263445
     53          1           0       -3.562252    3.964492   -0.935505
     54          1           0       -3.154642    4.251459    0.803454
     55          1           0       -5.106628    6.160173    0.007489
     56          1           0       -4.156592    5.903696   -1.406549
     57          1           0       -5.449828    0.786666   -4.971287
     58          1           0       -5.733360   -0.747109   -5.701463
     59          1           0       -4.074164   -0.096350   -5.731488
     60          1           0       -4.694507   -2.610775   -6.382874
     61          1           0       -3.388635   -3.916188   -6.520981
     62          1           0       -3.020704   -2.230495   -6.067114
     63          1           0       -3.644915   -5.864030    0.019234
     64          1           0       -5.025731   -5.423636    2.620654
     65          1           0       -5.512127   -7.111439   -0.231522
     66          1           0       -6.448950   -5.579251   -0.290647
     67          1           0       -6.256372   -6.382790    1.180479
     68          1           0       -2.967005   -6.855667    2.339142
     69          1           0       -2.913587   -5.739938    3.699340
     70          1           0       -1.571273   -5.731855    1.102263
     71          1           0       -0.847619   -5.403673    2.713261
     72          1           0       -1.813598   -4.146378    1.818383
     73          1           0       -3.594112   -0.808938    6.676662
     74          1           0       -4.036241   -2.429614    6.030909
     75          1           0       -5.341165   -1.201328    6.303033
     76          1           0       -5.657205    3.197474    3.710712
     77          1           0       -3.703372    6.956465    4.530482
     78          1           0       -3.511405    6.813306    2.680513
     79          1           0       -2.380035    6.152402    3.875895
     80         12           0        4.685506   -0.295188   -0.226257
     81          6           0        2.885351    1.876418   -2.444955
     82          6           0        6.740514    2.342541    0.447445
     83          6           0        6.555727   -2.290955    1.382029
     84          6           0        3.239783   -2.983413   -1.908250
     85          7           0        4.707777    1.789520   -0.965010
     86          6           0        3.937359    2.518108   -1.758710
     87          6           0        4.266032    4.035189   -1.758443
     88          6           0        5.800027    3.948818   -1.291262
     89          6           0        5.747680    2.629811   -0.523046
     90          6           0        6.773238    3.789824   -2.447516
     91          6           0        3.395552    4.835181   -0.726795
     92          6           0        3.441953    6.356141   -0.888969
     93          1           0        2.229765    7.122697   -0.614278
     94          7           0        6.083679    0.069553    1.134122
     95          6           0        6.802426    1.202593    1.278720
     96          6           0        7.711591    0.960731    2.409679
     97          6           0        7.586107   -0.465485    2.815704
     98          6           0        6.733697   -0.967088    1.756511
     99          6           0        8.526333    2.049219    3.045925
    100          6           0        8.151477   -1.251198    3.959913
    101          8           0        8.105256   -2.531843    3.985325
    102          6           0        8.843507   -0.482350    5.004647
    103          7           0        5.039265   -2.337334   -0.390122
    104          6           0        5.859719   -2.967908    0.468456
    105          6           0        5.745320   -4.467363    0.330770
    106          6           0        4.494984   -4.715977   -0.634857
    107          6           0        4.142399   -3.251161   -0.974567
    108          6           0        6.974145   -5.179144   -0.234687
    109          6           0        3.368136   -5.643119   -0.102620
    110          6           0        2.662333   -4.982685    1.059730
    111          7           0        3.174911   -0.545477   -1.750561
    112          6           0        2.740080   -1.757798   -2.329610
    113          6           0        1.783207   -1.410369   -3.400183
    114          6           0        1.744896   -0.007947   -3.384908
    115          6           0        2.631609    0.484551   -2.389580
    116          6           0        1.124221   -2.334602   -4.259040
    117          6           0        1.163960    1.168121   -3.991612
    118          8           0        0.283470    1.369750   -4.826964
    119          6           0        1.971518    2.444032   -3.495365
    120          6           0        0.975394    3.486948   -3.068064
    121          8           0        0.236851    3.291097   -2.086848
    122          8           0        1.208094    4.623762   -3.749149
    123          6           0        0.252234    5.691674   -3.351994
    124          1           0        7.576146    3.034615    0.555374
    125          1           0        7.095856   -3.027270    1.981683
    126          1           0        2.671778   -3.767741   -2.413090
    127          1           0        4.198965    4.514683   -2.727653
    128          1           0        6.056722    4.768244   -0.624912
    129          1           0        6.261893    3.642008   -3.387095
    130          1           0        7.378308    2.925755   -2.206035
    131          1           0        7.461072    4.639604   -2.480851
    132          1           0        3.843596    4.738827    0.270561
    133          1           0        2.376649    4.500488   -0.747501
    134          1           0        3.875969    6.655058   -1.850856
    135          1           0        4.131522    6.763508   -0.145633
    136          1           0        8.537775    2.956116    2.428831
    137          1           0        9.567630    1.709281    3.048489
    138          1           0        8.220415    2.258653    4.073167
    139          1           0        9.666642    0.071748    4.559808
    140          1           0        9.099051   -1.207159    5.780024
    141          1           0        8.147828    0.260055    5.411429
    142          1           0        5.546112   -4.929688    1.289755
    143          1           0        4.797504   -5.193338   -1.578492
    144          1           0        7.369064   -5.966498    0.434785
    145          1           0        7.734542   -4.437106   -0.438962
    146          1           0        6.832603   -5.639688   -1.210937
    147          1           0        3.793101   -6.574047    0.280712
    148          1           0        2.635947   -5.910105   -0.857347
    149          1           0        3.309723   -5.220705    1.909031
    150          1           0        1.667187   -5.402434    1.192185
    151          1           0        2.653996   -3.892329    0.947007
    152          1           0        0.093839   -2.012647   -4.330898
    153          1           0        1.198203   -3.351807   -3.880104
    154          1           0        1.702678   -2.195139   -5.176213
    155          1           0        2.589425    2.784545   -4.327128
    156          1           0       -0.239387    6.036794   -4.266815
    157          1           0        0.850102    6.434090   -2.790633
    158          1           0       -0.600920    5.402060   -2.749766
 ---------------------------------------------------------------------

 SCF Done:  E(RCAM-B3LYP) =  -4069.81302821     A.U. after   19 cycles

 Excitation energies and oscillator strengths:

 Excited State   1:      Singlet-A      1.6450 eV  753.70 nm  f=0.1219  <S**2>=0.000
     309 -> 315       -0.12406
     310 -> 316        0.10955
     311 -> 313        0.51266
     312 -> 314        0.45848
 This state for optimization and/or second-order correction.
 Total Energy, E(TD-HF/TD-DFT) =  -4069.75257531
 Copying the excited state density for this state as the 1-particle RhoCI density.

 Excited State   2:      Singlet-A      1.7037 eV  727.72 nm  f=0.6096  <S**2>=0.000
     309 -> 315        0.12024
     310 -> 316        0.13441
     311 -> 313       -0.45611
     312 -> 314        0.51004

 Excited State   3:      Singlet-A      2.1791 eV  568.98 nm  f=0.0105  <S**2>=0.000
     309 -> 313        0.54490
     310 -> 314        0.34637
     311 -> 315        0.22574
     312 -> 316       -0.14174

 Excited State   4:      Singlet-A      2.1954 eV  564.75 nm  f=0.1617  <S**2>=0.000
     309 -> 313       -0.34212
     310 -> 314        0.53969
     311 -> 315       -0.15013
     312 -> 316       -0.23633

 Excited State   5:      Singlet-A      2.3097 eV  536.80 nm  f=0.0000  <S**2>=0.000
     312 -> 313        0.70633

 The electronic state is 1-A.
 Alpha  occ. eigenvalues --  -46.87561 -46.87229 -19.26478 -19.25891 -19.19259
 Alpha  occ. eigenvalues --  -19.18620 -19.18570 -19.18351 -19.18130 -19.17701
 Alpha  occ. eigenvalues --  -14.42400 -14.41884 -14.41271 -14.40935 -14.39257
 Alpha  occ. eigenvalues --  -14.38836 -14.38520 -14.38046 -10.39168 -10.38630
 Alpha  occ. eigenvalues --  -10.35296 -10.34981 -10.34299 -10.33922 -10.31962
 Alpha  occ. eigenvalues --  -10.31374 -10.31240 -10.30935 -10.30861 -10.30329
 Alpha  occ. eigenvalues --  -10.30321 -10.30293 -10.30031 -10.30023 -10.30012
 Alpha  occ. eigenvalues --  -10.29819 -10.29705 -10.29473 -10.29338 -10.29329
 Alpha  occ. eigenvalues --  -10.29124 -10.28702 -10.28638 -10.28579 -10.28336
 Alpha  occ. eigenvalues --  -10.28177 -10.28140 -10.28067 -10.27941 -10.27807
 Alpha  occ. eigenvalues --  -10.27581 -10.27576 -10.27412 -10.27409 -10.27388
 Alpha  occ. eigenvalues --  -10.27362 -10.27284 -10.27258 -10.27168 -10.27158
 Alpha  occ. eigenvalues --  -10.27121 -10.27085 -10.27046 -10.26874 -10.26740
 Alpha  occ. eigenvalues --  -10.26689 -10.26557 -10.26298 -10.26004 -10.25985
 Alpha  occ. eigenvalues --  -10.25979 -10.25948 -10.25873 -10.25831 -10.25801
 Alpha  occ. eigenvalues --  -10.25777 -10.25519 -10.25431 -10.25322 -10.25141
 Alpha  occ. eigenvalues --  -10.24824 -10.24611 -10.24583 -10.24523 -10.24312
 Alpha  occ. eigenvalues --  -10.24298  -3.16309  -3.15968  -1.91191  -1.90848
 Alpha  occ. eigenvalues --   -1.90780  -1.90618  -1.90437  -1.90279  -1.16763
 Alpha  occ. eigenvalues --   -1.16228  -1.08747  -1.08170  -1.07039  -1.06871
 Alpha  occ. eigenvalues --   -1.06764  -1.06198  -1.04408  -1.04020  -1.03576
 Alpha  occ. eigenvalues --   -1.03243  -1.02954  -1.02700  -1.02031  -1.01884
 Alpha  occ. eigenvalues --   -0.91945  -0.91459  -0.89405  -0.89114  -0.89069
 Alpha  occ. eigenvalues --   -0.88637  -0.88126  -0.87885  -0.87732  -0.87595
 Alpha  occ. eigenvalues --   -0.87377  -0.87125  -0.87028  -0.86698  -0.84919
 Alpha  occ. eigenvalues --   -0.84457  -0.83794  -0.83588  -0.82837  -0.82587
 Alpha  occ. eigenvalues --   -0.82471  -0.82147  -0.81612  -0.81143  -0.80407
 Alpha  occ. eigenvalues --   -0.80107  -0.78555  -0.78243  -0.77064  -0.76862
 Alpha  occ. eigenvalues --   -0.76760  -0.76478  -0.75810  -0.75448  -0.74739
 Alpha  occ. eigenvalues --   -0.74495  -0.72623  -0.72277  -0.71520  -0.71196
 Alpha  occ. eigenvalues --   -0.69659  -0.69570  -0.68757  -0.68367  -0.67542
 Alpha  occ. eigenvalues --   -0.67144  -0.67106  -0.66673  -0.65212  -0.64759
 Alpha  occ. eigenvalues --   -0.64722  -0.64604  -0.64375  -0.64166  -0.64120
 Alpha  occ. eigenvalues --   -0.63830  -0.62304  -0.61869  -0.60252  -0.59922
 Alpha  occ. eigenvalues --   -0.59718  -0.59260  -0.58930  -0.58501  -0.58381
 Alpha  occ. eigenvalues --   -0.58017  -0.57581  -0.57171  -0.57117  -0.56856
 Alpha  occ. eigenvalues --   -0.56152  -0.55906  -0.55805  -0.55537  -0.55413
 Alpha  occ. eigenvalues --   -0.55208  -0.55026  -0.54954  -0.54464  -0.54134
 Alpha  occ. eigenvalues --   -0.53832  -0.53351  -0.53157  -0.53101  -0.52859
 Alpha  occ. eigenvalues --   -0.52828  -0.52702  -0.52578  -0.52450  -0.52292
 Alpha  occ. eigenvalues --   -0.52221  -0.52099  -0.51838  -0.51581  -0.51463
 Alpha  occ. eigenvalues --   -0.51173  -0.51064  -0.50737  -0.50371  -0.49997
 Alpha  occ. eigenvalues --   -0.49895  -0.49786  -0.49600  -0.49417  -0.49385
 Alpha  occ. eigenvalues --   -0.49162  -0.49080  -0.49011  -0.48715  -0.48614
 Alpha  occ. eigenvalues --   -0.48540  -0.48347  -0.48258  -0.48154  -0.48044
 Alpha  occ. eigenvalues --   -0.47946  -0.47536  -0.47211  -0.47048  -0.46794
 Alpha  occ. eigenvalues --   -0.46635  -0.46480  -0.46337  -0.46209  -0.46048
 Alpha  occ. eigenvalues --   -0.46029  -0.45861  -0.45810  -0.45720  -0.45390
 Alpha  occ. eigenvalues --   -0.45138  -0.44808  -0.44494  -0.44398  -0.44135
 Alpha  occ. eigenvalues --   -0.44109  -0.44025  -0.44003  -0.43878  -0.43703
 Alpha  occ. eigenvalues --   -0.43619  -0.43578  -0.43516  -0.43322  -0.43059
 Alpha  occ. eigenvalues --   -0.42978  -0.42892  -0.42864  -0.42573  -0.42457
 Alpha  occ. eigenvalues --   -0.42302  -0.42278  -0.41878  -0.41644  -0.41596
 Alpha  occ. eigenvalues --   -0.41376  -0.41227  -0.41047  -0.40928  -0.40668
 Alpha  occ. eigenvalues --   -0.40632  -0.40603  -0.40424  -0.40406  -0.40327
 Alpha  occ. eigenvalues --   -0.40156  -0.40120  -0.39625  -0.39332  -0.39105
 Alpha  occ. eigenvalues --   -0.38254  -0.38067  -0.37571  -0.37236  -0.37181
 Alpha  occ. eigenvalues --   -0.37121  -0.36873  -0.36826  -0.36719  -0.36292
 Alpha  occ. eigenvalues --   -0.36158  -0.35743  -0.34182  -0.33914  -0.33762
 Alpha  occ. eigenvalues --   -0.33303  -0.33100  -0.32664  -0.31180  -0.30897
 Alpha  occ. eigenvalues --   -0.30883  -0.30521  -0.30038  -0.29566  -0.29255
 Alpha  occ. eigenvalues --   -0.29154  -0.28906  -0.28791  -0.23952  -0.23544
 Alpha  occ. eigenvalues --   -0.21034  -0.20595
 Alpha virt. eigenvalues --   -0.08719  -0.08236  -0.01592  -0.01235   0.00046
 Alpha virt. eigenvalues --    0.00471   0.02223   0.02673   0.03229   0.04078
 Alpha virt. eigenvalues --    0.04804   0.05086   0.05214   0.05553   0.06131

 Mulliken charges:
               1
     1  Mg   0.844096
     2  C   -0.001094
     3  C   -0.088855
     4  C   -0.048054
     5  C   -0.065222
     6  N   -0.256750
     7  C   -0.050199
     8  C   -0.016101
     9  C   -0.088377
    10  C    0.049776
    11  C    0.105132
    12  C    0.053808
    13  C   -0.070937
    14  H    0.030474
    15  N   -0.433088
    16  C    0.172630
    17  C   -0.171673
    18  C   -0.005334
    19  C    0.149027
    20  C    0.109670
    21  C    0.010310
    22  O   -0.252857
    23  C    0.060418
    24  N   -0.341155
    25  C    0.041716
    26  C   -0.027998
    27  C   -0.024065
    28  C    0.074120
    29  C    0.076631
    30  C    0.039272
    31  C   -0.014266
    32  N   -0.310031
    33  C    0.079830
    34  C   -0.171087
    35  C    0.007428
    36  C    0.082941
    37  C    0.127602
    38  C    0.045463
    39  O   -0.190820
    40  C   -0.005670
    41  C    0.212233
    42  O   -0.255466
    43  O   -0.305148
    44  C    0.158788
    45  H   -0.018429
    46  H   -0.018903
    47  H   -0.043360
    48  H   -0.001236
    49  H   -0.003817
    50  H    0.024601
    51  H    0.015944
    52  H    0.015352
    53  H    0.021951
    54  H    0.047307
    55  H    0.016207
    56  H    0.015429
    57  H    0.005524
    58  H    0.023773
    59  H    0.049765
    60  H    0.037017
    61  H    0.032960
    62  H    0.038360
    63  H    0.014356
    64  H    0.008718
    65  H    0.021789
    66  H    0.012788
    67  H    0.004097
    68  H    0.004441
    69  H    0.003873
    70  H    0.007963
    71  H    0.022861
    72  H    0.032112
    73  H    0.046275
    74  H    0.008008
    75  H    0.044816
    76  H    0.033967
    77  H    0.041281
    78  H    0.045843
    79  H    0.052677
    80  Mg   0.840555
    81  C   -0.016159
    82  C   -0.087483
    83  C   -0.045336
    84  C   -0.064887
    85  N   -0.254779
    86  C   -0.048989
    87  C   -0.015855
    88  C   -0.090758
    89  C    0.046755
    90  C    0.114478
    91  C    0.062289
    92  C   -0.077486
    93  H    0.033861
    94  N   -0.423483
    95  C    0.164066
    96  C   -0.174244
    97  C   -0.007291
    98  C    0.152642
    99  C    0.099401
   100  C    0.016109
   101  O   -0.253176
   102  C    0.060875
   103  N   -0.350097
   104  C    0.037755
   105  C   -0.020015
   106  C   -0.034098
   107  C    0.088556
   108  C    0.073755
   109  C    0.034025
   110  C   -0.010718
   111  N   -0.323805
   112  C    0.077652
   113  C   -0.162769
   114  C    0.000157
   115  C    0.096573
   116  C    0.130625
   117  C    0.042431
   118  O   -0.193677
   119  C    0.000978
   120  C    0.209623
   121  O   -0.249159
   122  O   -0.305487
   123  C    0.152690
   124  H   -0.019806
   125  H   -0.015552
   126  H   -0.039388
   127  H   -0.001789
   128  H   -0.004043
   129  H    0.021907
   130  H    0.014385
   131  H    0.016046
   132  H    0.016054
   133  H    0.039676
   134  H    0.019588
   135  H    0.019985
   136  H    0.008789
   137  H    0.025910
   138  H    0.040856
   139  H    0.037966
   140  H    0.036434
   141  H    0.034956
   142  H    0.014520
   143  H    0.012376
   144  H    0.024969
   145  H    0.011405
   146  H    0.005610
   147  H    0.005435
   148  H    0.004602
   149  H    0.009924
   150  H    0.020415
   151  H    0.030675
   152  H    0.043661
   153  H    0.013118
   154  H    0.045381
   155  H    0.034342
   156  H    0.041496
   157  H    0.050803
   158  H    0.051770
 Sum of Mulliken charges =  -0.00000

 Dipole moment (field-independent basis, Debye):
    X=              1.8214    Y=              3.1583    Z=             -3.2130  Tot=              4.8596
 Quadrupole moment (field-independent basis, Debye-Ang):
   XX=           -474.2868   YY=           -464.9362   ZZ=           -535.5453
   XY=             18.5065   XZ=             11.3457   YZ=            -19.3545

 Normal termination of Gaussian 16 at Thu Sep  9 20:01:24 2021.
