 Gaussian 16, Revision A.03,
 Gaussian 16:  ES64L-G16RevA.03 25-Dec-2016

 -----------------------------------
 #p cam-b3lyp/Def2SVP td=(nstates=5)
 -----------------------------------

 --------------------------------
 TDDFT excited states in gaussian
 --------------------------------
 Symbolic Z-matrix:
 Charge =  0 Multiplicity = 1

                         Standard orientation:
 ---------------------------------------------------------------------
 Center     Atomic      Atomic             Coordinates (Angstroms)
 Number     Number       Type             X           Y           Z
 ---------------------------------------------------------------------
      1         12           0      -15.538239    0.653331   -0.356120
      2          6           0      -15.813629   -2.430558    1.439988
      3          6           0      -16.455557    2.239576    2.522321
      4          6           0      -15.743950    3.338921   -2.030011
      5          6           0      -15.759536   -1.208541   -3.293827
      6          7           0      -16.042348   -0.107984    1.660541
      7          6           0      -16.051744   -1.306947    2.234623
      8          6           0      -16.264047   -1.251724    3.777105
      9          6           0      -17.003130    0.157294    3.879195
     10          6           0      -16.440914    0.817371    2.632545
     11          6           0      -18.519281    0.061301    3.742911
     12          6           0      -14.910222   -1.246843    4.563784
     13          6           0      -15.026304   -1.522329    6.065778
     14          1           0      -13.972741   -2.281819    6.721924
     15          7           0      -15.548952    2.536825    0.239853
     16          6           0      -15.938367    3.000593    1.451696
     17          6           0      -15.760871    4.467832    1.402857
     18          6           0      -15.416866    4.838172    0.001928
     19          6           0      -15.584020    3.572885   -0.666270
     20          6           0      -15.870411    5.350471    2.608138
     21          6           0      -15.013311    6.130010   -0.635591
     22          8           0      -14.985669    6.282785   -1.904634
     23          6           0      -14.732815    7.253394    0.276753
     24          7           0      -15.945116    1.046586   -2.365457
     25          6           0      -15.915422    2.295231   -2.843985
     26          6           0      -15.955571    2.306440   -4.343385
     27          6           0      -15.773301    0.787776   -4.801852
     28          6           0      -15.740111    0.121690   -3.404177
     29          6           0      -17.231649    2.880381   -4.974436
     30          6           0      -14.619460    0.485383   -5.790602
     31          6           0      -13.287941    0.708316   -5.109092
     32          7           0      -15.571401   -1.453553   -0.876682
     33          6           0      -15.691549   -2.002828   -2.161413
     34          6           0      -15.775923   -3.465955   -1.999524
     35          6           0      -15.715278   -3.666416   -0.621851
     36          6           0      -15.626740   -2.406708    0.036623
     37          6           0      -15.950254   -4.411748   -3.048103
     38          6           0      -15.729491   -4.650414    0.448385
     39          8           0      -15.695197   -5.880899    0.495536
     40          6           0      -15.916505   -3.883717    1.831508
     41          6           0      -14.895480   -4.426659    2.793813
     42          8           0      -13.676626   -4.230467    2.611414
     43          8           0      -15.517598   -4.881355    3.892340
     44          6           0      -14.558991   -5.407186    4.900669
     45          1           0      -16.959873    2.823669    3.294617
     46          1           0      -15.708596    4.234915   -2.653215
     47          1           0      -15.744977   -1.859063   -4.170218
     48          1           0      -16.905013   -2.038098    4.176107
     49          1           0      -16.703281    0.710589    4.768957
     50          1           0      -18.831633   -0.946221    3.468581
     51          1           0      -18.786415    0.769561    2.958372
     52          1           0      -19.012807    0.416450    4.647941
     53          1           0      -14.514241   -0.231709    4.591411
     54          1           0      -14.204525   -1.950957    4.121584
     55          1           0      -16.005597   -1.927491    6.322171
     56          1           0      -14.981252   -0.568975    6.592358
     57          1           0      -16.295168    4.817264    3.457736
     58          1           0      -16.606772    6.119042    2.374088
     59          1           0      -14.919024    5.818075    2.862188
     60          1           0      -15.619615    7.460202    0.876224
     61          1           0      -14.373419    8.068040   -0.350970
     62          1           0      -13.952626    6.953304    0.976895
     63          1           0      -15.141025    2.903117   -4.751939
     64          1           0      -16.661286    0.402643   -5.303678
     65          1           0      -17.047601    3.711239   -5.655984
     66          1           0      -17.902232    3.176932   -4.168417
     67          1           0      -17.843460    2.154424   -5.509311
     68          1           0      -14.661779    1.164171   -6.641720
     69          1           0      -14.640216   -0.533466   -6.177600
     70          1           0      -13.136540    1.781864   -5.215887
     71          1           0      -12.501632    0.150534   -5.618806
     72          1           0      -13.345650    0.491927   -4.042166
     73          1           0      -15.265424   -5.232582   -2.835482
     74          1           0      -15.744760   -3.966395   -4.021261
     75          1           0      -17.002337   -4.665149   -2.918625
     76          1           0      -16.935895   -4.079077    2.162868
     77          1           0      -14.855616   -6.432632    5.121367
     78          1           0      -14.553558   -4.693541    5.724736
     79          1           0      -13.534467   -5.558354    4.558853
     80         12           0       16.194147    0.291932    0.310788
     81          6           0       13.914545   -1.763145   -1.549081
     82          6           0       14.406394    2.989824   -0.766199
     83          6           0       18.438024    2.153470    1.562631
     84          6           0       18.414308   -2.394357    0.290820
     85          7           0       14.410502    0.463055   -0.985967
     86          6           0       13.593557   -0.390155   -1.585123
     87          6           0       12.320250    0.257212   -2.192704
     88          6           0       12.877744    1.751058   -2.383737
     89          6           0       13.943010    1.756222   -1.289270
     90          6           0       13.565708    1.970270   -3.720898
     91          6           0       11.101701    0.220812   -1.204854
     92          6           0        9.749402    0.553349   -1.839247
     93          1           0        8.562258   -0.144680   -1.353526
     94          7           0       16.141796    2.214292    0.801075
     95          6           0       15.338331    3.165310    0.280248
     96          6           0       15.703410    4.417384    0.960820
     97          6           0       16.900107    4.159589    1.807095
     98          6           0       17.226013    2.808079    1.398075
     99          6           0       14.894785    5.676118    0.837740
    100          6           0       17.637696    4.996180    2.808229
    101          8           0       18.792009    4.656382    3.249741
    102          6           0       17.010884    6.271307    3.185903
    103          7           0       18.223062    0.010330    0.666496
    104          6           0       18.957509    0.960954    1.270510
    105          6           0       20.314743    0.431415    1.667900
    106          6           0       20.249153   -1.147266    1.420824
    107          6           0       18.833188   -1.249603    0.812580
    108          6           0       21.505402    1.016114    0.908383
    109          6           0       20.604840   -2.063252    2.623794
    110          6           0       19.552471   -1.932171    3.701163
    111          7           0       16.127717   -1.776213   -0.310829
    112          6           0       17.178031   -2.718347   -0.253279
    113          6           0       16.688903   -3.955449   -0.895733
    114          6           0       15.385573   -3.637204   -1.306270
    115          6           0       15.090910   -2.290004   -0.963155
    116          6           0       17.439717   -5.150880   -1.078346
    117          6           0       14.195831   -4.131253   -1.961345
    118          8           0       13.829481   -5.226008   -2.386819
    119          6           0       13.235609   -2.900469   -2.260541
    120          6           0       11.847968   -3.275508   -1.817463
    121          8           0       11.599289   -3.469050   -0.614424
    122          8           0       11.000827   -3.131536   -2.852831
    123          6           0        9.609767   -3.481213   -2.459766
    124          1           0       14.055901    3.913444   -1.227690
    125          1           0       19.210615    2.717389    2.090429
    126          1           0       19.011505   -3.307787    0.331936
    127          1           0       12.015189   -0.150913   -3.148805
    128          1           0       12.109188    2.489666   -2.171259
    129          1           0       13.670708    1.049745   -4.275648
    130          1           0       14.537884    2.384150   -3.487182
    131          1           0       13.040232    2.739907   -4.293483
    132          1           0       11.188374    1.056380   -0.498407
    133          1           0       11.043606   -0.727166   -0.706274
    134          1           0        9.790138    0.525606   -2.934921
    135          1           0        9.502934    1.592135   -1.606425
    136          1           0       14.168069    5.608908    0.018736
    137          1           0       15.583054    6.469097    0.525766
    138          1           0       14.423153    5.967468    1.778668
    139          1           0       16.873290    6.883172    2.297554
    140          1           0       17.641094    6.683991    3.976100
    141          1           0       16.011086    6.065275    3.584083
    142          1           0       20.509378    0.615076    2.717411
    143          1           0       20.951688   -1.466544    0.637029
    144          1           0       22.260819    1.479319    1.570837
    145          1           0       21.133127    1.737634    0.193296
    146          1           0       22.037199    0.312051    0.270669
    147          1           0       21.549894   -1.748383    3.073113
    148          1           0       20.708940   -3.109011    2.354445
    149          1           0       19.865585   -1.035413    4.244177
    150          1           0       19.555867   -2.806851    4.348422
    151          1           0       18.567392   -1.727012    3.266215
    152          1           0       16.783293   -5.972626   -0.824712
    153          1           0       18.337693   -5.154135   -0.464006
    154          1           0       17.671697   -5.074616   -2.144009
    155          1           0       13.283320   -2.700560   -3.331674
    156          1           0        9.265490   -4.252605   -3.155549
    157          1           0        9.052565   -2.525594   -2.451224
    158          1           0        9.467935   -3.977423   -1.506814
 ---------------------------------------------------------------------

 SCF Done:  E(RCAM-B3LYP) =  -4069.81176826     A.U. after   19 cycles

 Excitation energies and oscillator strengths:

 Excited State   1:      Singlet-A      1.6753 eV  740.07 nm  f=0.2070  <S**2>=0.000
     310 -> 316        0.16819
     311 -> 314       -0.16845
     312 -> 313        0.66505
     310 <- 316        0.10139
 This state for optimization and/or second-order correction.
 Total Energy, E(TD-HF/TD-DFT) =  -4069.75020183
 Copying the excited state density for this state as the 1-particle RhoCI density.

 Excited State   2:      Singlet-A      1.6801 eV  737.95 nm  f=0.5702  <S**2>=0.000
     309 -> 315        0.17020
     311 -> 314        0.66468
     312 -> 313        0.16840
     309 <- 315        0.10190

 Excited State   3:      Singlet-A      2.1861 eV  567.16 nm  f=0.1016  <S**2>=0.000
     310 -> 313        0.64239
     312 -> 316       -0.27302

 Excited State   4:      Singlet-A      2.1925 eV  565.50 nm  f=0.0997  <S**2>=0.000
     309 -> 314        0.64062
     311 -> 315       -0.27821

 Excited State   5:      Singlet-A      3.0668 eV  404.28 nm  f=0.0000  <S**2>=0.000
     311 -> 313        0.70710

 The electronic state is 1-A.
 Alpha  occ. eigenvalues --  -46.87795 -46.87659 -19.26333 -19.26273 -19.19147
 Alpha  occ. eigenvalues --  -19.19010 -19.18818 -19.18715 -19.18165 -19.18046
 Alpha  occ. eigenvalues --  -14.42495 -14.42448 -14.41449 -14.41358 -14.39402
 Alpha  occ. eigenvalues --  -14.39350 -14.38598 -14.38585 -10.39077 -10.39070
 Alpha  occ. eigenvalues --  -10.35451 -10.35392 -10.34384 -10.34223 -10.31734
 Alpha  occ. eigenvalues --  -10.31665 -10.31402 -10.31305 -10.31020 -10.30906
 Alpha  occ. eigenvalues --  -10.30568 -10.30506 -10.30396 -10.30358 -10.30207
 Alpha  occ. eigenvalues --  -10.30141 -10.29920 -10.29894 -10.29630 -10.29436
 Alpha  occ. eigenvalues --  -10.29399 -10.29254 -10.28743 -10.28711 -10.28637
 Alpha  occ. eigenvalues --  -10.28529 -10.28402 -10.28363 -10.28134 -10.28112
 Alpha  occ. eigenvalues --  -10.27999 -10.27791 -10.27725 -10.27667 -10.27584
 Alpha  occ. eigenvalues --  -10.27520 -10.27503 -10.27482 -10.27481 -10.27467
 Alpha  occ. eigenvalues --  -10.27464 -10.27452 -10.27401 -10.27378 -10.27152
 Alpha  occ. eigenvalues --  -10.27043 -10.26698 -10.26681 -10.26417 -10.26416
 Alpha  occ. eigenvalues --  -10.26229 -10.26188 -10.26140 -10.26020 -10.26019
 Alpha  occ. eigenvalues --  -10.25933 -10.25850 -10.25840 -10.25438 -10.25401
 Alpha  occ. eigenvalues --  -10.24870 -10.24830 -10.24787 -10.24733 -10.24692
 Alpha  occ. eigenvalues --  -10.24689  -3.16538  -3.16409  -1.91420  -1.91291
 Alpha  occ. eigenvalues --   -1.91006  -1.90879  -1.90848  -1.90716  -1.16628
 Alpha  occ. eigenvalues --   -1.16622  -1.08652  -1.08622  -1.07219  -1.06967
 Alpha  occ. eigenvalues --   -1.06932  -1.06633  -1.04579  -1.04492  -1.03759
 Alpha  occ. eigenvalues --   -1.03661  -1.03233  -1.03038  -1.02410  -1.02110
 Alpha  occ. eigenvalues --   -0.91983  -0.91969  -0.89520  -0.89494  -0.89183
 Alpha  occ. eigenvalues --   -0.89145  -0.88288  -0.88221  -0.87868  -0.87792
 Alpha  occ. eigenvalues --   -0.87681  -0.87671  -0.87274  -0.87119  -0.84994
 Alpha  occ. eigenvalues --   -0.84978  -0.83937  -0.83876  -0.82969  -0.82932
 Alpha  occ. eigenvalues --   -0.82648  -0.82646  -0.81588  -0.81580  -0.80593
 Alpha  occ. eigenvalues --   -0.80437  -0.78796  -0.78634  -0.77217  -0.77141
 Alpha  occ. eigenvalues --   -0.76930  -0.76892  -0.75918  -0.75832  -0.74898
 Alpha  occ. eigenvalues --   -0.74802  -0.72773  -0.72697  -0.71670  -0.71578
 Alpha  occ. eigenvalues --   -0.69909  -0.69758  -0.68870  -0.68822  -0.67639
 Alpha  occ. eigenvalues --   -0.67598  -0.67216  -0.67194  -0.65282  -0.65265
 Alpha  occ. eigenvalues --   -0.64851  -0.64767  -0.64648  -0.64618  -0.64269
 Alpha  occ. eigenvalues --   -0.64203  -0.62291  -0.62269  -0.60442  -0.60339
 Alpha  occ. eigenvalues --   -0.59800  -0.59792  -0.58990  -0.58985  -0.58501
 Alpha  occ. eigenvalues --   -0.58422  -0.57579  -0.57547  -0.57307  -0.57235
 Alpha  occ. eigenvalues --   -0.56308  -0.56201  -0.55971  -0.55876  -0.55519
 Alpha  occ. eigenvalues --   -0.55448  -0.55338  -0.55245  -0.54520  -0.54483
 Alpha  occ. eigenvalues --   -0.53906  -0.53890  -0.53298  -0.53225  -0.53219
 Alpha  occ. eigenvalues --   -0.53137  -0.52911  -0.52896  -0.52755  -0.52666
 Alpha  occ. eigenvalues --   -0.52440  -0.52402  -0.51912  -0.51883  -0.51653
 Alpha  occ. eigenvalues --   -0.51613  -0.51197  -0.51193  -0.50574  -0.50475
 Alpha  occ. eigenvalues --   -0.50033  -0.49977  -0.49918  -0.49868  -0.49512
 Alpha  occ. eigenvalues --   -0.49485  -0.49212  -0.49198  -0.49099  -0.49092
 Alpha  occ. eigenvalues --   -0.48589  -0.48552  -0.48462  -0.48444  -0.48375
 Alpha  occ. eigenvalues --   -0.48337  -0.47693  -0.47591  -0.47295  -0.47116
 Alpha  occ. eigenvalues --   -0.46795  -0.46706  -0.46551  -0.46548  -0.46358
 Alpha  occ. eigenvalues --   -0.46268  -0.46160  -0.46082  -0.45817  -0.45816
 Alpha  occ. eigenvalues --   -0.45209  -0.45202  -0.44574  -0.44509  -0.44506
 Alpha  occ. eigenvalues --   -0.44472  -0.44144  -0.44123  -0.44085  -0.44076
 Alpha  occ. eigenvalues --   -0.44017  -0.43935  -0.43545  -0.43489  -0.43383
 Alpha  occ. eigenvalues --   -0.43381  -0.43025  -0.42922  -0.42895  -0.42694
 Alpha  occ. eigenvalues --   -0.42652  -0.42553  -0.42008  -0.41961  -0.41701
 Alpha  occ. eigenvalues --   -0.41665  -0.41530  -0.41453  -0.41139  -0.40987
 Alpha  occ. eigenvalues --   -0.40867  -0.40824  -0.40719  -0.40695  -0.40571
 Alpha  occ. eigenvalues --   -0.40492  -0.40228  -0.40219  -0.39443  -0.39427
 Alpha  occ. eigenvalues --   -0.38469  -0.38350  -0.37743  -0.37645  -0.37320
 Alpha  occ. eigenvalues --   -0.37264  -0.37259  -0.37194  -0.36760  -0.36707
 Alpha  occ. eigenvalues --   -0.36213  -0.36189  -0.34284  -0.34251  -0.33851
 Alpha  occ. eigenvalues --   -0.33762  -0.33184  -0.33173  -0.31347  -0.31274
 Alpha  occ. eigenvalues --   -0.31034  -0.30971  -0.30024  -0.29950  -0.29448
 Alpha  occ. eigenvalues --   -0.29326  -0.29320  -0.29209  -0.24079  -0.24034
 Alpha  occ. eigenvalues --   -0.21126  -0.21115
 Alpha virt. eigenvalues --   -0.08790  -0.08773  -0.01749  -0.01682  -0.00058
 Alpha virt. eigenvalues --   -0.00027   0.02203   0.02210   0.03121   0.03230
 Alpha virt. eigenvalues --    0.04721   0.04734   0.05107   0.05177   0.06184

 Mulliken charges:
               1
     1  Mg   0.838690
     2  C   -0.002938
     3  C   -0.094107
     4  C   -0.045934
     5  C   -0.063958
     6  N   -0.256784
     7  C   -0.052454
     8  C   -0.014010
     9  C   -0.086981
    10  C    0.046319
    11  C    0.104806
    12  C    0.053461
    13  C   -0.071840
    14  H    0.036228
    15  N   -0.433139
    16  C    0.168405
    17  C   -0.177153
    18  C   -0.004039
    19  C    0.148726
    20  C    0.110171
    21  C    0.012249
    22  O   -0.249689
    23  C    0.062497
    24  N   -0.341126
    25  C    0.041257
    26  C   -0.028166
    27  C   -0.023949
    28  C    0.074808
    29  C    0.076173
    30  C    0.035130
    31  C   -0.004489
    32  N   -0.310467
    33  C    0.080416
    34  C   -0.169707
    35  C    0.008392
    36  C    0.082986
    37  C    0.127306
    38  C    0.046141
    39  O   -0.188354
    40  C   -0.005353
    41  C    0.212906
    42  O   -0.257092
    43  O   -0.304803
    44  C    0.157658
    45  H   -0.017593
    46  H   -0.016888
    47  H   -0.041493
    48  H    0.000972
    49  H   -0.004016
    50  H    0.025488
    51  H    0.016426
    52  H    0.016675
    53  H    0.011187
    54  H    0.044144
    55  H    0.017884
    56  H    0.017947
    57  H    0.005900
    58  H    0.026807
    59  H    0.039521
    60  H    0.037362
    61  H    0.035570
    62  H    0.031480
    63  H    0.016493
    64  H    0.009469
    65  H    0.023164
    66  H    0.012561
    67  H    0.004757
    68  H    0.006322
    69  H    0.004752
    70  H    0.008718
    71  H    0.018113
    72  H    0.029011
    73  H    0.047617
    74  H    0.009099
    75  H    0.046030
    76  H    0.035175
    77  H    0.043000
    78  H    0.046413
    79  H    0.053739
    80  Mg   0.837874
    81  C   -0.016799
    82  C   -0.087771
    83  C   -0.045533
    84  C   -0.064916
    85  N   -0.254565
    86  C   -0.049827
    87  C   -0.015088
    88  C   -0.090508
    89  C    0.045760
    90  C    0.114381
    91  C    0.062518
    92  C   -0.077976
    93  H    0.035112
    94  N   -0.423504
    95  C    0.162905
    96  C   -0.174635
    97  C   -0.007812
    98  C    0.152110
    99  C    0.099370
   100  C    0.015552
   101  O   -0.253214
   102  C    0.061208
   103  N   -0.350089
   104  C    0.037523
   105  C   -0.019842
   106  C   -0.034797
   107  C    0.088918
   108  C    0.073679
   109  C    0.034740
   110  C   -0.007673
   111  N   -0.324116
   112  C    0.078463
   113  C   -0.163131
   114  C    0.002269
   115  C    0.096204
   116  C    0.131485
   117  C    0.042384
   118  O   -0.187778
   119  C    0.000932
   120  C    0.211269
   121  O   -0.250984
   122  O   -0.305644
   123  C    0.151968
   124  H   -0.019651
   125  H   -0.015603
   126  H   -0.040466
   127  H   -0.000605
   128  H   -0.004282
   129  H    0.022465
   130  H    0.014380
   131  H    0.016309
   132  H    0.013900
   133  H    0.037710
   134  H    0.020807
   135  H    0.019591
   136  H    0.008785
   137  H    0.026120
   138  H    0.039792
   139  H    0.038248
   140  H    0.036370
   141  H    0.033900
   142  H    0.014390
   143  H    0.012397
   144  H    0.025119
   145  H    0.011630
   146  H    0.005649
   147  H    0.006240
   148  H    0.003653
   149  H    0.010918
   150  H    0.017942
   151  H    0.030125
   152  H    0.046055
   153  H    0.008499
   154  H    0.046935
   155  H    0.035038
   156  H    0.044017
   157  H    0.049547
   158  H    0.053655
 Sum of Mulliken charges =  -0.00000

 Dipole moment (field-independent basis, Debye):
    X=             -2.7281    Y=              7.4549    Z=              1.1360  Tot=              8.0193
 Quadrupole moment (field-independent basis, Debye-Ang):
   XX=           -452.6517   YY=           -545.2675   ZZ=           -475.3826
   XY=            -14.1141   XZ=            -59.3718   YZ=              1.6866

 Normal termination of Gaussian 16 at Sun Sep 12 15:28:41 2021.
