 Gaussian 16, Revision A.03,
 Gaussian 16:  ES64L-G16RevA.03 25-Dec-2016

 -----------------------------------
 #p cam-b3lyp/Def2SVP td=(nstates=5)
 -----------------------------------

 --------------------------------
 TDDFT excited states in gaussian
 --------------------------------
 Symbolic Z-matrix:
 Charge =  0 Multiplicity = 1

                         Standard orientation:
 ---------------------------------------------------------------------
 Center     Atomic      Atomic             Coordinates (Angstroms)
 Number     Number       Type             X           Y           Z
 ---------------------------------------------------------------------
      1         12           0       -6.227017    0.791588   -0.263538
      2          6           0       -6.630628   -2.310932    1.475336
      3          6           0       -7.114469    2.359941    2.634007
      4          6           0       -6.319694    3.511414   -1.891599
      5          6           0       -6.486736   -1.009968   -3.235507
      6          7           0       -6.777713    0.014232    1.734736
      7          6           0       -6.835824   -1.193358    2.287475
      8          6           0       -7.060930   -1.157184    3.828706
      9          6           0       -7.749764    0.275663    3.948933
     10          6           0       -7.152103    0.936442    2.719260
     11          6           0       -9.266997    0.236934    3.797256
     12          6           0       -5.715488   -1.214873    4.627574
     13          6           0       -5.855953   -1.511921    6.123364
     14          1           0       -4.836818   -2.320250    6.775525
     15          7           0       -6.175689    2.663647    0.365439
     16          6           0       -6.559874    3.120162    1.581697
     17          6           0       -6.329209    4.580648    1.560351
     18          6           0       -5.958544    4.962482    0.169343
     19          6           0       -6.164660    3.715816   -0.522552
     20          6           0       -6.418571    5.445689    2.779969
     21          6           0       -5.502590    6.249716   -0.441614
     22          8           0       -5.457177    6.423320   -1.707463
     23          6           0       -5.190683    7.346272    0.492903
     24          7           0       -6.599994    1.233998   -2.269229
     25          6           0       -6.520736    2.488843   -2.725372
     26          6           0       -6.545932    2.527432   -4.224643
     27          6           0       -6.414021    1.011328   -4.708153
     28          6           0       -6.418367    0.320399   -3.322199
     29          6           0       -7.794351    3.157974   -4.857002
     30          6           0       -5.262291    0.684554   -5.691595
     31          6           0       -3.930273    0.847368   -4.994232
     32          7           0       -6.330961   -1.303398   -0.821454
     33          6           0       -6.458357   -1.825664   -2.116708
     34          6           0       -6.596912   -3.287364   -1.981419
     35          6           0       -6.556867   -3.513688   -0.607003
     36          6           0       -6.429419   -2.269584    0.074359
     37          6           0       -6.795014   -4.207954   -3.048051
     38          6           0       -6.616859   -4.514893    0.445540
     39          8           0       -6.627342   -5.746445    0.471292
     40          6           0       -6.789537   -3.765975    1.840220
     41          6           0       -5.798087   -4.362050    2.802004
     42          8           0       -4.571250   -4.206938    2.634137
     43          8           0       -6.446780   -4.812885    3.886664
     44          6           0       -5.517534   -5.390401    4.894201
     45          1           0       -7.604887    2.948442    3.411887
     46          1           0       -6.246074    4.416189   -2.498558
     47          1           0       -6.487117   -1.645335   -4.123067
     48          1           0       -7.733623   -1.926648    4.207957
     49          1           0       -7.438821    0.802279    4.850993
     50          1           0       -9.612745   -0.753737    3.502383
     51          1           0       -9.500850    0.967856    3.022944
     52          1           0       -9.756159    0.593989    4.703903
     53          1           0       -5.283506   -0.215353    4.676684
     54          1           0       -5.031347   -1.936292    4.179432
     55          1           0       -6.851635   -1.885779    6.363694
     56          1           0       -5.781712   -0.570071    6.667061
     57          1           0       -6.870456    4.913576    3.616150
     58          1           0       -7.124485    6.244321    2.552853
     59          1           0       -5.453472    5.874118    3.050829
     60          1           0       -6.075227    7.574614    1.087874
     61          1           0       -4.796130    8.158125   -0.117076
     62          1           0       -4.428620    7.006098    1.194679
     63          1           0       -5.706516    3.101240   -4.615219
     64          1           0       -7.310393    0.667297   -5.224713
     65          1           0       -7.573920    3.993297   -5.522097
     66          1           0       -8.461597    3.464595   -4.051983
     67          1           0       -8.426690    2.463978   -5.410114
     68          1           0       -5.271902    1.379050   -6.530958
     69          1           0       -5.315964   -0.326031   -6.096673
     70          1           0       -3.739296    1.916425   -5.080702
     71          1           0       -3.159654    0.270415   -5.506563
     72          1           0       -4.006064    0.614784   -3.931854
     73          1           0       -6.142269   -5.056572   -2.843746
     74          1           0       -6.564207   -3.753557   -4.011302
     75          1           0       -7.856742   -4.425345   -2.932593
     76          1           0       -7.818461   -3.930046    2.158840
     77          1           0       -5.853006   -6.408114    5.094085
     78          1           0       -5.494395   -4.691781    5.730741
     79          1           0       -4.495854   -5.572584    4.559062
     80         12           0        6.973033    0.159247    0.135646
     81          6           0        4.437421   -1.900587   -1.349871
     82          6           0        4.985925    2.844198   -0.555041
     83          6           0        9.371320    2.037079    1.024151
     84          6           0        9.196322   -2.484147   -0.328176
     85          7           0        4.989823    0.322832   -0.829940
     86          6           0        4.094518   -0.533381   -1.298634
     87          6           0        2.725840    0.102061   -1.662643
     88          6           0        3.219532    1.609573   -1.912717
     89          6           0        4.457666    1.612826   -1.018458
     90          6           0        3.662788    1.868222   -3.343097
     91          6           0        1.696966    0.023208   -0.480613
     92          6           0        0.250576    0.342985   -0.864604
     93          1           0       -0.824221   -0.386655   -0.197581
     94          7           0        6.977405    2.070135    0.671455
     95          6           0        6.081892    3.016171    0.318814
     96          6           0        6.540281    4.261025    0.954705
     97          6           0        7.868902    4.008818    1.575884
     98          6           0        8.139441    2.672063    1.086015
     99          6           0        5.703801    5.506628    1.001692
    100          6           0        8.755751    4.838923    2.453733
    101          8           0        9.973937    4.512028    2.681757
    102          6           0        8.184601    6.094337    2.962876
    103          7           0        9.036884   -0.091422    0.129719
    104          6           0        9.850321    0.860528    0.619662
    105          6           0       11.263568    0.348639    0.764903
    106          6           0       11.179926   -1.225757    0.496802
    107          6           0        9.681861   -1.342395    0.139599
    108          6           0       12.296222    0.970504   -0.174932
    109          6           0       11.751749   -2.158736    1.599177
    110          6           0       10.899484   -2.068849    2.844557
    111          7           0        6.831180   -1.896977   -0.512332
    112          6           0        7.889628   -2.820267   -0.658267
    113          6           0        7.315435   -4.053240   -1.234899
    114          6           0        5.956163   -3.751293   -1.407207
    115          6           0        5.705083   -2.416940   -0.987718
    116          6           0        8.041220   -5.230546   -1.571492
    117          6           0        4.678666   -4.254327   -1.858490
    118          8           0        4.260747   -5.347041   -2.239365
    119          6           0        3.662884   -3.035982   -1.959451
    120          6           0        2.378423   -3.445651   -1.292487
    121          8           0        2.344247   -3.667764   -0.069328
    122          8           0        1.363086   -3.296922   -2.162739
    123          6           0        0.066244   -3.680305   -1.543841
    124          1           0        4.547193    3.770126   -0.927952
    125          1           0       10.214946    2.604700    1.423609
    126          1           0        9.805249   -3.386887   -0.411533
    127          1           0        2.266340   -0.292555   -2.560921
    128          1           0        2.488277    2.329306   -1.554100
    129          1           0        3.684139    0.961064   -3.928543
    130          1           0        4.654418    2.295466   -3.271079
    131          1           0        3.034828    2.639167   -3.798772
    132          1           0        1.891857    0.845992    0.219232
    133          1           0        1.740076   -0.935447   -0.001281
    134          1           0        0.101826    0.337863   -1.951241
    135          1           0        0.032516    1.372126   -0.569085
    136          1           0        4.847615    5.442189    0.318905
    137          1           0        6.315880    6.318405    0.593948
    138          1           0        5.397512    5.770291    2.016253
    139          1           0        7.886470    6.721106    2.125774
    140          1           0        8.935604    6.502878    3.641816
    141          1           0        7.271817    5.861752    3.522645
    142          1           0       11.633827    0.514938    1.769070
    143          1           0       11.741182   -1.516158   -0.403468
    144          1           0       13.147711    1.434461    0.357780
    145          1           0       11.795252    1.699066   -0.798441
    146          1           0       12.720336    0.289366   -0.910717
    147          1           0       12.755401   -1.835283    1.885925
    148          1           0       11.823388   -3.196789    1.292082
    149          1           0       11.288249   -1.177404    3.345824
    150          1           0       11.027740   -2.956059    3.461368
    151          1           0        9.851117   -1.873510    2.590746
    152          1           0        7.450862   -6.069317   -1.227348
    153          1           0        9.031767   -5.229269   -1.121396
    154          1           0        8.084445   -5.128737   -2.659171
    155          1           0        3.521841   -2.813901   -3.017927
    156          1           0       -0.381472   -4.443969   -2.187316
    157          1           0       -0.495339   -2.735630   -1.417526
    158          1           0        0.098615   -4.197979   -0.592314
 ---------------------------------------------------------------------

 SCF Done:  E(RCAM-B3LYP) =  -4069.81205063     A.U. after   19 cycles

 Excitation energies and oscillator strengths:

 Excited State   1:      Singlet-A      1.6634 eV  745.35 nm  f=0.0059  <S**2>=0.000
     309 -> 315       -0.11427
     310 -> 316        0.12638
     311 -> 313       -0.45897
     312 -> 314        0.51089
 This state for optimization and/or second-order correction.
 Total Energy, E(TD-HF/TD-DFT) =  -4069.75092052
 Copying the excited state density for this state as the 1-particle RhoCI density.

 Excited State   2:      Singlet-A      1.6902 eV  733.54 nm  f=0.7299  <S**2>=0.000
     309 -> 315        0.13219
     310 -> 316        0.11817
     311 -> 313        0.50953
     312 -> 314        0.45787

 Excited State   3:      Singlet-A      2.1846 eV  567.55 nm  f=0.1027  <S**2>=0.000
     310 -> 314        0.63720
     312 -> 316       -0.26958

 Excited State   4:      Singlet-A      2.1921 eV  565.60 nm  f=0.0993  <S**2>=0.000
     309 -> 313        0.63527
     311 -> 315       -0.27516

 Excited State   5:      Singlet-A      2.5919 eV  478.35 nm  f=0.0000  <S**2>=0.000
     312 -> 313        0.70679

 The electronic state is 1-A.
 Alpha  occ. eigenvalues --  -46.87993 -46.87508 -19.26332 -19.25881 -19.19099
 Alpha  occ. eigenvalues --  -19.19039 -19.18752 -19.18600 -19.18317 -19.17844
 Alpha  occ. eigenvalues --  -14.42629 -14.42339 -14.41641 -14.41209 -14.39598
 Alpha  occ. eigenvalues --  -14.39202 -14.38783 -14.38442 -10.39163 -10.38699
 Alpha  occ. eigenvalues --  -10.35673 -10.35280 -10.34534 -10.34012 -10.31670
 Alpha  occ. eigenvalues --  -10.31572 -10.31135 -10.31107 -10.31077 -10.30854
 Alpha  occ. eigenvalues --  -10.30753 -10.30704 -10.30404 -10.30245 -10.30197
 Alpha  occ. eigenvalues --  -10.30114 -10.30011 -10.29824 -10.29746 -10.29450
 Alpha  occ. eigenvalues --  -10.29299 -10.29250 -10.28867 -10.28583 -10.28550
 Alpha  occ. eigenvalues --  -10.28508 -10.28369 -10.28244 -10.28241 -10.27977
 Alpha  occ. eigenvalues --  -10.27950 -10.27904 -10.27847 -10.27781 -10.27704
 Alpha  occ. eigenvalues --  -10.27667 -10.27653 -10.27577 -10.27515 -10.27404
 Alpha  occ. eigenvalues --  -10.27357 -10.27320 -10.27310 -10.27286 -10.27260
 Alpha  occ. eigenvalues --  -10.26796 -10.26792 -10.26649 -10.26437 -10.26413
 Alpha  occ. eigenvalues --  -10.26350 -10.26335 -10.26211 -10.26036 -10.26003
 Alpha  occ. eigenvalues --  -10.25856 -10.25791 -10.25706 -10.25615 -10.25297
 Alpha  occ. eigenvalues --  -10.25016 -10.24981 -10.24975 -10.24710 -10.24631
 Alpha  occ. eigenvalues --  -10.24540  -3.16736  -3.16258  -1.91618  -1.91204
 Alpha  occ. eigenvalues --   -1.91140  -1.91046  -1.90728  -1.90565  -1.16687
 Alpha  occ. eigenvalues --   -1.16191  -1.08769  -1.08433  -1.07443  -1.06855
 Alpha  occ. eigenvalues --   -1.06720  -1.06537  -1.04758  -1.04332  -1.03949
 Alpha  occ. eigenvalues --   -1.03509  -1.03427  -1.02890  -1.02602  -1.01958
 Alpha  occ. eigenvalues --   -0.92138  -0.91798  -0.89720  -0.89351  -0.89317
 Alpha  occ. eigenvalues --   -0.88956  -0.88485  -0.88088  -0.88047  -0.87842
 Alpha  occ. eigenvalues --   -0.87638  -0.87518  -0.87474  -0.86993  -0.85123
 Alpha  occ. eigenvalues --   -0.84807  -0.84136  -0.83733  -0.83180  -0.82814
 Alpha  occ. eigenvalues --   -0.82798  -0.82460  -0.81704  -0.81298  -0.80749
 Alpha  occ. eigenvalues --   -0.80198  -0.78986  -0.78494  -0.77392  -0.77064
 Alpha  occ. eigenvalues --   -0.76978  -0.76666  -0.76053  -0.75596  -0.75074
 Alpha  occ. eigenvalues --   -0.74631  -0.72955  -0.72545  -0.71836  -0.71404
 Alpha  occ. eigenvalues --   -0.70124  -0.69633  -0.69024  -0.68639  -0.67818
 Alpha  occ. eigenvalues --   -0.67426  -0.67359  -0.67008  -0.65427  -0.65062
 Alpha  occ. eigenvalues --   -0.65016  -0.64772  -0.64594  -0.64462  -0.64407
 Alpha  occ. eigenvalues --   -0.64045  -0.62407  -0.61946  -0.60641  -0.60206
 Alpha  occ. eigenvalues --   -0.59953  -0.59614  -0.59161  -0.58819  -0.58674
 Alpha  occ. eigenvalues --   -0.58237  -0.57721  -0.57481  -0.57296  -0.57060
 Alpha  occ. eigenvalues --   -0.56483  -0.56070  -0.56041  -0.55697  -0.55576
 Alpha  occ. eigenvalues --   -0.55506  -0.55240  -0.55040  -0.54667  -0.54234
 Alpha  occ. eigenvalues --   -0.54025  -0.53711  -0.53482  -0.53378  -0.53063
 Alpha  occ. eigenvalues --   -0.53060  -0.52942  -0.52930  -0.52655  -0.52652
 Alpha  occ. eigenvalues --   -0.52521  -0.52267  -0.52085  -0.51757  -0.51720
 Alpha  occ. eigenvalues --   -0.51453  -0.51355  -0.50994  -0.50780  -0.50362
 Alpha  occ. eigenvalues --   -0.50231  -0.50104  -0.49829  -0.49737  -0.49671
 Alpha  occ. eigenvalues --   -0.49376  -0.49324  -0.49228  -0.49005  -0.48911
 Alpha  occ. eigenvalues --   -0.48732  -0.48658  -0.48608  -0.48327  -0.48236
 Alpha  occ. eigenvalues --   -0.48160  -0.47859  -0.47466  -0.47407  -0.46972
 Alpha  occ. eigenvalues --   -0.46946  -0.46688  -0.46541  -0.46539  -0.46358
 Alpha  occ. eigenvalues --   -0.46325  -0.46108  -0.45951  -0.45880  -0.45572
 Alpha  occ. eigenvalues --   -0.45390  -0.45061  -0.44725  -0.44691  -0.44337
 Alpha  occ. eigenvalues --   -0.44311  -0.44293  -0.44226  -0.44173  -0.43954
 Alpha  occ. eigenvalues --   -0.43913  -0.43743  -0.43622  -0.43549  -0.43280
 Alpha  occ. eigenvalues --   -0.43192  -0.43158  -0.42890  -0.42748  -0.42734
 Alpha  occ. eigenvalues --   -0.42508  -0.42417  -0.42191  -0.41869  -0.41799
 Alpha  occ. eigenvalues --   -0.41673  -0.41479  -0.41302  -0.41269  -0.41039
 Alpha  occ. eigenvalues --   -0.41015  -0.40820  -0.40751  -0.40579  -0.40527
 Alpha  occ. eigenvalues --   -0.40344  -0.40338  -0.40013  -0.39668  -0.39306
 Alpha  occ. eigenvalues --   -0.38655  -0.38209  -0.37874  -0.37509  -0.37434
 Alpha  occ. eigenvalues --   -0.37403  -0.37116  -0.37000  -0.36830  -0.36442
 Alpha  occ. eigenvalues --   -0.36330  -0.35970  -0.34470  -0.34090  -0.33873
 Alpha  occ. eigenvalues --   -0.33503  -0.33365  -0.33000  -0.31567  -0.31215
 Alpha  occ. eigenvalues --   -0.31157  -0.30807  -0.30173  -0.29740  -0.29647
 Alpha  occ. eigenvalues --   -0.29511  -0.29184  -0.29051  -0.24265  -0.23875
 Alpha  occ. eigenvalues --   -0.21316  -0.20965
 Alpha virt. eigenvalues --   -0.08963  -0.08639  -0.01943  -0.01536  -0.00251
 Alpha virt. eigenvalues --    0.00116   0.02019   0.02344   0.02503   0.03381
 Alpha virt. eigenvalues --    0.04563   0.04992   0.05008   0.05530   0.06064

 Mulliken charges:
               1
     1  Mg   0.836121
     2  C   -0.002803
     3  C   -0.093733
     4  C   -0.046444
     5  C   -0.064209
     6  N   -0.256842
     7  C   -0.052258
     8  C   -0.013927
     9  C   -0.087012
    10  C    0.046309
    11  C    0.104714
    12  C    0.053310
    13  C   -0.072392
    14  H    0.037835
    15  N   -0.433222
    16  C    0.168177
    17  C   -0.177089
    18  C   -0.004416
    19  C    0.148513
    20  C    0.110070
    21  C    0.011423
    22  O   -0.250036
    23  C    0.062777
    24  N   -0.341061
    25  C    0.041284
    26  C   -0.028183
    27  C   -0.023985
    28  C    0.074579
    29  C    0.076056
    30  C    0.035221
    31  C   -0.005076
    32  N   -0.310397
    33  C    0.079806
    34  C   -0.170747
    35  C    0.008283
    36  C    0.081858
    37  C    0.127470
    38  C    0.045631
    39  O   -0.187197
    40  C   -0.005144
    41  C    0.213232
    42  O   -0.257368
    43  O   -0.304863
    44  C    0.157039
    45  H   -0.017156
    46  H   -0.017082
    47  H   -0.041244
    48  H    0.001459
    49  H   -0.003672
    50  H    0.025747
    51  H    0.016333
    52  H    0.017095
    53  H    0.010951
    54  H    0.044506
    55  H    0.017974
    56  H    0.017919
    57  H    0.006383
    58  H    0.027124
    59  H    0.039137
    60  H    0.038029
    61  H    0.035251
    62  H    0.030651
    63  H    0.015801
    64  H    0.010080
    65  H    0.023219
    66  H    0.012881
    67  H    0.005218
    68  H    0.006712
    69  H    0.005499
    70  H    0.007807
    71  H    0.018025
    72  H    0.028527
    73  H    0.047475
    74  H    0.009289
    75  H    0.046755
    76  H    0.035709
    77  H    0.043566
    78  H    0.046550
    79  H    0.055128
    80  Mg   0.837572
    81  C   -0.016210
    82  C   -0.087919
    83  C   -0.045826
    84  C   -0.065327
    85  N   -0.254476
    86  C   -0.049802
    87  C   -0.014813
    88  C   -0.090416
    89  C    0.045638
    90  C    0.114366
    91  C    0.062778
    92  C   -0.081205
    93  H    0.040511
    94  N   -0.423388
    95  C    0.162655
    96  C   -0.174908
    97  C   -0.008211
    98  C    0.152026
    99  C    0.099436
   100  C    0.015267
   101  O   -0.253606
   102  C    0.061367
   103  N   -0.350149
   104  C    0.037390
   105  C   -0.019694
   106  C   -0.034815
   107  C    0.089096
   108  C    0.073797
   109  C    0.034806
   110  C   -0.007620
   111  N   -0.324213
   112  C    0.078721
   113  C   -0.163279
   114  C    0.002519
   115  C    0.096198
   116  C    0.131458
   117  C    0.042481
   118  O   -0.186895
   119  C    0.001118
   120  C    0.211459
   121  O   -0.250182
   122  O   -0.307212
   123  C    0.150825
   124  H   -0.019758
   125  H   -0.016043
   126  H   -0.040720
   127  H   -0.000500
   128  H   -0.004111
   129  H    0.022166
   130  H    0.013998
   131  H    0.016370
   132  H    0.012971
   133  H    0.039412
   134  H    0.020769
   135  H    0.018583
   136  H    0.008762
   137  H    0.025791
   138  H    0.038922
   139  H    0.038105
   140  H    0.035893
   141  H    0.033474
   142  H    0.014094
   143  H    0.012208
   144  H    0.024775
   145  H    0.011574
   146  H    0.005423
   147  H    0.005937
   148  H    0.003585
   149  H    0.010700
   150  H    0.017753
   151  H    0.030377
   152  H    0.046356
   153  H    0.008209
   154  H    0.046748
   155  H    0.034428
   156  H    0.044266
   157  H    0.050726
   158  H    0.058492
 Sum of Mulliken charges =  -0.00000

 Dipole moment (field-independent basis, Debye):
    X=             -3.2666    Y=              7.1217    Z=              1.4979  Tot=              7.9770
 Quadrupole moment (field-independent basis, Debye-Ang):
   XX=           -482.2733   YY=           -546.5842   ZZ=           -475.0952
   XY=            -25.2061   XZ=            -27.3546   YZ=              6.0942

 Normal termination of Gaussian 16 at Sat Sep 11 10:30:51 2021.
