 Gaussian 16, Revision A.03,
 Gaussian 16:  ES64L-G16RevA.03 25-Dec-2016

 -----------------------------------
 #p cam-b3lyp/Def2SVP td=(nstates=5)
 -----------------------------------

 --------------------------------
 TDDFT excited states in gaussian
 --------------------------------
 Symbolic Z-matrix:
 Charge =  0 Multiplicity = 1

                         Standard orientation:
 ---------------------------------------------------------------------
 Center     Atomic      Atomic             Coordinates (Angstroms)
 Number     Number       Type             X           Y           Z
 ---------------------------------------------------------------------
      1         12           0       -5.161398    0.612273    0.668643
      2          6           0       -5.749205   -1.937518   -1.773747
      3          6           0       -5.722236   -1.756763    3.059500
      4          6           0       -5.096044    2.932947    2.828925
      5          6           0       -5.766940    2.951260   -1.842953
      6          7           0       -5.661644   -1.540052    0.534859
      7          6           0       -5.799515   -2.410329   -0.460520
      8          6           0       -5.927304   -3.886092    0.022356
      9          6           0       -6.470198   -3.622000    1.497998
     10          6           0       -5.888077   -2.238297    1.726963
     11          6           0       -7.990729   -3.535142    1.581329
     12          6           0       -4.547692   -4.626332    0.043414
     13          6           0       -4.625360   -6.149120    0.186375
     14          1           0       -3.649258   -6.969047   -0.515262
     15          7           0       -4.896986    0.534529    2.624888
     16          6           0       -5.162935   -0.516754    3.436898
     17          6           0       -4.797957   -0.080098    4.801743
     18          6           0       -4.477276    1.373149    4.744040
     19          6           0       -4.840612    1.681478    3.384519
     20          6           0       -4.732386   -1.010932    5.973493
     21          6           0       -3.940061    2.334126    5.756984
     22          8           0       -3.954632    3.598731    5.569536
     23          6           0       -3.471112    1.754313    7.028576
     24          7           0       -5.610948    2.648817    0.579050
     25          6           0       -5.441830    3.440308    1.643909
     26          6           0       -5.553251    4.888852    1.270753
     27          6           0       -5.593434    4.932458   -0.324940
     28          6           0       -5.579380    3.409069   -0.603074
     29          6           0       -6.772701    5.632773    1.832476
     30          6           0       -4.538568    5.820879   -1.030903
     31          6           0       -3.157698    5.239345   -0.825682
     32          7           0       -5.494749    0.557761   -1.475407
     33          6           0       -5.748108    1.650304   -2.317329
     34          6           0       -6.014823    1.106883   -3.661809
     35          6           0       -5.913756   -0.273956   -3.503974
     36          6           0       -5.629470   -0.575377   -2.141395
     37          6           0       -6.362098    1.866315   -4.813807
     38          6           0       -6.004127   -1.566066   -4.164385
     39          8           0       -6.128549   -1.935912   -5.332814
     40          6           0       -6.021740   -2.700009   -3.046490
     41          6           0       -5.034649   -3.758462   -3.457146
     42          8           0       -3.810971   -3.515290   -3.486224
     43          8           0       -5.656492   -4.945855   -3.519995
     44          6           0       -4.726731   -6.044971   -3.893681
     45          1           0       -6.107689   -2.353824    3.888285
     46          1           0       -4.974429    3.770956    3.518410
     47          1           0       -5.880213    3.624963   -2.694274
     48          1           0       -6.645240   -4.486619   -0.536535
     49          1           0       -6.057630   -4.330272    2.216231
     50          1           0       -8.444976   -3.540481    0.590596
     51          1           0       -8.201031   -2.594930    2.091492
     52          1           0       -8.388920   -4.320514    2.224301
     53          1           0       -4.021670   -4.379990    0.965736
     54          1           0       -3.962396   -4.376758   -0.842288
     55          1           0       -5.635495   -6.515776    0.001714
     56          1           0       -4.430573   -6.404754    1.227964
     57          1           0       -5.181189   -1.976465    5.743564
     58          1           0       -5.372611   -0.591673    6.749408
     59          1           0       -3.716836   -1.120444    6.354277
     60          1           0       -4.293011    1.219489    7.505015
     61          1           0       -3.039460    2.579320    7.594164
     62          1           0       -2.703579    1.009750    6.815341
     63          1           0       -4.688667    5.450722    1.621783
     64          1           0       -6.547516    5.303510   -0.700068
     65          1           0       -6.515194    6.511745    2.423918
     66          1           0       -7.358702    4.925177    2.418311
     67          1           0       -7.499424    5.949239    1.084718
     68          1           0       -4.533345    6.820378   -0.597405
     69          1           0       -4.711041    5.924914   -2.102202
     70          1           0       -2.872797    5.627645    0.151501
     71          1           0       -2.476763    5.593681   -1.600268
     72          1           0       -3.191066    4.152497   -0.747349
     73          1           0       -5.780771    1.453272   -5.638078
     74          1           0       -6.147917    2.925041   -4.669490
     75          1           0       -7.430685    1.661197   -4.876296
     76          1           0       -7.040528   -3.084095   -3.005615
     77          1           0       -5.143603   -6.532270   -4.775152
     78          1           0       -4.587970   -6.651294   -2.998403
     79          1           0       -3.748620   -5.742207   -4.269144
     80         12           0        5.318978    0.504787   -0.852761
     81          6           0        5.439614   -2.118790    1.592915
     82          6           0        4.831711    2.683107    1.726401
     83          6           0        4.759391    2.770226   -3.002668
     84          6           0        4.673947   -1.945105   -3.246021
     85          7           0        5.173928    0.200915    1.333300
     86          6           0        5.296587   -0.832222    2.153011
     87          6           0        5.344720   -0.456678    3.658400
     88          6           0        4.580219    0.953328    3.579063
     89          6           0        4.906764    1.327478    2.134741
     90          6           0        3.071458    0.828106    3.710578
     91          6           0        6.812809   -0.285265    4.185047
     92          6           0        6.946518   -0.223476    5.708215
     93          1           0        8.123721   -0.825018    6.328552
     94          7           0        5.349661    2.481039   -0.673671
     95          6           0        5.154801    3.199185    0.452197
     96          6           0        5.257494    4.610991    0.051681
     97          6           0        5.365032    4.671215   -1.431404
     98          6           0        5.136278    3.280603   -1.768969
     99          6           0        5.327431    5.735282    1.043904
    100          6           0        5.617595    5.796635   -2.388399
    101          8           0        5.433143    5.662234   -3.649648
    102          6           0        5.997297    7.087761   -1.796533
    103          7           0        4.584815    0.452983   -2.797160
    104          6           0        4.489995    1.576007   -3.530469
    105          6           0        4.200341    1.259255   -4.978286
    106          6           0        4.360617   -0.326347   -5.111557
    107          6           0        4.640038   -0.677555   -3.633740
    108          6           0        2.820432    1.675573   -5.487150
    109          6           0        5.346420   -0.845555   -6.193823
    110          6           0        6.764307   -0.478877   -5.818954
    111          7           0        5.274405   -1.654906   -0.894884
    112          6           0        4.955927   -2.480188   -1.995597
    113          6           0        4.947639   -3.874184   -1.506563
    114          6           0        5.241575   -3.760402   -0.139398
    115          6           0        5.400523   -2.390595    0.203901
    116          6           0        4.644970   -5.026974   -2.284742
    117          6           0        5.443062   -4.486857    1.093640
    118          8           0        5.517413   -5.676422    1.398827
    119          6           0        5.455485   -3.447599    2.296209
    120          6           0        6.637825   -3.763348    3.170787
    121          8           0        7.796649   -3.625609    2.740932
    122          8           0        6.212208   -3.965341    4.431110
    123          6           0        7.350135   -4.271025    5.338571
    124          1           0        4.449119    3.418033    2.435198
    125          1           0        4.662007    3.503608   -3.806507
    126          1           0        4.578142   -2.773889   -3.950732
    127          1           0        4.808995   -1.133793    4.312852
    128          1           0        5.011660    1.675819    4.266973
    129          1           0        2.751864   -0.203379    3.717332
    130          1           0        2.657604    1.346821    2.855765
    131          1           0        2.723292    1.374142    4.592021
    132          1           0        7.171911    0.718565    3.924040
    133          1           0        7.449163   -1.056907    3.797440
    134          1           0        6.032707   -0.555203    6.216007
    135          1           0        7.053358    0.822714    6.005032
    136          1           0        5.058578    5.398704    2.052790
    137          1           0        4.539448    6.447512    0.776190
    138          1           0        6.289952    6.251021    1.028926
    139          1           0        5.215895    7.416609   -1.115545
    140          1           0        6.222394    7.741604   -2.641344
    141          1           0        6.900554    6.943914   -1.193159
    142          1           0        4.918192    1.741102   -5.630680
    143          1           0        3.409272   -0.811300   -5.375353
    144          1           0        2.863464    2.349269   -6.363711
    145          1           0        2.283639    2.144458   -4.673181
    146          1           0        2.159885    0.853042   -5.756037
    147          1           0        5.144269   -0.362761   -7.153099
    148          1           0        5.287167   -1.916961   -6.353711
    149          1           0        6.855813    0.550889   -6.177144
    150          1           0        7.474420   -1.135003   -6.318231
    151          1           0        6.891671   -0.461760   -4.730319
    152          1           0        5.374111   -5.781288   -2.020407
    153          1           0        4.669229   -4.805385   -3.349680
    154          1           0        3.631983   -5.239499   -1.932666
    155          1           0        4.510796   -3.553932    2.830852
    156          1           0        7.124080   -5.225383    5.824170
    157          1           0        7.456492   -3.385566    5.993076
    158          1           0        8.309767   -4.487217    4.883790
 ---------------------------------------------------------------------

 SCF Done:  E(RCAM-B3LYP) =  -4069.81206240     A.U. after   19 cycles

 Excitation energies and oscillator strengths:

 Excited State   1:      Singlet-A      1.6728 eV  741.17 nm  f=0.3499  <S**2>=0.000
     310 -> 316       -0.16575
     311 -> 313       -0.19671
     312 -> 314        0.65716
     310 <- 316       -0.10018
 This state for optimization and/or second-order correction.
 Total Energy, E(TD-HF/TD-DFT) =  -4069.75058764
 Copying the excited state density for this state as the 1-particle RhoCI density.

 Excited State   2:      Singlet-A      1.6778 eV  738.96 nm  f=0.3500  <S**2>=0.000
     309 -> 315       -0.16712
     311 -> 313        0.65681
     312 -> 314        0.19683
     309 <- 315       -0.10023

 Excited State   3:      Singlet-A      2.1849 eV  567.46 nm  f=0.1014  <S**2>=0.000
     310 -> 314        0.64057
     312 -> 316        0.27160

 Excited State   4:      Singlet-A      2.1913 eV  565.81 nm  f=0.0968  <S**2>=0.000
     309 -> 313        0.63880
     311 -> 315        0.27620

 Excited State   5:      Singlet-A      2.4851 eV  498.91 nm  f=0.0000  <S**2>=0.000
     312 -> 313        0.70708

 The electronic state is 1-A.
 Alpha  occ. eigenvalues --  -46.87882 -46.87502 -19.26333 -19.26317 -19.19106
 Alpha  occ. eigenvalues --  -19.19083 -19.18961 -19.18585 -19.18253 -19.17948
 Alpha  occ. eigenvalues --  -14.42527 -14.42349 -14.41536 -14.41186 -14.39495
 Alpha  occ. eigenvalues --  -14.39199 -14.38671 -14.38445 -10.39142 -10.39033
 Alpha  occ. eigenvalues --  -10.35597 -10.35264 -10.34470 -10.34127 -10.31748
 Alpha  occ. eigenvalues --  -10.31712 -10.31472 -10.31169 -10.30986 -10.30893
 Alpha  occ. eigenvalues --  -10.30649 -10.30601 -10.30301 -10.30241 -10.30210
 Alpha  occ. eigenvalues --  -10.30009 -10.29952 -10.29725 -10.29712 -10.29348
 Alpha  occ. eigenvalues --  -10.29275 -10.29253 -10.28787 -10.28633 -10.28617
 Alpha  occ. eigenvalues --  -10.28508 -10.28452 -10.28265 -10.28158 -10.28039
 Alpha  occ. eigenvalues --  -10.27883 -10.27856 -10.27803 -10.27685 -10.27591
 Alpha  occ. eigenvalues --  -10.27579 -10.27548 -10.27517 -10.27484 -10.27342
 Alpha  occ. eigenvalues --  -10.27332 -10.27321 -10.27267 -10.27229 -10.27137
 Alpha  occ. eigenvalues --  -10.26962 -10.26713 -10.26624 -10.26592 -10.26308
 Alpha  occ. eigenvalues --  -10.26273 -10.26270 -10.26104 -10.25935 -10.25920
 Alpha  occ. eigenvalues --  -10.25913 -10.25750 -10.25683 -10.25531 -10.25091
 Alpha  occ. eigenvalues --  -10.24921 -10.24881 -10.24777 -10.24731 -10.24542
 Alpha  occ. eigenvalues --  -10.24526  -3.16625  -3.16252  -1.91507  -1.91134
 Alpha  occ. eigenvalues --   -1.91093  -1.90935  -1.90723  -1.90560  -1.16685
 Alpha  occ. eigenvalues --   -1.16605  -1.08708  -1.08562  -1.07367  -1.06892
 Alpha  occ. eigenvalues --   -1.06838  -1.06704  -1.04658  -1.04353  -1.03846
 Alpha  occ. eigenvalues --   -1.03507  -1.03323  -1.02871  -1.02498  -1.01951
 Alpha  occ. eigenvalues --   -0.92051  -0.91855  -0.89607  -0.89313  -0.89231
 Alpha  occ. eigenvalues --   -0.89045  -0.88376  -0.88017  -0.87953  -0.87744
 Alpha  occ. eigenvalues --   -0.87641  -0.87533  -0.87385  -0.86982  -0.85037
 Alpha  occ. eigenvalues --   -0.84885  -0.84025  -0.83680  -0.83096  -0.82786
 Alpha  occ. eigenvalues --   -0.82719  -0.82536  -0.81650  -0.81496  -0.80676
 Alpha  occ. eigenvalues --   -0.80323  -0.78894  -0.78491  -0.77293  -0.77013
 Alpha  occ. eigenvalues --   -0.76987  -0.76768  -0.75983  -0.75729  -0.74982
 Alpha  occ. eigenvalues --   -0.74607  -0.72857  -0.72543  -0.71748  -0.71424
 Alpha  occ. eigenvalues --   -0.69995  -0.69552  -0.68939  -0.68711  -0.67731
 Alpha  occ. eigenvalues --   -0.67461  -0.67276  -0.67097  -0.65341  -0.65163
 Alpha  occ. eigenvalues --   -0.64930  -0.64691  -0.64628  -0.64529  -0.64355
 Alpha  occ. eigenvalues --   -0.64018  -0.62363  -0.62176  -0.60547  -0.60185
 Alpha  occ. eigenvalues --   -0.59863  -0.59679  -0.59068  -0.58840  -0.58586
 Alpha  occ. eigenvalues --   -0.58283  -0.57658  -0.57456  -0.57399  -0.57077
 Alpha  occ. eigenvalues --   -0.56396  -0.56069  -0.56034  -0.55800  -0.55618
 Alpha  occ. eigenvalues --   -0.55420  -0.55341  -0.55086  -0.54598  -0.54337
 Alpha  occ. eigenvalues --   -0.53941  -0.53810  -0.53398  -0.53299  -0.53083
 Alpha  occ. eigenvalues --   -0.53025  -0.52994  -0.52850  -0.52789  -0.52552
 Alpha  occ. eigenvalues --   -0.52527  -0.52208  -0.51996  -0.51729  -0.51681
 Alpha  occ. eigenvalues --   -0.51556  -0.51270  -0.51069  -0.50697  -0.50340
 Alpha  occ. eigenvalues --   -0.50119  -0.50022  -0.49855  -0.49670  -0.49594
 Alpha  occ. eigenvalues --   -0.49368  -0.49299  -0.49151  -0.49089  -0.48991
 Alpha  occ. eigenvalues --   -0.48662  -0.48574  -0.48536  -0.48447  -0.48224
 Alpha  occ. eigenvalues --   -0.48176  -0.47775  -0.47461  -0.47385  -0.46963
 Alpha  occ. eigenvalues --   -0.46873  -0.46606  -0.46559  -0.46444  -0.46435
 Alpha  occ. eigenvalues --   -0.46242  -0.46115  -0.45918  -0.45887  -0.45702
 Alpha  occ. eigenvalues --   -0.45290  -0.45010  -0.44656  -0.44597  -0.44401
 Alpha  occ. eigenvalues --   -0.44348  -0.44234  -0.44145  -0.44104  -0.44011
 Alpha  occ. eigenvalues --   -0.43922  -0.43825  -0.43565  -0.43454  -0.43450
 Alpha  occ. eigenvalues --   -0.43251  -0.43105  -0.42848  -0.42777  -0.42756
 Alpha  occ. eigenvalues --   -0.42725  -0.42372  -0.42083  -0.41813  -0.41785
 Alpha  occ. eigenvalues --   -0.41584  -0.41536  -0.41333  -0.41215  -0.40958
 Alpha  occ. eigenvalues --   -0.40916  -0.40847  -0.40650  -0.40607  -0.40575
 Alpha  occ. eigenvalues --   -0.40304  -0.40262  -0.40143  -0.39529  -0.39220
 Alpha  occ. eigenvalues --   -0.38548  -0.38160  -0.37786  -0.37556  -0.37403
 Alpha  occ. eigenvalues --   -0.37317  -0.37099  -0.37064  -0.36780  -0.36689
 Alpha  occ. eigenvalues --   -0.36263  -0.36057  -0.34368  -0.34102  -0.33839
 Alpha  occ. eigenvalues --   -0.33788  -0.33271  -0.33019  -0.31489  -0.31142
 Alpha  occ. eigenvalues --   -0.31121  -0.30824  -0.30110  -0.29855  -0.29551
 Alpha  occ. eigenvalues --   -0.29411  -0.29183  -0.29066  -0.24164  -0.23879
 Alpha  occ. eigenvalues --   -0.21213  -0.20960
 Alpha virt. eigenvalues --   -0.08866  -0.08642  -0.01841  -0.01522  -0.00164
 Alpha virt. eigenvalues --    0.00102   0.02111   0.02344   0.03017   0.03373
 Alpha virt. eigenvalues --    0.04659   0.04867   0.05035   0.05229   0.06158

 Mulliken charges:
               1
     1  Mg   0.838671
     2  C   -0.002909
     3  C   -0.093749
     4  C   -0.046327
     5  C   -0.063913
     6  N   -0.256825
     7  C   -0.052130
     8  C   -0.014096
     9  C   -0.087015
    10  C    0.046303
    11  C    0.104759
    12  C    0.053327
    13  C   -0.072356
    14  H    0.037385
    15  N   -0.433050
    16  C    0.168194
    17  C   -0.177200
    18  C   -0.004513
    19  C    0.148592
    20  C    0.110112
    21  C    0.011391
    22  O   -0.250325
    23  C    0.062812
    24  N   -0.341175
    25  C    0.041357
    26  C   -0.028067
    27  C   -0.024023
    28  C    0.074931
    29  C    0.076190
    30  C    0.035145
    31  C   -0.004546
    32  N   -0.310513
    33  C    0.080554
    34  C   -0.169689
    35  C    0.008344
    36  C    0.083037
    37  C    0.127332
    38  C    0.046017
    39  O   -0.188316
    40  C   -0.005246
    41  C    0.212937
    42  O   -0.257427
    43  O   -0.304664
    44  C    0.157739
    45  H   -0.017322
    46  H   -0.017317
    47  H   -0.041268
    48  H    0.001097
    49  H   -0.003539
    50  H    0.025498
    51  H    0.016284
    52  H    0.016980
    53  H    0.011528
    54  H    0.043993
    55  H    0.017731
    56  H    0.018564
    57  H    0.006462
    58  H    0.026843
    59  H    0.039057
    60  H    0.038043
    61  H    0.034685
    62  H    0.030533
    63  H    0.015843
    64  H    0.009663
    65  H    0.022903
    66  H    0.012668
    67  H    0.004979
    68  H    0.006168
    69  H    0.005240
    70  H    0.007515
    71  H    0.019297
    72  H    0.028995
    73  H    0.047487
    74  H    0.009360
    75  H    0.046226
    76  H    0.035415
    77  H    0.043037
    78  H    0.047007
    79  H    0.053289
    80  Mg   0.838160
    81  C   -0.017130
    82  C   -0.088058
    83  C   -0.045464
    84  C   -0.062825
    85  N   -0.254546
    86  C   -0.049976
    87  C   -0.015060
    88  C   -0.090471
    89  C    0.045609
    90  C    0.114390
    91  C    0.062636
    92  C   -0.077563
    93  H    0.034411
    94  N   -0.423469
    95  C    0.162887
    96  C   -0.174671
    97  C   -0.007968
    98  C    0.152234
    99  C    0.099401
   100  C    0.015295
   101  O   -0.253262
   102  C    0.061280
   103  N   -0.349932
   104  C    0.038118
   105  C   -0.020301
   106  C   -0.035216
   107  C    0.088983
   108  C    0.072851
   109  C    0.034590
   110  C   -0.007565
   111  N   -0.324152
   112  C    0.078343
   113  C   -0.162490
   114  C    0.001846
   115  C    0.096447
   116  C    0.131566
   117  C    0.042152
   118  O   -0.188970
   119  C    0.000986
   120  C    0.211145
   121  O   -0.250955
   122  O   -0.305980
   123  C    0.152138
   124  H   -0.019422
   125  H   -0.015546
   126  H   -0.039535
   127  H   -0.001755
   128  H   -0.004517
   129  H    0.021229
   130  H    0.015600
   131  H    0.015921
   132  H    0.014094
   133  H    0.037585
   134  H    0.020009
   135  H    0.019658
   136  H    0.008891
   137  H    0.026044
   138  H    0.039381
   139  H    0.038059
   140  H    0.036036
   141  H    0.033777
   142  H    0.013849
   143  H    0.015465
   144  H    0.024375
   145  H    0.011768
   146  H    0.009331
   147  H    0.006561
   148  H    0.003875
   149  H    0.010662
   150  H    0.017453
   151  H    0.029633
   152  H    0.045145
   153  H    0.008988
   154  H    0.047763
   155  H    0.033986
   156  H    0.043249
   157  H    0.049332
   158  H    0.053617
 Sum of Mulliken charges =  -0.00000

 Dipole moment (field-independent basis, Debye):
    X=             -3.2844    Y=              1.8885    Z=              5.8063  Tot=              6.9330
 Quadrupole moment (field-independent basis, Debye-Ang):
   XX=           -519.9459   YY=           -502.2464   ZZ=           -496.6640
   XY=             32.2619   XZ=             -7.8565   YZ=             -3.6467

 Normal termination of Gaussian 16 at Fri Sep 10 18:39:01 2021.
