 Gaussian 16, Revision A.03,
 Gaussian 16:  ES64L-G16RevA.03 25-Dec-2016

 -----------------------------------
 #p cam-b3lyp/Def2SVP td=(nstates=5)
 -----------------------------------

 --------------------------------
 TDDFT excited states in gaussian
 --------------------------------
 Symbolic Z-matrix:
 Charge =  0 Multiplicity = 1

                         Standard orientation:
 ---------------------------------------------------------------------
 Center     Atomic      Atomic             Coordinates (Angstroms)
 Number     Number       Type             X           Y           Z
 ---------------------------------------------------------------------
      1         12           0        3.574880    1.228474    0.081354
      2          6           0        4.201765   -1.724007    2.005434
      3          6           0        4.785999   -0.458546   -2.626083
      4          6           0        3.456522    3.954892   -1.533966
      5          6           0        3.495813    2.991755    3.086392
      6          7           0        4.362152   -0.827066   -0.154445
      7          6           0        4.493265   -1.878527    0.648306
      8          6           0        4.897805   -3.182382   -0.102483
      9          6           0        5.586011   -2.531249   -1.384823
     10          6           0        4.843302   -1.207047   -1.413031
     11          6           0        7.075111   -2.255441   -1.203122
     12          6           0        3.656083   -4.050626   -0.497467
     13          6           0        3.973546   -5.482589   -0.937979
     14          1           0        3.043828   -6.545563   -0.587179
     15          7           0        3.584853    1.565853   -1.865162
     16          6           0        4.106222    0.762829   -2.823605
     17          6           0        3.864491    1.452579   -4.109098
     18          6           0        3.330163    2.808924   -3.804274
     19          6           0        3.462149    2.840890   -2.370072
     20          6           0        4.090642    0.809776   -5.443043
     21          6           0        2.796577    3.906686   -4.669339
     22          8           0        2.601406    5.089307   -4.224490
     23          6           0        2.589115    3.580178   -6.091799
     24          7           0        3.706307    3.229481    0.661297
     25          6           0        3.565225    4.216893   -0.229824
     26          6           0        3.413659    5.546449    0.447854
     27          6           0        3.236353    5.232130    2.003335
     28          6           0        3.408469    3.693868    1.954369
     29          6           0        4.574629    6.531910    0.255437
     30          6           0        1.979262    5.811876    2.699061
     31          6           0        0.737398    5.138694    2.158971
     32          7           0        3.627065    0.728496    2.192833
     33          6           0        3.604882    1.623726    3.272067
     34          6           0        3.768552    0.824125    4.500040
     35          6           0        3.891997   -0.487479    4.045836
     36          6           0        3.836910   -0.503080    2.622806
     37          6           0        3.846242    1.337620    5.824699
     38          6           0        4.082319   -1.876626    4.430419
     39          8           0        4.104328   -2.484658    5.501544
     40          6           0        4.412602   -2.718643    3.119790
     41          6           0        3.545312   -3.947773    3.138658
     42          8           0        2.306198   -3.858275    3.020535
     43          8           0        4.320184   -5.039959    3.053535
     44          6           0        3.519917   -6.293541    3.037515
     45          1           0        5.360388   -0.804769   -3.487563
     46          1           0        3.305740    4.907767   -2.045563
     47          1           0        3.396234    3.463741    4.065558
     48          1           0        5.615769   -3.808149    0.427957
     49          1           0        5.379655   -3.100831   -2.290756
     50          1           0        7.390666   -2.433128   -0.175127
     51          1           0        7.211188   -1.206522   -1.467215
     52          1           0        7.665006   -2.824433   -1.922183
     53          1           0        3.225930   -3.663435   -1.421108
     54          1           0        2.929023   -4.076168    0.314972
     55          1           0        4.993159   -5.764197   -0.673410
     56          1           0        3.957209   -5.516352   -2.027379
     57          1           0        4.641420   -0.125268   -5.348807
     58          1           0        4.759374    1.463752   -6.002346
     59          1           0        3.161136    0.674502   -5.996263
     60          1           0        3.535881    3.264070   -6.530273
     61          1           0        2.119925    4.457180   -6.536297
     62          1           0        1.917256    2.724347   -6.163276
     63          1           0        2.530162    6.071106    0.086476
     64          1           0        4.068128    5.614708    2.595330
     65          1           0        4.271704    7.486773   -0.174885
     66          1           0        5.329769    6.046588   -0.362234
     67          1           0        5.142346    6.751505    1.159258
     68          1           0        1.885262    6.876290    2.486614
     69          1           0        1.991954    5.689721    3.782190
     70          1           0        0.530144    5.703052    1.250467
     71          1           0       -0.084092    5.228765    2.870485
     72          1           0        0.939219    4.108798    1.863899
     73          1           0        3.227974    0.685413    6.441415
     74          1           0        3.500599    2.370130    5.870040
     75          1           0        4.915667    1.246577    6.014162
     76          1           0        5.472973   -2.965095    3.164478
     77          1           0        3.883641   -6.917004    3.854358
     78          1           0        3.590457   -6.693296    2.025772
     79          1           0        2.467206   -6.196845    3.305448
     80         12           0       -4.264963   -0.012629   -0.085023
     81          6           0       -1.565092   -1.990502   -1.380313
     82          6           0       -6.332784   -2.623794   -0.820248
     83          6           0       -6.723199    1.862659    0.627585
     84          6           0       -2.234977    2.787659   -0.513092
     85          7           0       -3.880290   -1.997615   -0.981745
     86          6           0       -2.805246   -2.662395   -1.377588
     87          6           0       -3.061215   -4.155103   -1.718017
     88          6           0       -4.628702   -4.059788   -2.053837
     89          6           0       -4.986169   -2.839509   -1.207789
     90          6           0       -4.913319   -3.731372   -3.510013
     91          6           0       -2.792130   -5.101560   -0.495800
     92          6           0       -2.722408   -6.591207   -0.839104
     93          1           0       -1.785240   -7.432670   -0.100107
     94          7           0       -6.142750   -0.471839    0.363993
     95          6           0       -6.817116   -1.583751    0.003201
     96          6           0       -8.168555   -1.434702    0.564954
     97          6           0       -8.286946   -0.069941    1.146437
     98          6           0       -7.035133    0.513244    0.707175
     99          6           0       -9.168431   -2.554143    0.587433
    100          6           0       -9.356235    0.603506    1.952219
    101          8           0       -9.354230    1.870081    2.148715
    102          6           0      -10.455818   -0.249886    2.425648
    103          7           0       -4.534108    2.047635   -0.157277
    104          6           0       -5.682575    2.609804    0.258548
    105          6           0       -5.545633    4.109290    0.373371
    106          6           0       -3.987808    4.414539    0.179487
    107          6           0       -3.484536    2.984483   -0.115565
    108          6           0       -6.353704    4.929987   -0.631557
    109          6           0       -3.285369    5.228776    1.300317
    110          6           0       -3.226662    4.412757    2.571563
    111          7           0       -2.206568    0.346943   -0.634353
    112          6           0       -1.568292    1.598317   -0.778414
    113          6           0       -0.202767    1.335692   -1.277178
    114          6           0       -0.148587   -0.059828   -1.411649
    115          6           0       -1.399175   -0.625360   -1.043275
    116          6           0        0.773804    2.323637   -1.587694
    117          6           0        0.678717   -1.182297   -1.791579
    118          8           0        1.859466   -1.323721   -2.107089
    119          6           0       -0.242514   -2.472251   -1.908816
    120          6           0        0.437148   -3.596541   -1.176334
    121          8           0        0.595914   -3.543320    0.055970
    122          8           0        0.591090   -4.638489   -2.013612
    123          6           0        1.250942   -5.782547   -1.329835
    124          1           0       -7.099925   -3.289028   -1.217547
    125          1           0       -7.502611    2.547708    0.969200
    126          1           0       -1.508387    3.600331   -0.578697
    127          1           0       -2.518098   -4.524080   -2.579790
    128          1           0       -5.162442   -4.938269   -1.700617
    129          1           0       -4.010213   -3.499046   -4.054586
    130          1           0       -5.576367   -2.876282   -3.494561
    131          1           0       -5.479250   -4.543181   -3.975886
    132          1           0       -3.673306   -5.100607    0.158615
    133          1           0       -1.900816   -4.808449    0.024077
    134          1           0       -2.623188   -6.761339   -1.918068
    135          1           0       -3.679422   -7.051716   -0.582053
    136          1           0       -8.857676   -3.384099   -0.059108
    137          1           0      -10.083964   -2.174563    0.120981
    138          1           0       -9.401065   -2.890851    1.599949
    139          1           0      -10.943949   -0.716058    1.573085
    140          1           0      -11.073133    0.392251    3.056881
    141          1           0      -10.033973   -1.061297    3.029203
    142          1           0       -5.851350    4.451542    1.354447
    143          1           0       -3.798591    5.007611   -0.727317
    144          1           0       -7.041819    5.651878   -0.152562
    145          1           0       -6.901265    4.247448   -1.267840
    146          1           0       -5.761182    5.491979   -1.351472
    147          1           0       -3.862334    6.126829    1.534342
    148          1           0       -2.282804    5.549473    1.037609
    149          1           0       -4.211861    4.579231    3.017381
    150          1           0       -2.432833    4.773929    3.222285
    151          1           0       -3.142166    3.342752    2.348835
    152          1           0        1.713415    1.970193   -1.184329
    153          1           0        0.503107    3.293539   -1.175660
    154          1           0        0.722014    2.312617   -2.679693
    155          1           0       -0.366472   -2.690932   -2.970132
    156          1           0        2.134659   -6.041570   -1.921124
    157          1           0        0.469774   -6.558785   -1.224987
    158          1           0        1.693422   -5.597979   -0.357929
 ---------------------------------------------------------------------

 SCF Done:  E(RCAM-B3LYP) =  -4069.77022703     A.U. after   18 cycles

 Excitation energies and oscillator strengths:

 Excited State   1:      Singlet-A      1.6229 eV  763.99 nm  f=0.3484  <S**2>=0.000
     309 -> 315        0.12054
     310 -> 316        0.10105
     311 -> 313        0.49921
     312 -> 313       -0.12995
     312 -> 314        0.45436
 This state for optimization and/or second-order correction.
 Total Energy, E(TD-HF/TD-DFT) =  -4069.71058802
 Copying the excited state density for this state as the 1-particle RhoCI density.

 Excited State   2:      Singlet-A      1.6868 eV  735.01 nm  f=0.4607  <S**2>=0.000
     309 -> 315       -0.11722
     310 -> 316        0.12857
     311 -> 313       -0.45437
     312 -> 314        0.50983

 Excited State   3:      Singlet-A      1.9055 eV  650.65 nm  f=0.0003  <S**2>=0.000
     311 -> 313        0.12582
     312 -> 313        0.68860

 Excited State   4:      Singlet-A      2.1509 eV  576.42 nm  f=0.0049  <S**2>=0.000
     309 -> 313       -0.37226
     310 -> 314        0.53242
     311 -> 315        0.14361
     312 -> 316       -0.20655

 Excited State   5:      Singlet-A      2.1835 eV  567.82 nm  f=0.1512  <S**2>=0.000
     309 -> 313        0.52659
     310 -> 314        0.35964
     311 -> 315       -0.22235
     312 -> 316       -0.16208

 The electronic state is 1-A.
 Alpha  occ. eigenvalues --  -46.87706 -46.86880 -19.26462 -19.25434 -19.19212
 Alpha  occ. eigenvalues --  -19.18982 -19.18771 -19.18343 -19.17940 -19.17238
 Alpha  occ. eigenvalues --  -14.42526 -14.41415 -14.41227 -14.40597 -14.39417
 Alpha  occ. eigenvalues --  -14.38695 -14.38226 -14.37570 -10.39138 -10.38005
 Alpha  occ. eigenvalues --  -10.35444 -10.34964 -10.34854 -10.33453 -10.31414
 Alpha  occ. eigenvalues --  -10.31149 -10.31087 -10.31001 -10.30483 -10.30476
 Alpha  occ. eigenvalues --  -10.30218 -10.30112 -10.29958 -10.29761 -10.29615
 Alpha  occ. eigenvalues --  -10.29538 -10.29500 -10.29441 -10.29336 -10.29239
 Alpha  occ. eigenvalues --  -10.28901 -10.28764 -10.28638 -10.28545 -10.28229
 Alpha  occ. eigenvalues --  -10.28208 -10.28061 -10.27898 -10.27779 -10.27721
 Alpha  occ. eigenvalues --  -10.27562 -10.27554 -10.27517 -10.27442 -10.27394
 Alpha  occ. eigenvalues --  -10.27347 -10.27277 -10.27067 -10.27012 -10.27009
 Alpha  occ. eigenvalues --  -10.26849 -10.26774 -10.26767 -10.26629 -10.26450
 Alpha  occ. eigenvalues --  -10.26439 -10.26383 -10.26192 -10.26136 -10.26042
 Alpha  occ. eigenvalues --  -10.25986 -10.25955 -10.25907 -10.25457 -10.25373
 Alpha  occ. eigenvalues --  -10.25371 -10.25241 -10.25120 -10.25103 -10.25069
 Alpha  occ. eigenvalues --  -10.25019 -10.24770 -10.24731 -10.24633 -10.23930
 Alpha  occ. eigenvalues --  -10.23833  -3.16453  -3.15615  -1.91335  -1.90924
 Alpha  occ. eigenvalues --   -1.90763  -1.90509  -1.90073  -1.89927  -1.16779
 Alpha  occ. eigenvalues --   -1.15745  -1.09534  -1.07705  -1.07066  -1.07019
 Alpha  occ. eigenvalues --   -1.06759  -1.05584  -1.04559  -1.03726  -1.03499
 Alpha  occ. eigenvalues --   -1.03106  -1.02840  -1.02322  -1.02194  -1.01437
 Alpha  occ. eigenvalues --   -0.92154  -0.90967  -0.89519  -0.89199  -0.88944
 Alpha  occ. eigenvalues --   -0.88259  -0.88202  -0.87944  -0.87725  -0.87596
 Alpha  occ. eigenvalues --   -0.87187  -0.86966  -0.86716  -0.86549  -0.85048
 Alpha  occ. eigenvalues --   -0.84460  -0.83861  -0.83440  -0.82966  -0.82743
 Alpha  occ. eigenvalues --   -0.82431  -0.82114  -0.81584  -0.80874  -0.80463
 Alpha  occ. eigenvalues --   -0.79746  -0.78717  -0.77982  -0.77299  -0.77182
 Alpha  occ. eigenvalues --   -0.76575  -0.76327  -0.75703  -0.75144  -0.74789
 Alpha  occ. eigenvalues --   -0.74262  -0.72777  -0.71923  -0.71652  -0.70820
 Alpha  occ. eigenvalues --   -0.69721  -0.69488  -0.68936  -0.68167  -0.67712
 Alpha  occ. eigenvalues --   -0.67236  -0.66824  -0.66590  -0.65402  -0.64946
 Alpha  occ. eigenvalues --   -0.64768  -0.64409  -0.64243  -0.63995  -0.63882
 Alpha  occ. eigenvalues --   -0.63476  -0.62578  -0.61474  -0.60411  -0.59998
 Alpha  occ. eigenvalues --   -0.59828  -0.59209  -0.58837  -0.58572  -0.58218
 Alpha  occ. eigenvalues --   -0.57821  -0.57647  -0.57367  -0.56689  -0.56586
 Alpha  occ. eigenvalues --   -0.56355  -0.56297  -0.55756  -0.55501  -0.55377
 Alpha  occ. eigenvalues --   -0.55193  -0.54821  -0.54725  -0.54619  -0.53988
 Alpha  occ. eigenvalues --   -0.53834  -0.53540  -0.53345  -0.53127  -0.53022
 Alpha  occ. eigenvalues --   -0.52775  -0.52733  -0.52454  -0.52340  -0.52217
 Alpha  occ. eigenvalues --   -0.52137  -0.51997  -0.51817  -0.51728  -0.51430
 Alpha  occ. eigenvalues --   -0.51070  -0.50863  -0.50522  -0.50381  -0.50189
 Alpha  occ. eigenvalues --   -0.50038  -0.49957  -0.49666  -0.49515  -0.49470
 Alpha  occ. eigenvalues --   -0.49321  -0.49241  -0.48875  -0.48743  -0.48509
 Alpha  occ. eigenvalues --   -0.48333  -0.48299  -0.48112  -0.47870  -0.47792
 Alpha  occ. eigenvalues --   -0.47754  -0.47458  -0.47229  -0.47091  -0.46758
 Alpha  occ. eigenvalues --   -0.46622  -0.46528  -0.46383  -0.46269  -0.46181
 Alpha  occ. eigenvalues --   -0.45893  -0.45710  -0.45633  -0.45373  -0.45297
 Alpha  occ. eigenvalues --   -0.44919  -0.44748  -0.44552  -0.44463  -0.44189
 Alpha  occ. eigenvalues --   -0.44131  -0.43967  -0.43898  -0.43812  -0.43719
 Alpha  occ. eigenvalues --   -0.43411  -0.43332  -0.43207  -0.43084  -0.42935
 Alpha  occ. eigenvalues --   -0.42688  -0.42602  -0.42572  -0.42406  -0.42358
 Alpha  occ. eigenvalues --   -0.41990  -0.41887  -0.41876  -0.41797  -0.41478
 Alpha  occ. eigenvalues --   -0.41261  -0.41101  -0.40804  -0.40745  -0.40707
 Alpha  occ. eigenvalues --   -0.40532  -0.40487  -0.40256  -0.40227  -0.40164
 Alpha  occ. eigenvalues --   -0.39918  -0.39723  -0.39404  -0.39074  -0.38989
 Alpha  occ. eigenvalues --   -0.38324  -0.37853  -0.37651  -0.37284  -0.37257
 Alpha  occ. eigenvalues --   -0.36920  -0.36542  -0.36442  -0.36234  -0.36041
 Alpha  occ. eigenvalues --   -0.35771  -0.35299  -0.34291  -0.33670  -0.33314
 Alpha  occ. eigenvalues --   -0.33200  -0.32652  -0.32110  -0.31325  -0.31053
 Alpha  occ. eigenvalues --   -0.30833  -0.30589  -0.30038  -0.29574  -0.29361
 Alpha  occ. eigenvalues --   -0.29100  -0.28432  -0.28316  -0.24090  -0.23039
 Alpha  occ. eigenvalues --   -0.21188  -0.20082
 Alpha virt. eigenvalues --   -0.08906  -0.07801  -0.01733  -0.01030  -0.00171
 Alpha virt. eigenvalues --    0.00819   0.01856   0.03042   0.03287   0.04612
 Alpha virt. eigenvalues --    0.04671   0.04945   0.05359   0.06149   0.06224

 Mulliken charges:
               1
     1  Mg   0.753610
     2  C    0.011586
     3  C   -0.078516
     4  C   -0.046735
     5  C   -0.066321
     6  N   -0.252206
     7  C   -0.050357
     8  C    0.013791
     9  C   -0.094525
    10  C    0.079368
    11  C    0.107009
    12  C   -0.022253
    13  C   -0.091795
    14  H    0.026274
    15  N   -0.448115
    16  C    0.207659
    17  C   -0.183643
    18  C   -0.009691
    19  C    0.131094
    20  C    0.114428
    21  C    0.006339
    22  O   -0.252493
    23  C    0.065595
    24  N   -0.333616
    25  C    0.037403
    26  C   -0.025825
    27  C   -0.022865
    28  C    0.075446
    29  C    0.077832
    30  C    0.039585
    31  C   -0.023149
    32  N   -0.306885
    33  C    0.081125
    34  C   -0.173583
    35  C    0.006717
    36  C    0.078880
    37  C    0.127842
    38  C    0.047080
    39  O   -0.192310
    40  C   -0.011478
    41  C    0.208873
    42  O   -0.244362
    43  O   -0.307192
    44  C    0.158516
    45  H   -0.025528
    46  H   -0.024217
    47  H   -0.046106
    48  H   -0.005565
    49  H   -0.004906
    50  H    0.023719
    51  H    0.016228
    52  H    0.012716
    53  H    0.031841
    54  H    0.089253
    55  H    0.008500
    56  H    0.021729
    57  H    0.007053
    58  H    0.023367
    59  H    0.037144
    60  H    0.037968
    61  H    0.032803
    62  H    0.028538
    63  H    0.010969
    64  H    0.008500
    65  H    0.020690
    66  H    0.013873
    67  H    0.003859
    68  H    0.003657
    69  H    0.004035
    70  H    0.011943
    71  H    0.019090
    72  H    0.037553
    73  H    0.045396
    74  H    0.006316
    75  H    0.043718
    76  H    0.032246
    77  H    0.040509
    78  H    0.042507
    79  H    0.054044
    80  Mg   0.842387
    81  C   -0.017889
    82  C   -0.088254
    83  C   -0.044832
    84  C   -0.065788
    85  N   -0.255402
    86  C   -0.050737
    87  C   -0.016069
    88  C   -0.090541
    89  C    0.047428
    90  C    0.114581
    91  C    0.061853
    92  C   -0.077299
    93  H    0.035176
    94  N   -0.423460
    95  C    0.164424
    96  C   -0.174347
    97  C   -0.006980
    98  C    0.152597
    99  C    0.099307
   100  C    0.016168
   101  O   -0.252502
   102  C    0.060907
   103  N   -0.349840
   104  C    0.038173
   105  C   -0.020268
   106  C   -0.034408
   107  C    0.087864
   108  C    0.073536
   109  C    0.034748
   110  C   -0.008184
   111  N   -0.323352
   112  C    0.079132
   113  C   -0.161077
   114  C    0.000872
   115  C    0.101287
   116  C    0.172556
   117  C    0.053289
   118  O   -0.191523
   119  C    0.026834
   120  C    0.205924
   121  O   -0.233674
   122  O   -0.314270
   123  C    0.167263
   124  H   -0.019679
   125  H   -0.014960
   126  H   -0.035812
   127  H   -0.002273
   128  H   -0.003821
   129  H    0.021176
   130  H    0.014475
   131  H    0.016311
   132  H    0.014861
   133  H    0.042996
   134  H    0.019096
   135  H    0.019474
   136  H    0.009013
   137  H    0.026352
   138  H    0.040732
   139  H    0.038186
   140  H    0.036843
   141  H    0.034590
   142  H    0.014863
   143  H    0.013564
   144  H    0.025175
   145  H    0.011109
   146  H    0.006591
   147  H    0.004849
   148  H    0.003831
   149  H    0.008705
   150  H    0.018713
   151  H    0.031567
   152  H    0.064947
   153  H    0.011985
   154  H    0.044386
   155  H    0.030637
   156  H    0.037164
   157  H    0.039814
   158  H    0.057345
 Sum of Mulliken charges =  -0.00000

 Dipole moment (field-independent basis, Debye):
    X=             -2.5644    Y=             -3.2182    Z=             -5.7867  Tot=              7.1007
 Quadrupole moment (field-independent basis, Debye-Ang):
   XX=           -491.4520   YY=           -473.5635   ZZ=           -521.4697
   XY=             23.6315   XZ=             -8.6124   YZ=             35.2372

 Normal termination of Gaussian 16 at Wed Sep  8 23:36:10 2021.
