 Gaussian 16, Revision A.03,
 Gaussian 16:  ES64L-G16RevA.03 25-Dec-2016

 -----------------------------------
 #p cam-b3lyp/Def2SVP td=(nstates=5)
 -----------------------------------

 --------------------------------
 TDDFT excited states in gaussian
 --------------------------------
 Symbolic Z-matrix:
 Charge =  0 Multiplicity = 1

                         Standard orientation:
 ---------------------------------------------------------------------
 Center     Atomic      Atomic             Coordinates (Angstroms)
 Number     Number       Type             X           Y           Z
 ---------------------------------------------------------------------
      1         12           0       -6.435551   -0.991785   -0.058568
      2          6           0       -6.767910    2.556544    0.274761
      3          6           0       -7.259518   -0.610387   -3.347744
      4          6           0       -6.593243   -4.151803   -0.273152
      5          6           0       -6.758360   -1.199090    3.405314
      6          7           0       -6.927224    0.797200   -1.266224
      7          6           0       -6.960896    2.105478   -1.032887
      8          6           0       -7.145773    2.958649   -2.323349
      9          6           0       -7.842957    1.864889   -3.250506
     10          6           0       -7.283213    0.608516   -2.606970
     11          6           0       -9.363279    1.843227   -3.129444
     12          6           0       -5.779406    3.431945   -2.923983
     13          6           0       -5.878132    4.531161   -3.985742
     14          1           0       -4.835633    5.544675   -4.043483
     15          7           0       -6.383111   -2.172633   -1.641508
     16          6           0       -6.738986   -1.846484   -2.907314
     17          6           0       -6.520960   -3.063558   -3.718411
     18          6           0       -6.190068   -4.177737   -2.787170
     19          6           0       -6.404024   -3.543184   -1.511653
     20          6           0       -6.585390   -3.077530   -5.214875
     21          6           0       -5.760886   -5.593247   -3.011369
     22          8           0       -5.750130   -6.457990   -2.069733
     23          6           0       -5.433581   -5.968552   -4.398834
     24          7           0       -6.864647   -2.489765    1.330521
     25          6           0       -6.807690   -3.782297    0.991255
     26          6           0       -6.872533   -4.667557    2.200407
     27          6           0       -6.740909   -3.700262    3.464041
     28          6           0       -6.703216   -2.342966    2.719329
     29          6           0       -8.142249   -5.518747    2.339355
     30          6           0       -5.612736   -4.017031    4.477600
     31          6           0       -4.264260   -3.782430    3.834427
     32          7           0       -6.536894    0.413839    1.592188
     33          6           0       -6.693939    0.107809    2.951731
     34          6           0       -6.816890    1.388793    3.671475
     35          6           0       -6.738940    2.356842    2.672150
     36          6           0       -6.603876    1.720101    1.405418
     37          6           0       -7.035346    1.541794    5.069080
     38          6           0       -6.763071    3.780326    2.377247
     39          8           0       -6.762762    4.807044    3.057941
     40          6           0       -6.905238    3.963296    0.801767
     41          6           0       -5.884032    4.979411    0.368227
     42          8           0       -4.663338    4.729720    0.438411
     43          8           0       -6.500319    5.981793   -0.276725
     44          6           0       -5.540246    7.010076   -0.759476
     45          1           0       -7.734172   -0.640104   -4.330476
     46          1           0       -6.543006   -5.242518   -0.289075
     47          1           0       -6.776813   -1.182701    4.496572
     48          1           0       -7.801944    3.821476   -2.207620
     49          1           0       -7.512788    1.939367   -4.286442
     50          1           0       -9.708499    2.496664   -2.328343
     51          1           0       -9.623362    0.806681   -2.913983
     52          1           0       -9.831398    2.076990   -4.085998
     53          1           0       -5.354505    2.629360   -3.526792
     54          1           0       -5.101358    3.754506   -2.133078
     55          1           0       -6.864061    4.996834   -3.986857
     56          1           0       -5.797385    4.065477   -4.967993
     57          1           0       -7.010795   -2.154195   -5.606061
     58          1           0       -7.303554   -3.847734   -5.495472
     59          1           0       -5.617066   -3.296160   -5.665300
     60          1           0       -6.304054   -5.798016   -5.032666
     61          1           0       -5.061848   -6.991609   -4.353891
     62          1           0       -4.650599   -5.305823   -4.768534
     63          1           0       -6.048393   -5.379706    2.208325
     64          1           0       -7.647671   -3.692433    4.069347
     65          1           0       -7.946211   -6.588707    2.413256
     66          1           0       -8.790638   -5.297578    1.492026
     67          1           0       -8.783164   -5.249946    3.178635
     68          1           0       -5.650069   -5.065574    4.771046
     69          1           0       -5.668719   -3.416353    5.385511
     70          1           0       -4.084402   -4.714152    3.299284
     71          1           0       -3.502638   -3.617004    4.597170
     72          1           0       -4.310238   -2.984485    3.093039
     73          1           0       -6.370518    2.341224    5.396013
     74          1           0       -6.833630    0.614717    5.605217
     75          1           0       -8.091858    1.809213    5.080236
     76          1           0       -7.924066    4.301933    0.616195
     77          1           0       -5.861990    7.967359   -0.349204
     78          1           0       -5.500902    6.912159   -1.844496
     79          1           0       -4.526250    6.946661   -0.363081
     80         12           0        6.791265   -0.528348    0.198302
     81          6           0        5.700368    2.886337    0.368350
     82          6           0        6.736409   -0.220330   -3.198276
     83          6           0        7.313605   -3.652063    0.005949
     84          6           0        5.674635   -0.902999    3.478311
     85          7           0        6.269110    1.164824   -1.125627
     86          6           0        5.928248    2.432270   -0.947457
     87          6           0        5.903981    3.280605   -2.247185
     88          6           0        5.677283    2.093676   -3.304853
     89          6           0        6.295865    0.941611   -2.515690
     90          6           0        4.211266    1.774433   -3.546128
     91          6           0        7.262047    4.024458   -2.500886
     92          6           0        7.209399    5.109494   -3.578696
     93          1           0        8.023279    6.308644   -3.399482
     94          7           0        7.463365   -1.627489   -1.311249
     95          6           0        7.377528   -1.341661   -2.627384
     96          6           0        8.001726   -2.475369   -3.326842
     97          6           0        8.315241   -3.529807   -2.324547
     98          6           0        7.676683   -2.973787   -1.148463
     99          6           0        8.317185   -2.452198   -4.794273
    100          6           0        9.054933   -4.830265   -2.413269
    101          8           0        9.001698   -5.700638   -1.473883
    102          6           0        9.767571   -5.094601   -3.671747
    103          7           0        6.342261   -2.113680    1.466153
    104          6           0        6.728167   -3.367022    1.169274
    105          6           0        6.539587   -4.289865    2.349608
    106          6           0        6.171378   -3.340449    3.582738
    107          6           0        6.121139   -1.981840    2.849899
    108          6           0        5.459743   -5.360053    2.191442
    109          6           0        7.056082   -3.462492    4.853592
    110          6           0        8.452964   -2.964738    4.559764
    111          7           0        6.026504    0.778174    1.739786
    112          6           0        5.594319    0.410190    3.032807
    113          6           0        5.052628    1.626241    3.673300
    114          6           0        5.187214    2.620252    2.692320
    115          6           0        5.752921    2.058598    1.515873
    116          6           0        4.482723    1.696985    4.975728
    117          6           0        4.969535    4.014615    2.380786
    118          8           0        4.597793    4.999306    3.017905
    119          6           0        5.175319    4.221431    0.818321
    120          6           0        6.057339    5.423787    0.621126
    121          8           0        7.240139    5.409778    1.005068
    122          8           0        5.428402    6.305453   -0.177288
    123          6           0        6.268137    7.510394   -0.411377
    124          1           0        6.535472   -0.301836   -4.266861
    125          1           0        7.574824   -4.712520    0.031647
    126          1           0        5.397360   -0.915525    4.534543
    127          1           0        5.090919    3.993965   -2.308912
    128          1           0        6.233801    2.269954   -4.221678
    129          1           0        3.564394    2.320444   -2.875628
    130          1           0        4.111639    0.709142   -3.384076
    131          1           0        3.956220    1.944723   -4.596033
    132          1           0        7.969503    3.328290   -2.969515
    133          1           0        7.645409    4.439260   -1.588971
    134          1           0        6.179438    5.379813   -3.841491
    135          1           0        7.623384    4.700350   -4.503492
    136          1           0        7.821713   -1.613667   -5.299040
    137          1           0        7.857662   -3.343900   -5.234245
    138          1           0        9.390533   -2.472288   -4.994739
    139          1           0        9.061419   -5.071561   -4.498345
    140          1           0       10.307952   -6.029456   -3.510775
    141          1           0       10.482679   -4.282887   -3.846012
    142          1           0        7.456318   -4.820380    2.576042
    143          1           0        5.155102   -3.533673    3.956482
    144          1           0        5.841196   -6.389078    2.331702
    145          1           0        5.011577   -5.250720    1.212804
    146          1           0        4.601338   -5.251137    2.852120
    147          1           0        7.155304   -4.510517    5.146748
    148          1           0        6.660143   -2.924984    5.708762
    149          1           0        8.932329   -3.833098    4.097968
    150          1           0        8.958602   -2.677385    5.479443
    151          1           0        8.435859   -2.161978    3.813484
    152          1           0        4.873629    2.593466    5.438346
    153          1           0        4.718649    0.811057    5.561599
    154          1           0        3.420777    1.750056    4.721325
    155          1           0        4.189136    4.359767    0.373496
    156          1           0        5.672201    8.378165   -0.112166
    157          1           0        6.580908    7.455290   -1.471033
    158          1           0        7.149054    7.635286    0.207369
 ---------------------------------------------------------------------

 SCF Done:  E(RCAM-B3LYP) =  -4069.81143748     A.U. after   19 cycles

 Excitation energies and oscillator strengths:

 Excited State   1:      Singlet-A      1.6653 eV  744.51 nm  f=0.0267  <S**2>=0.000
     309 -> 315       -0.11116
     310 -> 316        0.13039
     311 -> 313       -0.44398
     312 -> 314        0.52376
 This state for optimization and/or second-order correction.
 Total Energy, E(TD-HF/TD-DFT) =  -4069.75023870
 Copying the excited state density for this state as the 1-particle RhoCI density.

 Excited State   2:      Singlet-A      1.6897 eV  733.75 nm  f=0.7189  <S**2>=0.000
     309 -> 315        0.13581
     310 -> 316        0.11446
     311 -> 313        0.52255
     312 -> 314        0.44307

 Excited State   3:      Singlet-A      2.1849 eV  567.47 nm  f=0.0352  <S**2>=0.000
     309 -> 313        0.21986
     310 -> 314        0.60438
     312 -> 316       -0.25580

 Excited State   4:      Singlet-A      2.1933 eV  565.28 nm  f=0.1531  <S**2>=0.000
     309 -> 313        0.60189
     310 -> 314       -0.21803
     311 -> 315       -0.26239

 Excited State   5:      Singlet-A      2.6564 eV  466.73 nm  f=0.0000  <S**2>=0.000
     312 -> 313        0.70709

 The electronic state is 1-A.
 Alpha  occ. eigenvalues --  -46.87802 -46.87538 -19.26240 -19.26205 -19.19019
 Alpha  occ. eigenvalues --  -19.18973 -19.18829 -19.18613 -19.18144 -19.17882
 Alpha  occ. eigenvalues --  -14.42457 -14.42378 -14.41456 -14.41238 -14.39409
 Alpha  occ. eigenvalues --  -14.39231 -14.38587 -14.38470 -10.39037 -10.38946
 Alpha  occ. eigenvalues --  -10.35464 -10.35293 -10.34364 -10.34058 -10.31627
 Alpha  occ. eigenvalues --  -10.31627 -10.31407 -10.31181 -10.30918 -10.30909
 Alpha  occ. eigenvalues --  -10.30570 -10.30508 -10.30269 -10.30228 -10.30219
 Alpha  occ. eigenvalues --  -10.30033 -10.29922 -10.29766 -10.29632 -10.29321
 Alpha  occ. eigenvalues --  -10.29274 -10.29262 -10.28762 -10.28608 -10.28575
 Alpha  occ. eigenvalues --  -10.28571 -10.28367 -10.28277 -10.28129 -10.28033
 Alpha  occ. eigenvalues --  -10.27868 -10.27791 -10.27735 -10.27590 -10.27554
 Alpha  occ. eigenvalues --  -10.27514 -10.27508 -10.27460 -10.27414 -10.27404
 Alpha  occ. eigenvalues --  -10.27382 -10.27357 -10.27345 -10.27268 -10.27137
 Alpha  occ. eigenvalues --  -10.26885 -10.26729 -10.26597 -10.26438 -10.26339
 Alpha  occ. eigenvalues --  -10.26244 -10.26204 -10.26046 -10.26025 -10.25917
 Alpha  occ. eigenvalues --  -10.25819 -10.25814 -10.25675 -10.25444 -10.25291
 Alpha  occ. eigenvalues --  -10.24827 -10.24792 -10.24734 -10.24717 -10.24642
 Alpha  occ. eigenvalues --  -10.24567  -3.16545  -3.16288  -1.91427  -1.91170
 Alpha  occ. eigenvalues --   -1.91013  -1.90855  -1.90759  -1.90596  -1.16588
 Alpha  occ. eigenvalues --   -1.16500  -1.08597  -1.08484  -1.07231  -1.06868
 Alpha  occ. eigenvalues --   -1.06802  -1.06596  -1.04587  -1.04374  -1.03767
 Alpha  occ. eigenvalues --   -1.03541  -1.03237  -1.02915  -1.02415  -1.01986
 Alpha  occ. eigenvalues --   -0.91967  -0.91851  -0.89528  -0.89379  -0.89200
 Alpha  occ. eigenvalues --   -0.89042  -0.88296  -0.88109  -0.87863  -0.87681
 Alpha  occ. eigenvalues --   -0.87649  -0.87566  -0.87287  -0.87014  -0.84993
 Alpha  occ. eigenvalues --   -0.84889  -0.83944  -0.83765  -0.82984  -0.82834
 Alpha  occ. eigenvalues --   -0.82655  -0.82543  -0.81569  -0.81465  -0.80593
 Alpha  occ. eigenvalues --   -0.80319  -0.78804  -0.78517  -0.77227  -0.77032
 Alpha  occ. eigenvalues --   -0.76937  -0.76783  -0.75920  -0.75717  -0.74902
 Alpha  occ. eigenvalues --   -0.74688  -0.72776  -0.72572  -0.71675  -0.71461
 Alpha  occ. eigenvalues --   -0.69922  -0.69654  -0.68882  -0.68715  -0.67642
 Alpha  occ. eigenvalues --   -0.67479  -0.67236  -0.67097  -0.65293  -0.65155
 Alpha  occ. eigenvalues --   -0.64851  -0.64648  -0.64621  -0.64533  -0.64277
 Alpha  occ. eigenvalues --   -0.64090  -0.62276  -0.62147  -0.60453  -0.60229
 Alpha  occ. eigenvalues --   -0.59812  -0.59680  -0.58988  -0.58869  -0.58502
 Alpha  occ. eigenvalues --   -0.58299  -0.57564  -0.57405  -0.57308  -0.57115
 Alpha  occ. eigenvalues --   -0.56310  -0.56079  -0.55958  -0.55760  -0.55525
 Alpha  occ. eigenvalues --   -0.55335  -0.55335  -0.55125  -0.54512  -0.54366
 Alpha  occ. eigenvalues --   -0.53906  -0.53803  -0.53304  -0.53228  -0.53110
 Alpha  occ. eigenvalues --   -0.53025  -0.52907  -0.52783  -0.52771  -0.52571
 Alpha  occ. eigenvalues --   -0.52451  -0.52298  -0.51899  -0.51725  -0.51626
 Alpha  occ. eigenvalues --   -0.51550  -0.51191  -0.51070  -0.50595  -0.50383
 Alpha  occ. eigenvalues --   -0.50045  -0.49931  -0.49873  -0.49759  -0.49522
 Alpha  occ. eigenvalues --   -0.49379  -0.49211  -0.49099  -0.49078  -0.48977
 Alpha  occ. eigenvalues --   -0.48584  -0.48470  -0.48441  -0.48431  -0.48258
 Alpha  occ. eigenvalues --   -0.48224  -0.47701  -0.47483  -0.47301  -0.47008
 Alpha  occ. eigenvalues --   -0.46803  -0.46593  -0.46565  -0.46447  -0.46361
 Alpha  occ. eigenvalues --   -0.46156  -0.46152  -0.45955  -0.45805  -0.45683
 Alpha  occ. eigenvalues --   -0.45209  -0.45095  -0.44566  -0.44522  -0.44391
 Alpha  occ. eigenvalues --   -0.44359  -0.44152  -0.44098  -0.44014  -0.44008
 Alpha  occ. eigenvalues --   -0.43966  -0.43818  -0.43478  -0.43427  -0.43395
 Alpha  occ. eigenvalues --   -0.43266  -0.43026  -0.42802  -0.42764  -0.42694
 Alpha  occ. eigenvalues --   -0.42636  -0.42446  -0.42017  -0.41855  -0.41701
 Alpha  occ. eigenvalues --   -0.41546  -0.41533  -0.41351  -0.41145  -0.40883
 Alpha  occ. eigenvalues --   -0.40871  -0.40841  -0.40623  -0.40596  -0.40580
 Alpha  occ. eigenvalues --   -0.40382  -0.40255  -0.40130  -0.39459  -0.39324
 Alpha  occ. eigenvalues --   -0.38481  -0.38242  -0.37764  -0.37551  -0.37329
 Alpha  occ. eigenvalues --   -0.37272  -0.37153  -0.37084  -0.36688  -0.36638
 Alpha  occ. eigenvalues --   -0.36182  -0.36098  -0.34288  -0.34129  -0.33733
 Alpha  occ. eigenvalues --   -0.33723  -0.33186  -0.33052  -0.31358  -0.31172
 Alpha  occ. eigenvalues --   -0.31038  -0.30850  -0.30002  -0.29785  -0.29454
 Alpha  occ. eigenvalues --   -0.29317  -0.29206  -0.29071  -0.24084  -0.23911
 Alpha  occ. eigenvalues --   -0.21132  -0.20994
 Alpha virt. eigenvalues --   -0.08777  -0.08666  -0.01756  -0.01565  -0.00065
 Alpha virt. eigenvalues --    0.00087   0.02210   0.02354   0.03111   0.03336
 Alpha virt. eigenvalues --    0.04708   0.04844   0.05136   0.05310   0.06161

 Mulliken charges:
               1
     1  Mg   0.838623
     2  C   -0.002862
     3  C   -0.094371
     4  C   -0.045909
     5  C   -0.063984
     6  N   -0.256737
     7  C   -0.052513
     8  C   -0.013938
     9  C   -0.086943
    10  C    0.046188
    11  C    0.104824
    12  C    0.053559
    13  C   -0.071607
    14  H    0.035866
    15  N   -0.433105
    16  C    0.168254
    17  C   -0.177402
    18  C   -0.004128
    19  C    0.148613
    20  C    0.110252
    21  C    0.012176
    22  O   -0.249650
    23  C    0.062565
    24  N   -0.341138
    25  C    0.041166
    26  C   -0.028168
    27  C   -0.023968
    28  C    0.074850
    29  C    0.076166
    30  C    0.035123
    31  C   -0.004447
    32  N   -0.310584
    33  C    0.080548
    34  C   -0.169415
    35  C    0.008654
    36  C    0.083120
    37  C    0.127187
    38  C    0.046561
    39  O   -0.187605
    40  C   -0.005518
    41  C    0.213034
    42  O   -0.256598
    43  O   -0.304981
    44  C    0.157400
    45  H   -0.017771
    46  H   -0.016909
    47  H   -0.041380
    48  H    0.001104
    49  H   -0.004350
    50  H    0.025585
    51  H    0.016471
    52  H    0.016542
    53  H    0.010692
    54  H    0.044362
    55  H    0.018078
    56  H    0.017492
    57  H    0.005689
    58  H    0.026791
    59  H    0.038997
    60  H    0.037321
    61  H    0.035624
    62  H    0.031114
    63  H    0.016424
    64  H    0.009560
    65  H    0.023170
    66  H    0.012577
    67  H    0.004785
    68  H    0.006304
    69  H    0.004847
    70  H    0.008653
    71  H    0.017748
    72  H    0.029134
    73  H    0.048268
    74  H    0.009067
    75  H    0.046072
    76  H    0.035144
    77  H    0.043246
    78  H    0.045872
    79  H    0.054517
    80  Mg   0.837764
    81  C   -0.016620
    82  C   -0.087948
    83  C   -0.045594
    84  C   -0.064789
    85  N   -0.254485
    86  C   -0.049572
    87  C   -0.015108
    88  C   -0.090559
    89  C    0.045726
    90  C    0.114319
    91  C    0.062597
    92  C   -0.077638
    93  H    0.034634
    94  N   -0.423406
    95  C    0.162725
    96  C   -0.174990
    97  C   -0.008051
    98  C    0.151969
    99  C    0.099538
   100  C    0.015348
   101  O   -0.253437
   102  C    0.061298
   103  N   -0.349995
   104  C    0.037434
   105  C   -0.019792
   106  C   -0.034791
   107  C    0.089081
   108  C    0.073699
   109  C    0.034741
   110  C   -0.007618
   111  N   -0.324316
   112  C    0.078702
   113  C   -0.162743
   114  C    0.002980
   115  C    0.096126
   116  C    0.131321
   117  C    0.043321
   118  O   -0.186573
   119  C    0.000529
   120  C    0.211210
   121  O   -0.251399
   122  O   -0.305280
   123  C    0.152136
   124  H   -0.020297
   125  H   -0.015831
   126  H   -0.040405
   127  H   -0.000250
   128  H   -0.004854
   129  H    0.023624
   130  H    0.014277
   131  H    0.015268
   132  H    0.013729
   133  H    0.037743
   134  H    0.020692
   135  H    0.019199
   136  H    0.008350
   137  H    0.025608
   138  H    0.039424
   139  H    0.037982
   140  H    0.036093
   141  H    0.033752
   142  H    0.014153
   143  H    0.012446
   144  H    0.024861
   145  H    0.011804
   146  H    0.005647
   147  H    0.006020
   148  H    0.003626
   149  H    0.010801
   150  H    0.017770
   151  H    0.030216
   152  H    0.046083
   153  H    0.008016
   154  H    0.048761
   155  H    0.036697
   156  H    0.044109
   157  H    0.049010
   158  H    0.053378
 Sum of Mulliken charges =  -0.00000

 Dipole moment (field-independent basis, Debye):
    X=             -2.6345    Y=             -2.2978    Z=             -7.9856  Tot=              8.7172
 Quadrupole moment (field-independent basis, Debye-Ang):
   XX=           -502.3448   YY=           -547.2824   ZZ=           -452.0839
   XY=              5.7330   XZ=             -4.1328   YZ=            -51.8477

 Normal termination of Gaussian 16 at Sat Sep 11 14:34:28 2021.
