 Gaussian 16, Revision A.03,
 Gaussian 16:  ES64L-G16RevA.03 25-Dec-2016

 -----------------------------------
 #p cam-b3lyp/Def2SVP td=(nstates=5)
 -----------------------------------

 --------------------------------
 TDDFT excited states in gaussian
 --------------------------------
 Symbolic Z-matrix:
 Charge =  0 Multiplicity = 1

                         Standard orientation:
 ---------------------------------------------------------------------
 Center     Atomic      Atomic             Coordinates (Angstroms)
 Number     Number       Type             X           Y           Z
 ---------------------------------------------------------------------
      1         12           0       -6.526034    0.684971    0.321271
      2          6           0       -6.834746   -2.394840   -1.476415
      3          6           0       -7.229813   -1.073506    3.159496
      4          6           0       -6.707380    3.451744    1.860329
      5          6           0       -6.972692    2.332393   -2.717176
      6          7           0       -6.957110   -1.458349    0.669120
      7          6           0       -6.986012   -2.544972   -0.096116
      8          6           0       -7.116856   -3.868640    0.715154
      9          6           0       -7.791755   -3.287669    2.037644
     10          6           0       -7.267505   -1.863992    1.972591
     11          6           0       -9.315537   -3.253121    1.979362
     12          6           0       -5.725556   -4.518995    1.020203
     13          6           0       -5.775923   -5.966513    1.517705
     14          1           0       -4.722044   -6.883800    1.111168
     15          7           0       -6.429575    1.084913    2.253522
     16          6           0       -6.737393    0.244830    3.270770
     17          6           0       -6.503006    1.008515    4.515168
     18          6           0       -6.216180    2.419842    4.135721
     19          6           0       -6.468632    2.380481    2.717943
     20          6           0       -6.514820    0.385672    5.877401
     21          6           0       -5.793417    3.616895    4.927218
     22          8           0       -5.824406    4.799102    4.441419
     23          6           0       -5.421178    3.376788    6.333216
     24          7           0       -7.018617    2.619624   -0.288741
     25          6           0       -6.962558    3.647670    0.565052
     26          6           0       -7.078721    4.959977   -0.152093
     27          6           0       -6.982109    4.622543   -1.709834
     28          6           0       -6.904758    3.078903   -1.612560
     29          6           0       -8.360917    5.759246    0.118376
     30          6           0       -5.893532    5.365739   -2.524130
     31          6           0       -4.520979    4.913077   -2.078828
     32          7           0       -6.671524    0.109049   -1.766357
     33          6           0       -6.879385    0.958359   -2.862778
     34          6           0       -7.014910    0.100375   -4.054233
     35          6           0       -6.892218   -1.197695   -3.562497
     36          6           0       -6.718937   -1.154518   -2.149556
     37          6           0       -7.280931    0.548681   -5.378124
     38          6           0       -6.891838   -2.612193   -3.898730
     39          8           0       -6.905331   -3.253530   -4.950395
     40          6           0       -6.976603   -3.448703   -2.546365
     41          6           0       -5.930740   -4.528057   -2.613262
     42          8           0       -4.715810   -4.243035   -2.604680
     43          8           0       -6.513962   -5.723692   -2.437620
     44          6           0       -5.527337   -6.836373   -2.463441
     45          1           0       -7.669829   -1.474266    4.074766
     46          1           0       -6.667426    4.433862    2.336025
     47          1           0       -7.029408    2.779406   -3.711366
     48          1           0       -7.768112   -4.616608    0.262570
     49          1           0       -7.424579   -3.786074    2.934581
     50          1           0       -9.682268   -3.513701    0.986625
     51          1           0       -9.593308   -2.229454    2.231238
     52          1           0       -9.747334   -3.881222    2.758990
     53          1           0       -5.287662   -4.037451    1.894517
     54          1           0       -5.072624   -4.459810    0.148708
     55          1           0       -6.756538   -6.412236    1.348485
     56          1           0       -5.665248   -5.959013    2.602092
     57          1           0       -6.917011   -0.626317    5.851591
     58          1           0       -7.230253    0.947061    6.477989
     59          1           0       -5.533447    0.415983    6.351024
     60          1           0       -6.267053    2.933036    6.858696
     61          1           0       -5.061417    4.331112    6.716214
     62          1           0       -4.619130    2.638780    6.365037
     63          1           0       -6.262470    5.627902    0.120004
     64          1           0       -7.909508    4.850199   -2.235931
     65          1           0       -8.178217    6.764107    0.499926
     66          1           0       -8.976835    5.184511    0.809474
     67          1           0       -9.028301    5.856065   -0.737568
     68          1           0       -5.951568    6.438634   -2.343923
     69          1           0       -5.975504    5.205099   -3.599177
     70          1           0       -4.331626    5.534363   -1.204196
     71          1           0       -3.785094    5.104618   -2.860491
     72          1           0       -4.532904    3.875347   -1.744973
     73          1           0       -6.620142   -0.020819   -6.031574
     74          1           0       -7.107424    1.620115   -5.475734
     75          1           0       -8.334479    0.285991   -5.472397
     76          1           0       -7.984856   -3.858322   -2.493824
     77          1           0       -5.853830   -7.537097   -3.231960
     78          1           0       -5.450771   -7.206420   -1.440892
     79          1           0       -4.528610   -6.586776   -2.823422
     80         12           0        6.686996    0.697570   -0.469157
     81          6           0        6.572286   -2.573517    1.002523
     82          6           0        5.994143    1.951330    2.626427
     83          6           0        6.335693    3.550627   -1.812324
     84          6           0        6.233448   -0.832275   -3.567472
     85          7           0        6.349172   -0.284876    1.483520
     86          6           0        6.391395   -1.529775    1.933824
     87          6           0        6.310959   -1.658015    3.478700
     88          6           0        5.567809   -0.270425    3.796803
     89          6           0        6.022237    0.534558    2.581004
     90          6           0        4.052349   -0.377074    3.759767
     91          6           0        7.728804   -1.716917    4.148215
     92          6           0        7.729525   -2.150922    5.615655
     93          1           0        8.843136   -2.961155    6.101304
     94          7           0        6.718004    2.509995    0.338775
     95          6           0        6.431438    2.836327    1.616533
     96          6           0        6.580202    4.297410    1.701660
     97          6           0        6.817290    4.825454    0.330645
     98          6           0        6.607568    3.625270   -0.453993
     99          6           0        6.572381    5.041535    3.005373
    100          6           0        7.161588    6.188242   -0.189394
    101          8           0        7.086866    6.471459   -1.437208
    102          6           0        7.498668    7.207411    0.815177
    103          7           0        6.124987    1.297395   -2.378790
    104          6           0        6.103701    2.598731   -2.716421
    105          6           0        5.938985    2.772825   -4.207375
    106          6           0        6.097383    1.308720   -4.830970
    107          6           0        6.243845    0.493043   -3.527670
    108          6           0        4.612213    3.379285   -4.663760
    109          6           0        7.169648    1.128451   -5.940216
    110          6           0        8.552332    1.304787   -5.354996
    111          7           0        6.628701   -1.331878   -1.208067
    112          6           0        6.400828   -1.749305   -2.537697
    113          6           0        6.338534   -3.225249   -2.526036
    114          6           0        6.512901   -3.565819   -1.176183
    115          6           0        6.652413   -2.384669   -0.398429
    116          6           0        6.095589   -4.056568   -3.655644
    117          6           0        6.600046   -4.655561   -0.230905
    118          8           0        6.637790   -5.882079   -0.320203
    119          6           0        6.515886   -4.057238    1.239237
    120          6           0        7.614756   -4.678506    2.057184
    121          8           0        8.807759   -4.451954    1.788813
    122          8           0        7.079095   -5.258047    3.146941
    123          6           0        8.130924   -5.878730    3.995591
    124          1           0        5.557139    2.433805    3.501142
    125          1           0        6.314831    4.505766   -2.342181
    126          1           0        6.192803   -1.387782   -4.506853
    127          1           0        5.714654   -2.489396    3.835080
    128          1           0        5.943401    0.177830    4.712968
    129          1           0        3.725000   -1.344266    3.408333
    130          1           0        3.718942    0.402514    3.087352
    131          1           0        3.633014   -0.129918    4.739260
    132          1           0        8.117490   -0.695896    4.254070
    133          1           0        8.390273   -2.346083    3.584976
    134          1           0        6.772195   -2.594845    5.914674
    135          1           0        7.818557   -1.259391    6.241161
    136          1           0        6.213747    4.409489    3.827141
    137          1           0        5.816604    5.829714    2.919150
    138          1           0        7.536705    5.500112    3.234405
    139          1           0        6.663500    7.328640    1.500924
    140          1           0        7.801966    8.088836    0.246859
    141          1           0        8.344594    6.845703    1.410308
    142          1           0        6.714944    3.412173   -4.610129
    143          1           0        5.168780    0.968148   -5.312162
    144          1           0        4.737083    4.296177   -5.270203
    145          1           0        4.010232    3.581743   -3.787876
    146          1           0        3.970982    2.710352   -5.235206
    147          1           0        7.055958    1.899884   -6.705799
    148          1           0        7.115859    0.167485   -6.440868
    149          1           0        8.683131    2.391054   -5.353877
    150          1           0        9.297960    0.818098   -5.980464
    151          1           0        8.584302    0.967844   -4.312357
    152          1           0        6.792698   -4.881392   -3.590876
    153          1           0        6.214528   -3.506680   -4.586903
    154          1           0        5.054031   -4.334230   -3.473057
    155          1           0        5.527295   -4.295275    1.633714
    156          1           0        7.855579   -6.929581    4.128188
    157          1           0        8.186934   -5.253855    4.906720
    158          1           0        9.124807   -5.972117    3.573775
 ---------------------------------------------------------------------

 SCF Done:  E(RCAM-B3LYP) =  -4069.81177273     A.U. after   19 cycles

 Excitation energies and oscillator strengths:

 Excited State   1:      Singlet-A      1.6697 eV  742.54 nm  f=0.1693  <S**2>=0.000
     309 -> 315       -0.10419
     310 -> 316        0.13734
     311 -> 313       -0.41353
     312 -> 314        0.54770
 This state for optimization and/or second-order correction.
 Total Energy, E(TD-HF/TD-DFT) =  -4069.75041112
 Copying the excited state density for this state as the 1-particle RhoCI density.

 Excited State   2:      Singlet-A      1.6842 eV  736.16 nm  f=0.5648  <S**2>=0.000
     309 -> 315        0.14078
     310 -> 316        0.10614
     311 -> 313        0.54695
     312 -> 314        0.41310

 Excited State   3:      Singlet-A      2.1856 eV  567.29 nm  f=0.0798  <S**2>=0.000
     309 -> 313       -0.12332
     310 -> 314        0.63069
     312 -> 316       -0.26793

 Excited State   4:      Singlet-A      2.1919 eV  565.64 nm  f=0.1165  <S**2>=0.000
     309 -> 313        0.62887
     310 -> 314        0.12238
     311 -> 315       -0.27278

 Excited State   5:      Singlet-A      2.6503 eV  467.82 nm  f=0.0000  <S**2>=0.000
     312 -> 313        0.70710

 The electronic state is 1-A.
 Alpha  occ. eigenvalues --  -46.87851 -46.87556 -19.26304 -19.26282 -19.19104
 Alpha  occ. eigenvalues --  -19.19028 -19.18901 -19.18622 -19.18211 -19.17957
 Alpha  occ. eigenvalues --  -14.42500 -14.42400 -14.41502 -14.41251 -14.39461
 Alpha  occ. eigenvalues --  -14.39250 -14.38639 -14.38494 -10.39090 -10.39031
 Alpha  occ. eigenvalues --  -10.35536 -10.35301 -10.34429 -10.34136 -10.31729
 Alpha  occ. eigenvalues --  -10.31655 -10.31449 -10.31213 -10.30959 -10.30936
 Alpha  occ. eigenvalues --  -10.30620 -10.30563 -10.30290 -10.30265 -10.30256
 Alpha  occ. eigenvalues --  -10.30031 -10.29971 -10.29781 -10.29689 -10.29331
 Alpha  occ. eigenvalues --  -10.29315 -10.29296 -10.28779 -10.28658 -10.28632
 Alpha  occ. eigenvalues --  -10.28536 -10.28419 -10.28306 -10.28152 -10.28075
 Alpha  occ. eigenvalues --  -10.27896 -10.27849 -10.27779 -10.27647 -10.27572
 Alpha  occ. eigenvalues --  -10.27561 -10.27551 -10.27500 -10.27452 -10.27391
 Alpha  occ. eigenvalues --  -10.27386 -10.27379 -10.27364 -10.27256 -10.27189
 Alpha  occ. eigenvalues --  -10.26967 -10.26724 -10.26646 -10.26526 -10.26335
 Alpha  occ. eigenvalues --  -10.26266 -10.26230 -10.26073 -10.26020 -10.25967
 Alpha  occ. eigenvalues --  -10.25891 -10.25820 -10.25705 -10.25484 -10.25265
 Alpha  occ. eigenvalues --  -10.24886 -10.24842 -10.24767 -10.24734 -10.24627
 Alpha  occ. eigenvalues --  -10.24585  -3.16594  -3.16306  -1.91475  -1.91188
 Alpha  occ. eigenvalues --   -1.91062  -1.90904  -1.90777  -1.90614  -1.16633
 Alpha  occ. eigenvalues --   -1.16595  -1.08665  -1.08567  -1.07304  -1.06889
 Alpha  occ. eigenvalues --   -1.06875  -1.06650  -1.04631  -1.04399  -1.03813
 Alpha  occ. eigenvalues --   -1.03561  -1.03289  -1.02931  -1.02465  -1.02006
 Alpha  occ. eigenvalues --   -0.92017  -0.91891  -0.89570  -0.89385  -0.89222
 Alpha  occ. eigenvalues --   -0.89082  -0.88337  -0.88108  -0.87922  -0.87721
 Alpha  occ. eigenvalues --   -0.87678  -0.87588  -0.87347  -0.87025  -0.85021
 Alpha  occ. eigenvalues --   -0.84924  -0.83983  -0.83767  -0.83048  -0.82838
 Alpha  occ. eigenvalues --   -0.82692  -0.82574  -0.81612  -0.81519  -0.80640
 Alpha  occ. eigenvalues --   -0.80357  -0.78861  -0.78534  -0.77265  -0.77057
 Alpha  occ. eigenvalues --   -0.76964  -0.76817  -0.75957  -0.75761  -0.74943
 Alpha  occ. eigenvalues --   -0.74697  -0.72825  -0.72593  -0.71717  -0.71485
 Alpha  occ. eigenvalues --   -0.69955  -0.69647  -0.68916  -0.68749  -0.67694
 Alpha  occ. eigenvalues --   -0.67507  -0.67262  -0.67129  -0.65322  -0.65196
 Alpha  occ. eigenvalues --   -0.64895  -0.64675  -0.64659  -0.64570  -0.64318
 Alpha  occ. eigenvalues --   -0.64097  -0.62319  -0.62203  -0.60508  -0.60239
 Alpha  occ. eigenvalues --   -0.59846  -0.59716  -0.59035  -0.58893  -0.58551
 Alpha  occ. eigenvalues --   -0.58330  -0.57617  -0.57470  -0.57357  -0.57135
 Alpha  occ. eigenvalues --   -0.56363  -0.56106  -0.55995  -0.55820  -0.55579
 Alpha  occ. eigenvalues --   -0.55378  -0.55368  -0.55149  -0.54554  -0.54398
 Alpha  occ. eigenvalues --   -0.53929  -0.53844  -0.53358  -0.53270  -0.53130
 Alpha  occ. eigenvalues --   -0.53060  -0.52953  -0.52823  -0.52819  -0.52586
 Alpha  occ. eigenvalues --   -0.52485  -0.52293  -0.51963  -0.51758  -0.51660
 Alpha  occ. eigenvalues --   -0.51586  -0.51237  -0.51108  -0.50658  -0.50386
 Alpha  occ. eigenvalues --   -0.50084  -0.49984  -0.49896  -0.49760  -0.49565
 Alpha  occ. eigenvalues --   -0.49404  -0.49264  -0.49132  -0.49118  -0.49022
 Alpha  occ. eigenvalues --   -0.48628  -0.48527  -0.48493  -0.48476  -0.48269
 Alpha  occ. eigenvalues --   -0.48249  -0.47744  -0.47508  -0.47350  -0.47022
 Alpha  occ. eigenvalues --   -0.46843  -0.46613  -0.46591  -0.46480  -0.46409
 Alpha  occ. eigenvalues --   -0.46204  -0.46169  -0.45980  -0.45853  -0.45731
 Alpha  occ. eigenvalues --   -0.45251  -0.45101  -0.44619  -0.44564  -0.44432
 Alpha  occ. eigenvalues --   -0.44390  -0.44197  -0.44128  -0.44067  -0.44044
 Alpha  occ. eigenvalues --   -0.43981  -0.43854  -0.43524  -0.43477  -0.43430
 Alpha  occ. eigenvalues --   -0.43298  -0.43072  -0.42860  -0.42807  -0.42734
 Alpha  occ. eigenvalues --   -0.42677  -0.42448  -0.42051  -0.41872  -0.41749
 Alpha  occ. eigenvalues --   -0.41576  -0.41570  -0.41380  -0.41186  -0.40917
 Alpha  occ. eigenvalues --   -0.40899  -0.40889  -0.40643  -0.40619  -0.40616
 Alpha  occ. eigenvalues --   -0.40389  -0.40263  -0.40169  -0.39489  -0.39314
 Alpha  occ. eigenvalues --   -0.38515  -0.38246  -0.37777  -0.37590  -0.37369
 Alpha  occ. eigenvalues --   -0.37301  -0.37163  -0.37115  -0.36733  -0.36705
 Alpha  occ. eigenvalues --   -0.36225  -0.36123  -0.34337  -0.34152  -0.33796
 Alpha  occ. eigenvalues --   -0.33787  -0.33236  -0.33073  -0.31429  -0.31181
 Alpha  occ. eigenvalues --   -0.31086  -0.30874  -0.30068  -0.29863  -0.29512
 Alpha  occ. eigenvalues --   -0.29376  -0.29225  -0.29104  -0.24132  -0.23932
 Alpha  occ. eigenvalues --   -0.21181  -0.21013
 Alpha virt. eigenvalues --   -0.08831  -0.08689  -0.01806  -0.01580  -0.00124
 Alpha virt. eigenvalues --    0.00064   0.02151   0.02311   0.03058   0.03318
 Alpha virt. eigenvalues --    0.04679   0.04817   0.05084   0.05228   0.06163

 Mulliken charges:
               1
     1  Mg   0.838592
     2  C   -0.002896
     3  C   -0.094178
     4  C   -0.045999
     5  C   -0.063969
     6  N   -0.256782
     7  C   -0.052333
     8  C   -0.013988
     9  C   -0.086967
    10  C    0.046272
    11  C    0.104803
    12  C    0.053491
    13  C   -0.072155
    14  H    0.037142
    15  N   -0.433102
    16  C    0.168244
    17  C   -0.177359
    18  C   -0.004296
    19  C    0.148630
    20  C    0.110207
    21  C    0.011921
    22  O   -0.249761
    23  C    0.062689
    24  N   -0.341171
    25  C    0.041244
    26  C   -0.028130
    27  C   -0.024052
    28  C    0.074931
    29  C    0.076148
    30  C    0.035117
    31  C   -0.004487
    32  N   -0.310511
    33  C    0.080523
    34  C   -0.169702
    35  C    0.008466
    36  C    0.083025
    37  C    0.127306
    38  C    0.046188
    39  O   -0.188103
    40  C   -0.005315
    41  C    0.212895
    42  O   -0.257007
    43  O   -0.304857
    44  C    0.157501
    45  H   -0.017593
    46  H   -0.016967
    47  H   -0.041390
    48  H    0.001147
    49  H   -0.004020
    50  H    0.025567
    51  H    0.016363
    52  H    0.016751
    53  H    0.010885
    54  H    0.044318
    55  H    0.017921
    56  H    0.017797
    57  H    0.006008
    58  H    0.026827
    59  H    0.038824
    60  H    0.037588
    61  H    0.035190
    62  H    0.030718
    63  H    0.016428
    64  H    0.009580
    65  H    0.023179
    66  H    0.012552
    67  H    0.004866
    68  H    0.006504
    69  H    0.004815
    70  H    0.008683
    71  H    0.018370
    72  H    0.028810
    73  H    0.047608
    74  H    0.009141
    75  H    0.046184
    76  H    0.035290
    77  H    0.043154
    78  H    0.046590
    79  H    0.054097
    80  Mg   0.838089
    81  C   -0.016879
    82  C   -0.087905
    83  C   -0.045404
    84  C   -0.064058
    85  N   -0.254519
    86  C   -0.049769
    87  C   -0.015067
    88  C   -0.090540
    89  C    0.045772
    90  C    0.114434
    91  C    0.062588
    92  C   -0.077635
    93  H    0.034586
    94  N   -0.423468
    95  C    0.162844
    96  C   -0.174656
    97  C   -0.007864
    98  C    0.152100
    99  C    0.099381
   100  C    0.015487
   101  O   -0.253314
   102  C    0.061234
   103  N   -0.349947
   104  C    0.037661
   105  C   -0.019940
   106  C   -0.034987
   107  C    0.088960
   108  C    0.073493
   109  C    0.034673
   110  C   -0.007621
   111  N   -0.324196
   112  C    0.078498
   113  C   -0.162529
   114  C    0.002328
   115  C    0.096335
   116  C    0.131375
   117  C    0.042633
   118  O   -0.188083
   119  C    0.000805
   120  C    0.211145
   121  O   -0.251072
   122  O   -0.305710
   123  C    0.152117
   124  H   -0.019982
   125  H   -0.015654
   126  H   -0.039905
   127  H   -0.001039
   128  H   -0.004748
   129  H    0.022555
   130  H    0.015021
   131  H    0.015269
   132  H    0.013947
   133  H    0.037683
   134  H    0.020358
   135  H    0.019408
   136  H    0.008485
   137  H    0.026235
   138  H    0.039484
   139  H    0.038302
   140  H    0.036181
   141  H    0.033718
   142  H    0.014139
   143  H    0.013422
   144  H    0.024702
   145  H    0.011820
   146  H    0.006484
   147  H    0.006226
   148  H    0.003921
   149  H    0.010752
   150  H    0.017771
   151  H    0.029970
   152  H    0.045629
   153  H    0.008687
   154  H    0.048353
   155  H    0.035024
   156  H    0.043600
   157  H    0.049248
   158  H    0.053557
 Sum of Mulliken charges =  -0.00000

 Dipole moment (field-independent basis, Debye):
    X=             -3.6387    Y=              2.0418    Z=              6.9625  Tot=              8.1170
 Quadrupole moment (field-independent basis, Debye-Ang):
   XX=           -518.5002   YY=           -529.7375   ZZ=           -469.3097
   XY=             26.5481   XZ=             -4.9542   YZ=            -28.1544

 Normal termination of Gaussian 16 at Sat Sep  4 10:04:15 2021.
