 Gaussian 16, Revision A.03,
 Gaussian 16:  ES64L-G16RevA.03 25-Dec-2016

 -----------------------------------
 #p cam-b3lyp/Def2SVP td=(nstates=5)
 -----------------------------------

 --------------------------------
 TDDFT excited states in gaussian
 --------------------------------
 Symbolic Z-matrix:
 Charge =  0 Multiplicity = 1

                         Standard orientation:
 ---------------------------------------------------------------------
 Center     Atomic      Atomic             Coordinates (Angstroms)
 Number     Number       Type             X           Y           Z
 ---------------------------------------------------------------------
      1         12           0        7.803216    0.888813    0.275715
      2          6           0        8.416430   -2.558985   -0.465144
      3          6           0        8.634118    1.578179   -2.961172
      4          6           0        7.709881    3.969551    1.022016
      5          6           0        8.130317    0.069844    3.647355
      6          7           0        8.426875   -0.411088   -1.404152
      7          6           0        8.565067   -1.722338   -1.573555
      8          6           0        8.808578   -2.131364   -3.057055
      9          6           0        9.411531   -0.759208   -3.600778
     10          6           0        8.758488    0.198635   -2.619964
     11          6           0       10.926136   -0.657799   -3.451820
     12          6           0        7.480061   -2.506139   -3.796188
     13          6           0        7.658522   -3.224439   -5.136915
     14          1           0        6.698853   -4.250956   -5.514601
     15          7           0        7.647926    2.483042   -0.880645
     16          6           0        8.020494    2.580806   -2.179461
     17          6           0        7.702106    3.964763   -2.591739
     18          6           0        7.290210    4.718613   -1.375126
     19          6           0        7.561508    3.748558   -0.345190
     20          6           0        7.755878    4.432715   -4.013667
     21          6           0        6.749348    6.098570   -1.171855
     22          8           0        6.676320    6.636844   -0.014487
     23          6           0        6.384800    6.847072   -2.388362
     24          7           0        8.121522    1.928524    2.057658
     25          6           0        7.960697    3.254842    2.120892
     26          6           0        7.963085    3.738058    3.540905
     27          6           0        7.916051    2.428611    4.453532
     28          6           0        7.980854    1.359173    3.335331
     29          6           0        9.162567    4.603373    3.951371
     30          6           0        6.772769    2.338199    5.495238
     31          6           0        5.442998    2.204503    4.787472
     32          7           0        8.025403   -0.935711    1.430179
     33          6           0        8.166321   -1.041231    2.821467
     34          6           0        8.394400   -2.465821    3.125753
     35          6           0        8.386786   -3.091808    1.880793
     36          6           0        8.194017   -2.116231    0.861292
     37          6           0        8.632973   -3.014427    4.416702
     38          6           0        8.521251   -4.354574    1.172839
     39          8           0        8.606163   -5.535210    1.513984
     40          6           0        8.667554   -4.044109   -0.382164
     41          6           0        7.726967   -4.958527   -1.118674
     42          8           0        6.490847   -4.836345   -0.998489
     43          8           0        8.416337   -5.670128   -2.023624
     44          6           0        7.537343   -6.576611   -2.809634
     45          1           0        9.098798    1.938340   -3.881116
     46          1           0        7.573690    5.007361    1.333207
     47          1           0        8.156825   -0.272248    4.683561
     48          1           0        9.531456   -2.935814   -3.193918
     49          1           0        9.081793   -0.544154   -4.617020
     50          1           0       11.326810   -1.493122   -2.877698
     51          1           0       11.105011    0.282903   -2.930690
     52          1           0       11.405244   -0.556488   -4.425971
     53          1           0        6.989434   -1.594759   -4.137850
     54          1           0        6.834518   -3.102727   -3.150678
     55          1           0        8.678077   -3.590798   -5.260198
     56          1           0        7.535167   -2.492781   -5.935451
     57          1           0        8.250317    3.705286   -4.656258
     58          1           0        8.409301    5.304599   -4.037438
     59          1           0        6.770533    4.701269   -4.394858
     60          1           0        7.262032    6.942524   -3.028598
     61          1           0        5.933837    7.777488   -2.045130
     62          1           0        5.654222    6.267784   -2.953720
     63          1           0        7.085419    4.349160    3.747504
     64          1           0        8.824372    2.309167    5.044598
     65          1           0        8.883231    5.583219    4.339415
     66          1           0        9.821070    4.697729    3.088375
     67          1           0        9.827917    4.145029    4.682567
     68          1           0        6.729134    3.249699    6.090393
     69          1           0        6.881619    1.498638    6.181926
     70          1           0        5.186886    3.237203    4.553444
     71          1           0        4.701576    1.759317    5.451785
     72          1           0        5.547122    1.672269    3.841760
     73          1           0        8.035314   -3.923908    4.476843
     74          1           0        8.362134   -2.309758    5.202635
     75          1           0        9.707332   -3.190561    4.365862
     76          1           0        9.708733   -4.231733   -0.642674
     77          1           0        7.936132   -7.585149   -2.699854
     78          1           0        7.483619   -6.160499   -3.815800
     79          1           0        6.524001   -6.713611   -2.430545
     80         12           0       -7.972155   -0.947730    0.134779
     81          6           0       -8.149719    2.444449   -1.023090
     82          6           0       -7.263833    0.302670    3.228216
     83          6           0       -7.365920   -3.913489    1.085676
     84          6           0       -7.559301   -1.913956   -3.188123
     85          7           0       -7.761968    1.123866    0.880793
     86          6           0       -7.912307    2.333604    0.362839
     87          6           0       -7.881813    3.486471    1.401840
     88          6           0       -7.041565    2.749031    2.554683
     89          6           0       -7.400699    1.300428    2.230294
     90          6           0       -5.538518    2.913952    2.403002
     91          6           0       -9.316694    3.880592    1.899633
     92          6           0       -9.388841    5.197093    2.676409
     93          1           0      -10.574136    6.035080    2.517264
     94          7           0       -7.883069   -1.717720    1.961727
     95          6           0       -7.604960   -1.062450    3.108269
     96          6           0       -7.641940   -2.078507    4.171487
     97          6           0       -7.801969   -3.415327    3.537434
     98          6           0       -7.666007   -3.061624    2.138683
     99          6           0       -7.609873   -1.730224    5.631315
    100          6           0       -8.025913   -4.787113    4.098014
    101          8           0       -7.897364   -5.838619    3.376452
    102          6           0       -8.308519   -4.868582    5.538488
    103          7           0       -7.316354   -2.644753   -0.871409
    104          6           0       -7.185386   -3.820254   -0.231915
    105          6           0       -6.969364   -4.951489   -1.208651
    106          6           0       -7.224921   -4.323291   -2.656968
    107          6           0       -7.467750   -2.851856   -2.255325
    108          6           0       -5.588208   -5.605418   -1.174315
    109          6           0       -8.279075   -5.028276   -3.553869
    110          6           0       -9.658470   -4.860176   -2.958551
    111          7           0       -8.052671    0.029257   -1.790590
    112          6           0       -7.823802   -0.556880   -3.054765
    113          6           0       -7.876650    0.529567   -4.054390
    114          6           0       -8.111591    1.684989   -3.293941
    115          6           0       -8.178889    1.345656   -1.915598
    116          6           0       -7.670042    0.382092   -5.454998
    117          6           0       -8.307373    3.116061   -3.342805
    118          8           0       -8.437951    3.944739   -4.242793
    119          6           0       -8.214817    3.689598   -1.863314
    120          6           0       -9.379290    4.617815   -1.651288
    121          8           0      -10.543797    4.181324   -1.652147
    122          8           0       -8.918443    5.822467   -1.268138
    123          6           0      -10.036782    6.774697   -1.034877
    124          1           0       -6.813307    0.580643    4.181445
    125          1           0       -7.257315   -4.968231    1.348716
    126          1           0       -7.537777   -2.147402   -4.254763
    127          1           0       -7.361236    4.378707    1.075212
    128          1           0       -7.404631    3.019801    3.542723
    129          1           0       -5.278357    3.402315    1.475659
    130          1           0       -5.128390    1.912935    2.431474
    131          1           0       -5.126572    3.433288    3.273010
    132          1           0       -9.627499    3.181033    2.686255
    133          1           0      -10.010330    3.905106    1.081773
    134          1           0       -8.476888    5.795122    2.559584
    135          1           0       -9.424420    4.968410    3.744327
    136          1           0       -7.322651   -0.683288    5.788867
    137          1           0       -6.793192   -2.306347    6.079629
    138          1           0       -8.541229   -1.979331    6.144333
    139          1           0       -7.484365   -4.427059    6.093736
    140          1           0       -8.527745   -5.920008    5.734278
    141          1           0       -9.195005   -4.262375    5.755925
    142          1           0       -7.682727   -5.748994   -1.040655
    143          1           0       -6.313506   -4.334669   -3.272630
    144          1           0       -5.625858   -6.695406   -0.988330
    145          1           0       -4.995047   -5.110666   -0.416757
    146          1           0       -4.986394   -5.460806   -2.069918
    147          1           0       -8.086172   -6.103227   -3.591520
    148          1           0       -8.287231   -4.666537   -4.576648
    149          1           0       -9.704497   -5.659484   -2.212843
    150          1           0      -10.423324   -4.988016   -3.721898
    151          1           0       -9.743304   -3.906332   -2.425035
    152          1           0       -8.430546    0.974601   -5.945975
    153          1           0       -7.721937   -0.661938   -5.756777
    154          1           0       -6.658241    0.786016   -5.546493
    155          1           0       -7.258172    4.205250   -1.771112
    156          1           0       -9.847378    7.650160   -1.663660
    157          1           0      -10.067488    6.937262    0.058914
    158          1           0      -11.023736    6.481134   -1.372785
 ---------------------------------------------------------------------

 SCF Done:  E(RCAM-B3LYP) =  -4069.81180630     A.U. after   19 cycles

 Excitation energies and oscillator strengths:

 Excited State   1:      Singlet-A      1.6709 eV  742.04 nm  f=0.0690  <S**2>=0.000
     310 -> 316        0.14144
     311 -> 313        0.39322
     312 -> 314        0.56251
 This state for optimization and/or second-order correction.
 Total Energy, E(TD-HF/TD-DFT) =  -4069.75040353
 Copying the excited state density for this state as the 1-particle RhoCI density.

 Excited State   2:      Singlet-A      1.6844 eV  736.07 nm  f=0.6862  <S**2>=0.000
     309 -> 315        0.14479
     310 -> 316       -0.10075
     311 -> 313        0.56174
     312 -> 314       -0.39275

 Excited State   3:      Singlet-A      2.1857 eV  567.24 nm  f=0.0655  <S**2>=0.000
     309 -> 313        0.13151
     310 -> 314        0.62917
     312 -> 316       -0.26693

 Excited State   4:      Singlet-A      2.1931 eV  565.33 nm  f=0.1289  <S**2>=0.000
     309 -> 313        0.62713
     310 -> 314       -0.13055
     311 -> 315       -0.27265

 Excited State   5:      Singlet-A      2.7662 eV  448.21 nm  f=0.0000  <S**2>=0.000
     312 -> 313        0.70710

 The electronic state is 1-A.
 Alpha  occ. eigenvalues --  -46.87835 -46.87591 -19.26311 -19.26310 -19.19119
 Alpha  occ. eigenvalues --  -19.19048 -19.18847 -19.18636 -19.18202 -19.18000
 Alpha  occ. eigenvalues --  -14.42486 -14.42428 -14.41491 -14.41287 -14.39440
 Alpha  occ. eigenvalues --  -14.39282 -14.38625 -14.38534 -10.39108 -10.39048
 Alpha  occ. eigenvalues --  -10.35479 -10.35313 -10.34422 -10.34178 -10.31725
 Alpha  occ. eigenvalues --  -10.31702 -10.31440 -10.31245 -10.30953 -10.30941
 Alpha  occ. eigenvalues --  -10.30607 -10.30547 -10.30331 -10.30298 -10.30250
 Alpha  occ. eigenvalues --  -10.30064 -10.29966 -10.29823 -10.29667 -10.29364
 Alpha  occ. eigenvalues --  -10.29336 -10.29291 -10.28775 -10.28657 -10.28607
 Alpha  occ. eigenvalues --  -10.28557 -10.28399 -10.28337 -10.28143 -10.28074
 Alpha  occ. eigenvalues --  -10.27936 -10.27828 -10.27762 -10.27619 -10.27600
 Alpha  occ. eigenvalues --  -10.27561 -10.27507 -10.27500 -10.27439 -10.27439
 Alpha  occ. eigenvalues --  -10.27417 -10.27399 -10.27394 -10.27287 -10.27189
 Alpha  occ. eigenvalues --  -10.26998 -10.26728 -10.26639 -10.26428 -10.26335
 Alpha  occ. eigenvalues --  -10.26264 -10.26258 -10.26072 -10.26062 -10.25949
 Alpha  occ. eigenvalues --  -10.25885 -10.25866 -10.25811 -10.25489 -10.25277
 Alpha  occ. eigenvalues --  -10.24868 -10.24829 -10.24810 -10.24783 -10.24671
 Alpha  occ. eigenvalues --  -10.24616  -3.16578  -3.16341  -1.91460  -1.91223
 Alpha  occ. eigenvalues --   -1.91046  -1.90888  -1.90811  -1.90648  -1.16659
 Alpha  occ. eigenvalues --   -1.16604  -1.08659  -1.08610  -1.07249  -1.06904
 Alpha  occ. eigenvalues --   -1.06887  -1.06671  -1.04616  -1.04427  -1.03801
 Alpha  occ. eigenvalues --   -1.03593  -1.03272  -1.02968  -1.02450  -1.02042
 Alpha  occ. eigenvalues --   -0.92007  -0.91924  -0.89572  -0.89425  -0.89216
 Alpha  occ. eigenvalues --   -0.89087  -0.88339  -0.88143  -0.87908  -0.87737
 Alpha  occ. eigenvalues --   -0.87708  -0.87616  -0.87303  -0.87049  -0.85013
 Alpha  occ. eigenvalues --   -0.84935  -0.83993  -0.83801  -0.83001  -0.82856
 Alpha  occ. eigenvalues --   -0.82680  -0.82586  -0.81618  -0.81543  -0.80630
 Alpha  occ. eigenvalues --   -0.80382  -0.78829  -0.78569  -0.77259  -0.77079
 Alpha  occ. eigenvalues --   -0.76969  -0.76835  -0.75954  -0.75778  -0.74945
 Alpha  occ. eigenvalues --   -0.74722  -0.72813  -0.72634  -0.71709  -0.71508
 Alpha  occ. eigenvalues --   -0.69971  -0.69685  -0.68904  -0.68763  -0.67677
 Alpha  occ. eigenvalues --   -0.67535  -0.67247  -0.67137  -0.65318  -0.65210
 Alpha  occ. eigenvalues --   -0.64892  -0.64706  -0.64659  -0.64592  -0.64319
 Alpha  occ. eigenvalues --   -0.64132  -0.62332  -0.62225  -0.60478  -0.60267
 Alpha  occ. eigenvalues --   -0.59835  -0.59732  -0.59026  -0.58925  -0.58542
 Alpha  occ. eigenvalues --   -0.58361  -0.57617  -0.57502  -0.57350  -0.57167
 Alpha  occ. eigenvalues --   -0.56344  -0.56143  -0.56008  -0.55834  -0.55553
 Alpha  occ. eigenvalues --   -0.55389  -0.55387  -0.55181  -0.54567  -0.54425
 Alpha  occ. eigenvalues --   -0.53923  -0.53849  -0.53336  -0.53251  -0.53162
 Alpha  occ. eigenvalues --   -0.53079  -0.52951  -0.52842  -0.52783  -0.52596
 Alpha  occ. eigenvalues --   -0.52505  -0.52335  -0.51954  -0.51836  -0.51644
 Alpha  occ. eigenvalues --   -0.51596  -0.51235  -0.51142  -0.50598  -0.50400
 Alpha  occ. eigenvalues --   -0.50083  -0.49949  -0.49909  -0.49788  -0.49544
 Alpha  occ. eigenvalues --   -0.49420  -0.49247  -0.49140  -0.49126  -0.49043
 Alpha  occ. eigenvalues --   -0.48627  -0.48505  -0.48499  -0.48477  -0.48301
 Alpha  occ. eigenvalues --   -0.48267  -0.47730  -0.47528  -0.47331  -0.47046
 Alpha  occ. eigenvalues --   -0.46839  -0.46643  -0.46584  -0.46489  -0.46399
 Alpha  occ. eigenvalues --   -0.46203  -0.46203  -0.46019  -0.45857  -0.45768
 Alpha  occ. eigenvalues --   -0.45250  -0.45125  -0.44613  -0.44542  -0.44455
 Alpha  occ. eigenvalues --   -0.44411  -0.44189  -0.44119  -0.44063  -0.44050
 Alpha  occ. eigenvalues --   -0.44011  -0.43874  -0.43529  -0.43499  -0.43423
 Alpha  occ. eigenvalues --   -0.43319  -0.43065  -0.42879  -0.42839  -0.42742
 Alpha  occ. eigenvalues --   -0.42701  -0.42481  -0.42059  -0.41900  -0.41741
 Alpha  occ. eigenvalues --   -0.41606  -0.41566  -0.41395  -0.41177  -0.40918
 Alpha  occ. eigenvalues --   -0.40908  -0.40854  -0.40654  -0.40629  -0.40621
 Alpha  occ. eigenvalues --   -0.40420  -0.40259  -0.40166  -0.39510  -0.39355
 Alpha  occ. eigenvalues --   -0.38519  -0.38273  -0.37777  -0.37594  -0.37368
 Alpha  occ. eigenvalues --   -0.37294  -0.37195  -0.37135  -0.36749  -0.36721
 Alpha  occ. eigenvalues --   -0.36232  -0.36150  -0.34324  -0.34186  -0.33815
 Alpha  occ. eigenvalues --   -0.33801  -0.33224  -0.33108  -0.31378  -0.31195
 Alpha  occ. eigenvalues --   -0.31073  -0.30904  -0.30061  -0.29906  -0.29484
 Alpha  occ. eigenvalues --   -0.29358  -0.29259  -0.29149  -0.24119  -0.23967
 Alpha  occ. eigenvalues --   -0.21165  -0.21048
 Alpha virt. eigenvalues --   -0.08810  -0.08724  -0.01789  -0.01612  -0.00090
 Alpha virt. eigenvalues --    0.00041   0.02164   0.02267   0.03074   0.03291
 Alpha virt. eigenvalues --    0.04684   0.04797   0.05069   0.05210   0.06151

 Mulliken charges:
               1
     1  Mg   0.838616
     2  C   -0.002910
     3  C   -0.093940
     4  C   -0.045999
     5  C   -0.064070
     6  N   -0.256774
     7  C   -0.052468
     8  C   -0.014006
     9  C   -0.087025
    10  C    0.046314
    11  C    0.104777
    12  C    0.053422
    13  C   -0.071850
    14  H    0.036131
    15  N   -0.433180
    16  C    0.168409
    17  C   -0.176987
    18  C   -0.003982
    19  C    0.148729
    20  C    0.110112
    21  C    0.012252
    22  O   -0.249807
    23  C    0.062459
    24  N   -0.341103
    25  C    0.041250
    26  C   -0.028165
    27  C   -0.023900
    28  C    0.074700
    29  C    0.076168
    30  C    0.035223
    31  C   -0.004435
    32  N   -0.310456
    33  C    0.080328
    34  C   -0.169833
    35  C    0.008402
    36  C    0.082907
    37  C    0.127338
    38  C    0.046095
    39  O   -0.188374
    40  C   -0.005331
    41  C    0.212918
    42  O   -0.257157
    43  O   -0.304764
    44  C    0.157661
    45  H   -0.017408
    46  H   -0.016934
    47  H   -0.041677
    48  H    0.001000
    49  H   -0.003873
    50  H    0.025495
    51  H    0.016439
    52  H    0.016808
    53  H    0.011265
    54  H    0.044057
    55  H    0.017928
    56  H    0.018092
    57  H    0.006010
    58  H    0.026949
    59  H    0.039881
    60  H    0.037481
    61  H    0.035714
    62  H    0.031737
    63  H    0.016287
    64  H    0.009494
    65  H    0.023112
    66  H    0.012723
    67  H    0.004765
    68  H    0.006156
    69  H    0.004661
    70  H    0.008555
    71  H    0.017510
    72  H    0.029207
    73  H    0.047539
    74  H    0.008899
    75  H    0.046067
    76  H    0.035230
    77  H    0.043024
    78  H    0.046447
    79  H    0.053667
    80  Mg   0.837998
    81  C   -0.016902
    82  C   -0.087754
    83  C   -0.045244
    84  C   -0.064797
    85  N   -0.254604
    86  C   -0.049859
    87  C   -0.015104
    88  C   -0.090517
    89  C    0.045831
    90  C    0.114330
    91  C    0.062538
    92  C   -0.077829
    93  H    0.034650
    94  N   -0.423595
    95  C    0.163062
    96  C   -0.174401
    97  C   -0.007575
    98  C    0.152196
    99  C    0.099276
   100  C    0.015730
   101  O   -0.252902
   102  C    0.061172
   103  N   -0.350008
   104  C    0.037728
   105  C   -0.020012
   106  C   -0.034689
   107  C    0.088876
   108  C    0.073420
   109  C    0.034750
   110  C   -0.007648
   111  N   -0.324040
   112  C    0.078366
   113  C   -0.163316
   114  C    0.002107
   115  C    0.096144
   116  C    0.131528
   117  C    0.042162
   118  O   -0.188382
   119  C    0.000976
   120  C    0.211199
   121  O   -0.251080
   122  O   -0.305626
   123  C    0.152097
   124  H   -0.019541
   125  H   -0.015251
   126  H   -0.040687
   127  H   -0.000724
   128  H   -0.004419
   129  H    0.022451
   130  H    0.014809
   131  H    0.016337
   132  H    0.013892
   133  H    0.037573
   134  H    0.020814
   135  H    0.019582
   136  H    0.008726
   137  H    0.026502
   138  H    0.039708
   139  H    0.038461
   140  H    0.036485
   141  H    0.033692
   142  H    0.014320
   143  H    0.012475
   144  H    0.025335
   145  H    0.012452
   146  H    0.005969
   147  H    0.006301
   148  H    0.003374
   149  H    0.010987
   150  H    0.017683
   151  H    0.030062
   152  H    0.045729
   153  H    0.008389
   154  H    0.046625
   155  H    0.034906
   156  H    0.043715
   157  H    0.049538
   158  H    0.053481
 Sum of Mulliken charges =  -0.00000

 Dipole moment (field-independent basis, Debye):
    X=              3.7702    Y=              2.5851    Z=              0.6008  Tot=              4.6106
 Quadrupole moment (field-independent basis, Debye-Ang):
   XX=           -521.0154   YY=           -543.1658   ZZ=           -454.7403
   XY=             22.0454   XZ=            -67.5953   YZ=             39.8349

 Normal termination of Gaussian 16 at Sat Sep  4 13:39:55 2021.
