 Gaussian 16, Revision A.03,
 Gaussian 16:  ES64L-G16RevA.03 25-Dec-2016

 -----------------------------------
 #p cam-b3lyp/Def2SVP td=(nstates=5)
 -----------------------------------

 --------------------------------
 TDDFT excited states in gaussian
 --------------------------------
 Symbolic Z-matrix:
 Charge =  0 Multiplicity = 1

                         Standard orientation:
 ---------------------------------------------------------------------
 Center     Atomic      Atomic             Coordinates (Angstroms)
 Number     Number       Type             X           Y           Z
 ---------------------------------------------------------------------
      1         12           0      -15.830254   -0.661459   -0.379075
      2          6           0      -16.094956    1.953148    2.051146
      3          6           0      -16.650096    1.657132   -2.744463
      4          6           0      -16.048037   -3.033522   -2.472520
      5          6           0      -16.153509   -2.931954    2.245048
      6          7           0      -16.289118    1.499770   -0.240590
      7          6           0      -16.297751    2.395201    0.741906
      8          6           0      -16.467698    3.860598    0.240803
      9          6           0      -17.186408    3.568568   -1.152098
     10          6           0      -16.649946    2.172347   -1.414205
     11          6           0      -18.706747    3.499559   -1.050552
     12          6           0      -15.093198    4.582101    0.036073
     13          6           0      -15.172117    6.101940   -0.134855
     14          1           0      -14.110650    6.925546    0.423989
     15          7           0      -15.801775   -0.633724   -2.354238
     16          6           0      -16.152655    0.401319   -3.154773
     17          6           0      -15.958544   -0.072397   -4.542071
     18          6           0      -15.647913   -1.527913   -4.486608
     19          6           0      -15.848539   -1.799056   -3.086034
     20          6           0      -16.024707    0.829367   -5.736304
     21          6           0      -15.245865   -2.519628   -5.532070
     22          8           0      -15.250573   -3.779119   -5.312445
     23          6           0      -14.927106   -1.976384   -6.864857
     24          7           0      -16.286297   -2.689270   -0.185050
     25          6           0      -16.254189   -3.508004   -1.242230
     26          6           0      -16.334606   -4.945687   -0.822064
     27          6           0      -16.183419   -4.950794    0.767549
     28          6           0      -16.120738   -3.421532    1.003554
     29          6           0      -17.620093   -5.686819   -1.214822
     30          6           0      -15.060452   -5.835830    1.364269
     31          6           0      -13.708407   -5.277371    0.980606
     32          7           0      -15.903298   -0.551623    1.787407
     33          6           0      -16.064772   -1.620437    2.680849
     34          6           0      -16.162704   -1.041760    4.033479
     35          6           0      -16.067404    0.333501    3.829961
     36          6           0      -15.945690    0.598695    2.435992
     37          6           0      -16.376837   -1.768985    5.237524
     38          6           0      -16.064837    1.642023    4.463698
     39          8           0      -16.044391    2.041148    5.628934
     40          6           0      -16.205069    2.749185    3.327761
     41          6           0      -15.165212    3.804164    3.590489
     42          8           0      -13.949402    3.545840    3.478952
     43          8           0      -15.763023    5.000713    3.697428
     44          6           0      -14.784107    6.096208    3.929304
     45          1           0      -17.126200    2.239276   -3.535901
     46          1           0      -16.018502   -3.889208   -3.150286
     47          1           0      -16.170568   -3.583683    3.120497
     48          1           0      -17.107278    4.483548    0.866337
     49          1           0      -16.855911    4.254122   -1.932167
     50          1           0      -19.038724    3.534379   -0.013007
     51          1           0      -18.986220    2.550294   -1.508028
     52          1           0      -19.171296    4.274531   -1.660789
     53          1           0      -14.684185    4.307060   -0.936101
     54          1           0      -14.408375    4.346067    0.851322
     55          1           0      -16.149042    6.486006    0.160137
     56          1           0      -15.101186    6.330165   -1.198378
     57          1           0      -16.432919    1.805858   -5.478675
     58          1           0      -16.757621    0.400140   -6.419174
     59          1           0      -15.061149    0.916556   -6.238584
     60          1           0      -15.794816   -1.442388   -7.252770
     61          1           0      -14.574790   -2.820162   -7.457108
     62          1           0      -14.132067   -1.237016   -6.763873
     63          1           0      -15.524108   -5.526959   -1.259833
     64          1           0      -17.089271   -5.300363    1.263440
     65          1           0      -17.444301   -6.582890   -1.810522
     66          1           0      -18.265011   -4.985789   -1.743905
     67          1           0      -18.254966   -5.975918   -0.377699
     68          1           0      -15.117366   -6.845342    0.958569
     69          1           0      -15.104139   -5.912096    2.450789
     70          1           0      -13.546775   -5.692484   -0.013571
     71          1           0      -12.943032   -5.622018    1.676760
     72          1           0      -13.739984   -4.192353    0.879492
     73          1           0      -15.696651   -1.344055    5.975596
     74          1           0      -16.192203   -2.833545    5.095303
     75          1           0      -17.428079   -1.548543    5.422329
     76          1           0      -17.217476    3.145423    3.399509
     77          1           0      -15.087240    6.609725    4.841798
     78          1           0      -14.747700    6.679204    3.008872
     79          1           0      -13.771103    5.789751    4.192453
     80         12           0       15.904076   -0.622889    0.402834
     81          6           0       15.775486    1.933929   -2.112163
     82          6           0       17.081218    1.754333    2.547071
     83          6           0       16.454868   -2.934254    2.505609
     84          6           0       15.823308   -2.967654   -2.174235
     85          7           0       16.330253    1.530897    0.134804
     86          6           0       16.184585    2.406917   -0.847898
     87          6           0       16.417456    3.884292   -0.432324
     88          6           0       17.356264    3.629554    0.845415
     89          6           0       16.873968    2.231895    1.228322
     90          6           0       18.833762    3.546944    0.499732
     91          6           0       15.085142    4.609368   -0.030793
     92          6           0       15.191807    6.131304    0.087856
     93          1           0       14.046836    6.942852   -0.315775
     94          7           0       16.185351   -0.533428    2.365343
     95          6           0       16.648260    0.517697    3.073958
     96          6           0       16.690886    0.070993    4.474960
     97          6           0       16.371830   -1.382071    4.513909
     98          6           0       16.344790   -1.684088    3.096819
     99          6           0       16.933172    1.009479    5.621247
    100          6           0       16.143150   -2.343756    5.640435
    101          8           0       16.114971   -3.610782    5.448912
    102          6           0       16.046368   -1.763897    6.987985
    103          7           0       16.322973   -2.648549    0.194053
    104          6           0       16.467303   -3.439335    1.271890
    105          6           0       16.487794   -4.897496    0.879805
    106          6           0       16.082823   -4.932216   -0.666921
    107          6           0       15.980717   -3.414775   -0.935892
    108          6           0       17.821101   -5.619590    1.072850
    109          6           0       14.881436   -5.835002   -1.059777
    110          6           0       13.603561   -5.276282   -0.476461
    111          7           0       15.630536   -0.570444   -1.739698
    112          6           0       15.658112   -1.666044   -2.630197
    113          6           0       15.538981   -1.119013   -3.997306
    114          6           0       15.472992    0.269518   -3.807212
    115          6           0       15.566175    0.568070   -2.420965
    116          6           0       15.552362   -1.878305   -5.201230
    117          6           0       15.356387    1.551188   -4.464789
    118          8           0       15.158256    1.918961   -5.622046
    119          6           0       15.674259    2.693201   -3.405946
    120          6           0       14.603541    3.743471   -3.520025
    121          8           0       13.425368    3.479971   -3.221552
    122          8           0       15.179908    4.936916   -3.752080
    123          6           0       14.159022    6.012793   -3.862031
    124          1           0       17.667562    2.365293    3.233955
    125          1           0       16.535049   -3.776976    3.196163
    126          1           0       15.691991   -3.639460   -3.025169
    127          1           0       16.942220    4.485077   -1.165435
    128          1           0       17.141453    4.338304    1.640965
    129          1           0       18.998946    3.555368   -0.567410
    130          1           0       19.184966    2.618014    0.929613
    131          1           0       19.385176    4.342314    1.009297
    132          1           0       14.839186    4.356661    1.008625
    133          1           0       14.293480    4.354323   -0.708166
    134          1           0       16.114099    6.516339   -0.363879
    135          1           0       15.282397    6.391443    1.145274
    136          1           0       17.299095    1.983368    5.273339
    137          1           0       17.766271    0.597635    6.201080
    138          1           0       16.063669    1.110019    6.274321
    139          1           0       16.960207   -1.219263    7.213255
    140          1           0       15.793524   -2.596732    7.647026
    141          1           0       15.232694   -1.030089    6.995479
    142          1           0       15.757083   -5.460807    1.447121
    143          1           0       16.904002   -5.308093   -1.294785
    144          1           0       17.744441   -6.511097    1.723570
    145          1           0       18.535781   -4.914638    1.476333
    146          1           0       18.308491   -5.942707    0.154569
    147          1           0       15.004706   -6.834859   -0.636389
    148          1           0       14.761211   -5.951729   -2.131646
    149          1           0       13.608517   -5.664988    0.546263
    150          1           0       12.739615   -5.636403   -1.031407
    151          1           0       13.644796   -4.182664   -0.413661
    152          1           0       14.770255   -1.476363   -5.831519
    153          1           0       15.400721   -2.937652   -5.004868
    154          1           0       16.565455   -1.667078   -5.553784
    155          1           0       16.663222    3.089808   -3.638828
    156          1           0       14.315660    6.504447   -4.827138
    157          1           0       14.280633    6.633879   -2.954717
    158          1           0       13.121008    5.712303   -3.943755
 ---------------------------------------------------------------------

 SCF Done:  E(RCAM-B3LYP) =  -4069.81177963     A.U. after   19 cycles

 Excitation energies and oscillator strengths:

 Excited State   1:      Singlet-A      1.6754 eV  740.05 nm  f=0.2213  <S**2>=0.000
     309 -> 316        0.16898
     311 -> 313        0.66791
     312 -> 314        0.15674
     309 <- 316        0.10188
 This state for optimization and/or second-order correction.
 Total Energy, E(TD-HF/TD-DFT) =  -4069.75021151
 Copying the excited state density for this state as the 1-particle RhoCI density.

 Excited State   2:      Singlet-A      1.6801 eV  737.94 nm  f=0.5563  <S**2>=0.000
     310 -> 315        0.17099
     311 -> 313       -0.15669
     312 -> 314        0.66754
     310 <- 315        0.10237

 Excited State   3:      Singlet-A      2.1861 eV  567.13 nm  f=0.0955  <S**2>=0.000
     309 -> 313        0.64212
     311 -> 316       -0.27301

 Excited State   4:      Singlet-A      2.1926 eV  565.47 nm  f=0.1046  <S**2>=0.000
     310 -> 314        0.64035
     312 -> 315       -0.27818

 Excited State   5:      Singlet-A      3.0574 eV  405.52 nm  f=0.0000  <S**2>=0.000
     312 -> 313        0.70711

 The electronic state is 1-A.
 Alpha  occ. eigenvalues --  -46.87749 -46.87661 -19.26353 -19.26240 -19.19164
 Alpha  occ. eigenvalues --  -19.18975 -19.18764 -19.18712 -19.18125 -19.18054
 Alpha  occ. eigenvalues --  -14.42499 -14.42403 -14.41402 -14.41361 -14.39355
 Alpha  occ. eigenvalues --  -14.39353 -14.38601 -14.38540 -10.39093 -10.39035
 Alpha  occ. eigenvalues --  -10.35398 -10.35389 -10.34345 -10.34232 -10.31760
 Alpha  occ. eigenvalues --  -10.31637 -10.31359 -10.31311 -10.31024 -10.30861
 Alpha  occ. eigenvalues --  -10.30523 -10.30460 -10.30399 -10.30363 -10.30159
 Alpha  occ. eigenvalues --  -10.30142 -10.29896 -10.29874 -10.29583 -10.29437
 Alpha  occ. eigenvalues --  -10.29402 -10.29207 -10.28721 -10.28702 -10.28654
 Alpha  occ. eigenvalues --  -10.28491 -10.28406 -10.28318 -10.28142 -10.28071
 Alpha  occ. eigenvalues --  -10.28003 -10.27746 -10.27680 -10.27670 -10.27536
 Alpha  occ. eigenvalues --  -10.27519 -10.27485 -10.27467 -10.27463 -10.27454
 Alpha  occ. eigenvalues --  -10.27431 -10.27403 -10.27377 -10.27357 -10.27113
 Alpha  occ. eigenvalues --  -10.27054 -10.26692 -10.26656 -10.26409 -10.26356
 Alpha  occ. eigenvalues --  -10.26191 -10.26137 -10.26136 -10.26029 -10.25972
 Alpha  occ. eigenvalues --  -10.25936 -10.25856 -10.25800 -10.25400 -10.25391
 Alpha  occ. eigenvalues --  -10.24875 -10.24786 -10.24740 -10.24728 -10.24691
 Alpha  occ. eigenvalues --  -10.24637  -3.16492  -3.16411  -1.91373  -1.91294
 Alpha  occ. eigenvalues --   -1.90960  -1.90882  -1.90802  -1.90719  -1.16647
 Alpha  occ. eigenvalues --   -1.16589  -1.08661  -1.08583  -1.07165  -1.06964
 Alpha  occ. eigenvalues --   -1.06948  -1.06597  -1.04534  -1.04497  -1.03713
 Alpha  occ. eigenvalues --   -1.03665  -1.03186  -1.03040  -1.02364  -1.02113
 Alpha  occ. eigenvalues --   -0.91989  -0.91926  -0.89495  -0.89472  -0.89153
 Alpha  occ. eigenvalues --   -0.89141  -0.88240  -0.88221  -0.87825  -0.87796
 Alpha  occ. eigenvalues --   -0.87685  -0.87626  -0.87225  -0.87119  -0.85001
 Alpha  occ. eigenvalues --   -0.84935  -0.83890  -0.83877  -0.82930  -0.82917
 Alpha  occ. eigenvalues --   -0.82653  -0.82601  -0.81599  -0.81540  -0.80549
 Alpha  occ. eigenvalues --   -0.80444  -0.78749  -0.78636  -0.77171  -0.77146
 Alpha  occ. eigenvalues --   -0.76900  -0.76888  -0.75877  -0.75841  -0.74852
 Alpha  occ. eigenvalues --   -0.74805  -0.72728  -0.72701  -0.71626  -0.71583
 Alpha  occ. eigenvalues --   -0.69860  -0.69758  -0.68828  -0.68826  -0.67603
 Alpha  occ. eigenvalues --   -0.67594  -0.67200  -0.67171  -0.65273  -0.65240
 Alpha  occ. eigenvalues --   -0.64807  -0.64772  -0.64655  -0.64574  -0.64222
 Alpha  occ. eigenvalues --   -0.64205  -0.62281  -0.62252  -0.60394  -0.60340
 Alpha  occ. eigenvalues --   -0.59798  -0.59758  -0.58995  -0.58941  -0.58457
 Alpha  occ. eigenvalues --   -0.58427  -0.57557  -0.57539  -0.57262  -0.57237
 Alpha  occ. eigenvalues --   -0.56263  -0.56206  -0.55933  -0.55889  -0.55472
 Alpha  occ. eigenvalues --   -0.55452  -0.55293  -0.55250  -0.54490  -0.54478
 Alpha  occ. eigenvalues --   -0.53914  -0.53848  -0.53251  -0.53229  -0.53174
 Alpha  occ. eigenvalues --   -0.53142  -0.52904  -0.52868  -0.52707  -0.52666
 Alpha  occ. eigenvalues --   -0.52401  -0.52390  -0.51889  -0.51870  -0.51659
 Alpha  occ. eigenvalues --   -0.51569  -0.51203  -0.51150  -0.50522  -0.50473
 Alpha  occ. eigenvalues --   -0.49984  -0.49980  -0.49870  -0.49868  -0.49488
 Alpha  occ. eigenvalues --   -0.49467  -0.49204  -0.49168  -0.49107  -0.49050
 Alpha  occ. eigenvalues --   -0.48561  -0.48547  -0.48414  -0.48397  -0.48378
 Alpha  occ. eigenvalues --   -0.48338  -0.47647  -0.47595  -0.47250  -0.47119
 Alpha  occ. eigenvalues --   -0.46750  -0.46710  -0.46555  -0.46508  -0.46312
 Alpha  occ. eigenvalues --   -0.46272  -0.46117  -0.46088  -0.45825  -0.45777
 Alpha  occ. eigenvalues --   -0.45210  -0.45155  -0.44532  -0.44516  -0.44477
 Alpha  occ. eigenvalues --   -0.44458  -0.44129  -0.44097  -0.44078  -0.44042
 Alpha  occ. eigenvalues --   -0.43972  -0.43939  -0.43556  -0.43449  -0.43387
 Alpha  occ. eigenvalues --   -0.43339  -0.42981  -0.42933  -0.42904  -0.42653
 Alpha  occ. eigenvalues --   -0.42608  -0.42554  -0.41965  -0.41962  -0.41671
 Alpha  occ. eigenvalues --   -0.41658  -0.41487  -0.41460  -0.41095  -0.40991
 Alpha  occ. eigenvalues --   -0.40822  -0.40773  -0.40722  -0.40698  -0.40525
 Alpha  occ. eigenvalues --   -0.40495  -0.40227  -0.40186  -0.39425  -0.39393
 Alpha  occ. eigenvalues --   -0.38422  -0.38352  -0.37701  -0.37655  -0.37273
 Alpha  occ. eigenvalues --   -0.37267  -0.37216  -0.37201  -0.36774  -0.36668
 Alpha  occ. eigenvalues --   -0.36219  -0.36146  -0.34255  -0.34239  -0.33864
 Alpha  occ. eigenvalues --   -0.33725  -0.33177  -0.33139  -0.31294  -0.31271
 Alpha  occ. eigenvalues --   -0.30988  -0.30974  -0.29984  -0.29959  -0.29401
 Alpha  occ. eigenvalues --   -0.29328  -0.29275  -0.29213  -0.24038  -0.24033
 Alpha  occ. eigenvalues --   -0.21118  -0.21080
 Alpha virt. eigenvalues --   -0.08793  -0.08727  -0.01702  -0.01685  -0.00029
 Alpha virt. eigenvalues --   -0.00010   0.02205   0.02246   0.03174   0.03227
 Alpha virt. eigenvalues --    0.04728   0.04765   0.05143   0.05162   0.06181

 Mulliken charges:
               1
     1  Mg   0.838868
     2  C   -0.002956
     3  C   -0.094092
     4  C   -0.045870
     5  C   -0.063983
     6  N   -0.256793
     7  C   -0.052475
     8  C   -0.014009
     9  C   -0.087028
    10  C    0.046348
    11  C    0.104825
    12  C    0.053473
    13  C   -0.071821
    14  H    0.036161
    15  N   -0.433157
    16  C    0.168439
    17  C   -0.177124
    18  C   -0.003980
    19  C    0.148740
    20  C    0.110170
    21  C    0.012321
    22  O   -0.249610
    23  C    0.062457
    24  N   -0.341155
    25  C    0.041243
    26  C   -0.028158
    27  C   -0.023970
    28  C    0.074851
    29  C    0.076177
    30  C    0.035131
    31  C   -0.004505
    32  N   -0.310467
    33  C    0.080426
    34  C   -0.169732
    35  C    0.008325
    36  C    0.082981
    37  C    0.127314
    38  C    0.046097
    39  O   -0.188521
    40  C   -0.005344
    41  C    0.212856
    42  O   -0.257050
    43  O   -0.304816
    44  C    0.157697
    45  H   -0.017610
    46  H   -0.016828
    47  H   -0.041531
    48  H    0.000892
    49  H   -0.004007
    50  H    0.025434
    51  H    0.016432
    52  H    0.016633
    53  H    0.011272
    54  H    0.044145
    55  H    0.017808
    56  H    0.017983
    57  H    0.005870
    58  H    0.026809
    59  H    0.039660
    60  H    0.037312
    61  H    0.035702
    62  H    0.031599
    63  H    0.016592
    64  H    0.009403
    65  H    0.023210
    66  H    0.012523
    67  H    0.004704
    68  H    0.006343
    69  H    0.004689
    70  H    0.008819
    71  H    0.018169
    72  H    0.029013
    73  H    0.047542
    74  H    0.009095
    75  H    0.045941
    76  H    0.035096
    77  H    0.042875
    78  H    0.046417
    79  H    0.053710
    80  Mg   0.837813
    81  C   -0.016831
    82  C   -0.087767
    83  C   -0.045479
    84  C   -0.064874
    85  N   -0.254543
    86  C   -0.049848
    87  C   -0.015122
    88  C   -0.090506
    89  C    0.045775
    90  C    0.114378
    91  C    0.062524
    92  C   -0.077913
    93  H    0.034932
    94  N   -0.423477
    95  C    0.162938
    96  C   -0.174607
    97  C   -0.007762
    98  C    0.152139
    99  C    0.099370
   100  C    0.015612
   101  O   -0.253142
   102  C    0.061168
   103  N   -0.350044
   104  C    0.037530
   105  C   -0.019850
   106  C   -0.034816
   107  C    0.088914
   108  C    0.073661
   109  C    0.034737
   110  C   -0.007690
   111  N   -0.324099
   112  C    0.078432
   113  C   -0.163147
   114  C    0.002224
   115  C    0.096206
   116  C    0.131487
   117  C    0.042371
   118  O   -0.187948
   119  C    0.000935
   120  C    0.211248
   121  O   -0.250974
   122  O   -0.305650
   123  C    0.152035
   124  H   -0.019647
   125  H   -0.015542
   126  H   -0.040479
   127  H   -0.000683
   128  H   -0.004283
   129  H    0.022432
   130  H    0.014416
   131  H    0.016287
   132  H    0.013971
   133  H    0.037692
   134  H    0.020748
   135  H    0.019631
   136  H    0.008771
   137  H    0.026159
   138  H    0.039892
   139  H    0.038244
   140  H    0.036471
   141  H    0.033972
   142  H    0.014456
   143  H    0.012381
   144  H    0.025172
   145  H    0.011617
   146  H    0.005645
   147  H    0.006276
   148  H    0.003628
   149  H    0.010979
   150  H    0.017980
   151  H    0.030113
   152  H    0.045997
   153  H    0.008517
   154  H    0.046889
   155  H    0.034984
   156  H    0.043862
   157  H    0.049512
   158  H    0.053597
 Sum of Mulliken charges =  -0.00000

 Dipole moment (field-independent basis, Debye):
    X=              0.5074    Y=              3.1431    Z=             -0.5615  Tot=              3.2329
 Quadrupole moment (field-independent basis, Debye-Ang):
   XX=           -379.8047   YY=           -460.1014   ZZ=           -539.0154
   XY=              6.8156   XZ=            110.8708   YZ=             -1.3532

 Normal termination of Gaussian 16 at Sun Sep 12 12:54:34 2021.
