 Gaussian 16, Revision A.03,
 Gaussian 16:  ES64L-G16RevA.03 25-Dec-2016

 -----------------------------------
 #p cam-b3lyp/Def2SVP td=(nstates=5)
 -----------------------------------

 --------------------------------
 TDDFT excited states in gaussian
 --------------------------------
 Symbolic Z-matrix:
 Charge =  0 Multiplicity = 1

                         Standard orientation:
 ---------------------------------------------------------------------
 Center     Atomic      Atomic             Coordinates (Angstroms)
 Number     Number       Type             X           Y           Z
 ---------------------------------------------------------------------
      1         12           0       -5.166690    0.608953    0.644935
      2          6           0       -5.724399   -1.967144   -1.776820
      3          6           0       -5.729884   -1.740426    3.054560
      4          6           0       -5.128306    2.950336    2.783410
      5          6           0       -5.768881    2.920581   -1.892663
      6          7           0       -5.654073   -1.547323    0.528415
      7          6           0       -5.780621   -2.427759   -0.459506
      8          6           0       -5.903337   -3.899573    0.036558
      9          6           0       -6.457282   -3.624561    1.506086
     10          6           0       -5.884370   -2.235497    1.725624
     11          6           0       -7.978783   -3.545471    1.578773
     12          6           0       -4.519794   -4.631809    0.073563
     13          6           0       -4.589918   -6.153586    0.230506
     14          1           0       -3.604725   -6.974624   -0.456982
     15          7           0       -4.914584    0.551248    2.603496
     16          6           0       -5.179958   -0.493768    3.423742
     17          6           0       -4.826303   -0.042146    4.786697
     18          6           0       -4.513343    1.412270    4.717237
     19          6           0       -4.869536    1.705646    3.352526
     20          6           0       -4.763180   -0.961446    5.967651
     21          6           0       -3.988085    2.385813    5.724435
     22          8           0       -4.008471    3.648482    5.524870
     23          6           0       -3.524201    1.820728    7.004486
     24          7           0       -5.626971    2.641996    0.533065
     25          6           0       -5.469191    3.444486    1.591412
     26          6           0       -5.586238    4.888777    1.203776
     27          6           0       -5.616280    4.917026   -0.392486
     28          6           0       -5.591942    3.391172   -0.656013
     29          6           0       -6.813438    5.631120    1.750513
     30          6           0       -4.561801    5.804634   -1.100050
     31          6           0       -3.179083    5.232847   -0.880396
     32          7           0       -5.485775    0.532243   -1.500606
     33          6           0       -5.739725    1.615312   -2.354505
     34          6           0       -5.994659    1.057678   -3.695445
     35          6           0       -5.886940   -0.321013   -3.523827
     36          6           0       -5.609854   -0.607898   -2.156636
     37          6           0       -6.338650    1.804188   -4.856835
     38          6           0       -5.965823   -1.619813   -4.172481
     39          8           0       -6.080581   -2.001415   -5.338116
     40          6           0       -5.984401   -2.743188   -3.043982
     41          6           0       -4.988785   -3.799918   -3.438167
     42          8           0       -3.766316   -3.550153   -3.461661
     43          8           0       -5.603591   -4.991332   -3.493725
     44          6           0       -4.665318   -6.088695   -3.850926
     45          1           0       -6.117394   -2.331761    3.886485
     46          1           0       -5.015843    3.795514    3.465659
     47          1           0       -5.880359    3.585535   -2.751070
     48          1           0       -6.614270   -4.509401   -0.521213
     49          1           0       -6.045462   -4.323660    2.233675
     50          1           0       -8.426537   -3.562758    0.585225
     51          1           0       -8.197626   -2.601662    2.078597
     52          1           0       -8.376773   -4.326939    2.226607
     53          1           0       -4.001163   -4.373779    0.996875
     54          1           0       -3.930146   -4.387355   -0.810678
     55          1           0       -5.596775   -6.527652    0.042828
     56          1           0       -4.400493   -6.398234    1.275716
     57          1           0       -5.205098   -1.931625    5.744029
     58          1           0       -5.410762   -0.538457    6.735392
     59          1           0       -3.749535   -1.061629    6.356006
     60          1           0       -4.346194    1.285831    7.480680
     61          1           0       -3.100834    2.653475    7.564972
     62          1           0       -2.751166    1.078507    6.803305
     63          1           0       -4.727096    5.458804    1.555015
     64          1           0       -6.569951    5.279133   -0.777277
     65          1           0       -6.564678    6.517094    2.335212
     66          1           0       -7.399291    4.925824    2.339261
     67          1           0       -7.537028    5.936389    0.995103
     68          1           0       -4.564960    6.808211   -0.676059
     69          1           0       -4.727877    5.897535   -2.173380
     70          1           0       -2.902710    5.631991    0.094865
     71          1           0       -2.495104    5.583649   -1.653909
     72          1           0       -3.206912    4.146621   -0.791941
     73          1           0       -5.749684    1.386625   -5.673370
     74          1           0       -6.131307    2.865423   -4.721222
     75          1           0       -7.405650    1.592480   -4.924264
     76          1           0       -7.001280   -3.132594   -3.006029
     77          1           0       -5.073728   -6.586667   -4.730391
     78          1           0       -4.529014   -6.685713   -2.949041
     79          1           0       -3.686484   -5.784007   -4.222933
     80         12           0        5.323825    0.545558   -0.807525
     81          6           0        5.418780   -2.205049    1.495575
     82          6           0        4.825171    2.585038    1.880686
     83          6           0        4.786687    2.924311   -2.837405
     84          6           0        4.688023   -1.771020   -3.332395
     85          7           0        5.162304    0.126134    1.358178
     86          6           0        5.275870   -0.949651    2.122470
     87          6           0        5.314508   -0.655051    3.646040
     88          6           0        4.555062    0.759882    3.636698
     89          6           0        4.893036    1.209321    2.216683
     90          6           0        3.045016    0.633175    3.750916
     91          6           0        6.779359   -0.517144    4.191208
     92          6           0        6.902460   -0.537098    5.716403
     93          1           0        8.073315   -1.175007    6.311905
     94          7           0        5.359507    2.509330   -0.523108
     95          6           0        5.158934    3.167139    0.638069
     96          6           0        5.268945    4.597912    0.314119
     97          6           0        5.387194    4.736707   -1.162864
     98          6           0        5.156428    3.366879   -1.575662
     99          6           0        5.335402    5.667464    1.365333
    100          6           0        5.650108    5.910625   -2.056721
    101          8           0        5.474181    5.844282   -3.324587
    102          6           0        6.029690    7.167024   -1.394249
    103          7           0        4.603314    0.600049   -2.756940
    104          6           0        4.517261    1.760884   -3.429973
    105          6           0        4.236879    1.522764   -4.894590
    106          6           0        4.393076   -0.054037   -5.111099
    107          6           0        4.660891   -0.484492   -3.652210
    108          6           0        2.861950    1.970510   -5.390060
    109          6           0        5.384881   -0.518314   -6.212664
    110          6           0        6.801226   -0.177170   -5.808977
    111          7           0        5.272705   -1.608658   -0.965033
    112          6           0        4.959426   -2.372974   -2.110356
    113          6           0        4.943243   -3.791004   -1.696411
    114          6           0        5.227833   -3.751294   -0.323127
    115          6           0        5.388691   -2.402292    0.093804
    116          6           0        4.642450   -4.899614   -2.537024
    117          6           0        5.418257   -4.543140    0.870783
    118          8           0        5.486669   -5.747538    1.112623
    119          6           0        5.425443   -3.569498    2.127115
    120          6           0        6.600554   -3.935600    2.991770
    121          8           0        7.762821   -3.779252    2.577894
    122          8           0        6.165360   -4.202964    4.236557
    123          6           0        7.295852   -4.560603    5.134269
    124          1           0        4.439906    3.282495    2.624993
    125          1           0        4.697337    3.699828   -3.601650
    126          1           0        4.594597   -2.560713   -4.080934
    127          1           0        4.772006   -1.364171    4.259728
    128          1           0        4.983902    1.443153    4.365127
    129          1           0        2.722114   -0.396053    3.700451
    130          1           0        2.638886    1.198179    2.922136
    131          1           0        2.692339    1.132696    4.657798
    132          1           0        7.143487    0.497879    3.986582
    133          1           0        7.415996   -1.269289    3.767425
    134          1           0        5.984017   -0.892167    6.199449
    135          1           0        7.010500    0.491400    6.069307
    136          1           0        5.058332    5.278557    2.352953
    137          1           0        4.551602    6.395736    1.130532
    138          1           0        6.299636    6.179859    1.384540
    139          1           0        5.244532    7.461868   -0.702120
    140          1           0        6.262851    7.864149   -2.201420
    141          1           0        6.928183    6.988021   -0.793175
    142          1           0        4.960866    2.036145   -5.515377
    143          1           0        3.442086   -0.520871   -5.406949
    144          1           0        2.913332    2.689794   -6.229138
    145          1           0        2.320877    2.397240   -4.555986
    146          1           0        2.200716    1.165819   -5.706982
    147          1           0        5.191078    0.015625   -7.146208
    148          1           0        5.323360   -1.579472   -6.429847
    149          1           0        6.898533    0.869896   -6.111111
    150          1           0        7.512779   -0.808270   -6.337597
    151          1           0        6.920916   -0.218546   -4.720117
    152          1           0        5.367305   -5.669519   -2.308242
    153          1           0        4.674972   -4.621674   -3.588436
    154          1           0        3.626323   -5.127010   -2.203789
    155          1           0        4.476662   -3.700821    2.648788
    156          1           0        7.063330   -5.538670    5.566717
    157          1           0        7.400365   -3.711657    5.835785
    158          1           0        8.257995   -4.755650    4.675263
 ---------------------------------------------------------------------

 SCF Done:  E(RCAM-B3LYP) =  -4069.81204109     A.U. after   19 cycles

 Excitation energies and oscillator strengths:

 Excited State   1:      Singlet-A      1.6720 eV  741.52 nm  f=0.3293  <S**2>=0.000
     310 -> 316       -0.15494
     311 -> 313       -0.30325
     312 -> 314        0.61531
 This state for optimization and/or second-order correction.
 Total Energy, E(TD-HF/TD-DFT) =  -4069.75059548
 Copying the excited state density for this state as the 1-particle RhoCI density.

 Excited State   2:      Singlet-A      1.6786 eV  738.60 nm  f=0.3708  <S**2>=0.000
     309 -> 315       -0.15663
     311 -> 313        0.61493
     312 -> 314        0.30328

 Excited State   3:      Singlet-A      2.1850 eV  567.43 nm  f=0.1016  <S**2>=0.000
     310 -> 314        0.64216
     312 -> 316        0.27246

 Excited State   4:      Singlet-A      2.1911 eV  565.84 nm  f=0.0967  <S**2>=0.000
     309 -> 313        0.64048
     311 -> 315        0.27683

 Excited State   5:      Singlet-A      2.4852 eV  498.88 nm  f=0.0000  <S**2>=0.000
     312 -> 313        0.70708

 The electronic state is 1-A.
 Alpha  occ. eigenvalues --  -46.87881 -46.87503 -19.26327 -19.26316 -19.19105
 Alpha  occ. eigenvalues --  -19.19077 -19.18962 -19.18584 -19.18252 -19.17945
 Alpha  occ. eigenvalues --  -14.42526 -14.42350 -14.41534 -14.41187 -14.39494
 Alpha  occ. eigenvalues --  -14.39199 -14.38671 -14.38444 -10.39136 -10.39032
 Alpha  occ. eigenvalues --  -10.35598 -10.35264 -10.34469 -10.34124 -10.31748
 Alpha  occ. eigenvalues --  -10.31703 -10.31471 -10.31169 -10.30985 -10.30894
 Alpha  occ. eigenvalues --  -10.30649 -10.30600 -10.30299 -10.30240 -10.30209
 Alpha  occ. eigenvalues --  -10.30007 -10.29954 -10.29725 -10.29714 -10.29349
 Alpha  occ. eigenvalues --  -10.29275 -10.29251 -10.28785 -10.28636 -10.28622
 Alpha  occ. eigenvalues --  -10.28503 -10.28452 -10.28264 -10.28157 -10.28043
 Alpha  occ. eigenvalues --  -10.27883 -10.27855 -10.27803 -10.27685 -10.27586
 Alpha  occ. eigenvalues --  -10.27583 -10.27544 -10.27518 -10.27483 -10.27343
 Alpha  occ. eigenvalues --  -10.27330 -10.27319 -10.27273 -10.27226 -10.27146
 Alpha  occ. eigenvalues --  -10.26960 -10.26710 -10.26627 -10.26596 -10.26306
 Alpha  occ. eigenvalues --  -10.26273 -10.26262 -10.26103 -10.25944 -10.25921
 Alpha  occ. eigenvalues --  -10.25917 -10.25750 -10.25673 -10.25527 -10.25110
 Alpha  occ. eigenvalues --  -10.24921 -10.24879 -10.24766 -10.24728 -10.24545
 Alpha  occ. eigenvalues --  -10.24527  -3.16624  -3.16253  -1.91506  -1.91135
 Alpha  occ. eigenvalues --   -1.91092  -1.90935  -1.90723  -1.90561  -1.16678
 Alpha  occ. eigenvalues --   -1.16604  -1.08707  -1.08559  -1.07367  -1.06891
 Alpha  occ. eigenvalues --   -1.06838  -1.06698  -1.04657  -1.04353  -1.03845
 Alpha  occ. eigenvalues --   -1.03507  -1.03322  -1.02872  -1.02497  -1.01951
 Alpha  occ. eigenvalues --   -0.92050  -0.91854  -0.89604  -0.89314  -0.89229
 Alpha  occ. eigenvalues --   -0.89049  -0.88372  -0.88022  -0.87953  -0.87743
 Alpha  occ. eigenvalues --   -0.87638  -0.87534  -0.87386  -0.86981  -0.85035
 Alpha  occ. eigenvalues --   -0.84887  -0.84020  -0.83685  -0.83097  -0.82787
 Alpha  occ. eigenvalues --   -0.82717  -0.82538  -0.81647  -0.81496  -0.80674
 Alpha  occ. eigenvalues --   -0.80323  -0.78895  -0.78489  -0.77291  -0.77015
 Alpha  occ. eigenvalues --   -0.76984  -0.76771  -0.75981  -0.75730  -0.74978
 Alpha  occ. eigenvalues --   -0.74613  -0.72856  -0.72543  -0.71747  -0.71428
 Alpha  occ. eigenvalues --   -0.69989  -0.69557  -0.68937  -0.68713  -0.67730
 Alpha  occ. eigenvalues --   -0.67462  -0.67274  -0.67099  -0.65339  -0.65165
 Alpha  occ. eigenvalues --   -0.64928  -0.64688  -0.64629  -0.64530  -0.64352
 Alpha  occ. eigenvalues --   -0.64021  -0.62359  -0.62176  -0.60547  -0.60185
 Alpha  occ. eigenvalues --   -0.59862  -0.59681  -0.59066  -0.58841  -0.58584
 Alpha  occ. eigenvalues --   -0.58284  -0.57655  -0.57455  -0.57396  -0.57078
 Alpha  occ. eigenvalues --   -0.56396  -0.56068  -0.56030  -0.55800  -0.55618
 Alpha  occ. eigenvalues --   -0.55416  -0.55340  -0.55088  -0.54593  -0.54340
 Alpha  occ. eigenvalues --   -0.53939  -0.53813  -0.53397  -0.53298  -0.53083
 Alpha  occ. eigenvalues --   -0.53026  -0.52991  -0.52850  -0.52790  -0.52552
 Alpha  occ. eigenvalues --   -0.52521  -0.52211  -0.51996  -0.51722  -0.51680
 Alpha  occ. eigenvalues --   -0.51557  -0.51268  -0.51069  -0.50700  -0.50339
 Alpha  occ. eigenvalues --   -0.50116  -0.50023  -0.49857  -0.49676  -0.49593
 Alpha  occ. eigenvalues --   -0.49369  -0.49298  -0.49149  -0.49089  -0.48992
 Alpha  occ. eigenvalues --   -0.48659  -0.48574  -0.48533  -0.48448  -0.48224
 Alpha  occ. eigenvalues --   -0.48181  -0.47773  -0.47462  -0.47384  -0.46965
 Alpha  occ. eigenvalues --   -0.46870  -0.46604  -0.46561  -0.46442  -0.46438
 Alpha  occ. eigenvalues --   -0.46239  -0.46115  -0.45920  -0.45885  -0.45701
 Alpha  occ. eigenvalues --   -0.45286  -0.45016  -0.44655  -0.44595  -0.44403
 Alpha  occ. eigenvalues --   -0.44348  -0.44232  -0.44143  -0.44103  -0.44012
 Alpha  occ. eigenvalues --   -0.43924  -0.43824  -0.43562  -0.43452  -0.43451
 Alpha  occ. eigenvalues --   -0.43253  -0.43103  -0.42847  -0.42772  -0.42758
 Alpha  occ. eigenvalues --   -0.42719  -0.42376  -0.42079  -0.41815  -0.41783
 Alpha  occ. eigenvalues --   -0.41582  -0.41537  -0.41335  -0.41213  -0.40958
 Alpha  occ. eigenvalues --   -0.40913  -0.40850  -0.40646  -0.40608  -0.40578
 Alpha  occ. eigenvalues --   -0.40309  -0.40260  -0.40146  -0.39522  -0.39224
 Alpha  occ. eigenvalues --   -0.38544  -0.38165  -0.37783  -0.37559  -0.37400
 Alpha  occ. eigenvalues --   -0.37315  -0.37101  -0.37067  -0.36775  -0.36690
 Alpha  occ. eigenvalues --   -0.36259  -0.36061  -0.34367  -0.34103  -0.33834
 Alpha  occ. eigenvalues --   -0.33787  -0.33269  -0.33019  -0.31490  -0.31142
 Alpha  occ. eigenvalues --   -0.31119  -0.30824  -0.30108  -0.29852  -0.29551
 Alpha  occ. eigenvalues --   -0.29411  -0.29182  -0.29064  -0.24163  -0.23879
 Alpha  occ. eigenvalues --   -0.21212  -0.20960
 Alpha virt. eigenvalues --   -0.08865  -0.08641  -0.01840  -0.01523  -0.00165
 Alpha virt. eigenvalues --    0.00102   0.02112   0.02346   0.03019   0.03374
 Alpha virt. eigenvalues --    0.04661   0.04865   0.05040   0.05230   0.06163

 Mulliken charges:
               1
     1  Mg   0.838683
     2  C   -0.002904
     3  C   -0.093806
     4  C   -0.046304
     5  C   -0.063924
     6  N   -0.256833
     7  C   -0.052122
     8  C   -0.014081
     9  C   -0.087004
    10  C    0.046310
    11  C    0.104762
    12  C    0.053337
    13  C   -0.072408
    14  H    0.037580
    15  N   -0.433047
    16  C    0.168182
    17  C   -0.177251
    18  C   -0.004529
    19  C    0.148595
    20  C    0.110127
    21  C    0.011392
    22  O   -0.250274
    23  C    0.062831
    24  N   -0.341193
    25  C    0.041364
    26  C   -0.028079
    27  C   -0.024030
    28  C    0.074971
    29  C    0.076189
    30  C    0.035133
    31  C   -0.004546
    32  N   -0.310521
    33  C    0.080569
    34  C   -0.169716
    35  C    0.008347
    36  C    0.083044
    37  C    0.127334
    38  C    0.046020
    39  O   -0.188302
    40  C   -0.005243
    41  C    0.212933
    42  O   -0.257386
    43  O   -0.304686
    44  C    0.157713
    45  H   -0.017351
    46  H   -0.017293
    47  H   -0.041266
    48  H    0.001108
    49  H   -0.003576
    50  H    0.025506
    51  H    0.016277
    52  H    0.016964
    53  H    0.011448
    54  H    0.044052
    55  H    0.017716
    56  H    0.018489
    57  H    0.006436
    58  H    0.026844
    59  H    0.038928
    60  H    0.038032
    61  H    0.034693
    62  H    0.030421
    63  H    0.015907
    64  H    0.009653
    65  H    0.022928
    66  H    0.012642
    67  H    0.004977
    68  H    0.006232
    69  H    0.005195
    70  H    0.007635
    71  H    0.019373
    72  H    0.028915
    73  H    0.047454
    74  H    0.009351
    75  H    0.046239
    76  H    0.035412
    77  H    0.043037
    78  H    0.047028
    79  H    0.053367
    80  Mg   0.838244
    81  C   -0.017148
    82  C   -0.088057
    83  C   -0.045466
    84  C   -0.062761
    85  N   -0.254573
    86  C   -0.049935
    87  C   -0.015077
    88  C   -0.090457
    89  C    0.045620
    90  C    0.114420
    91  C    0.062649
    92  C   -0.077560
    93  H    0.034434
    94  N   -0.423490
    95  C    0.162850
    96  C   -0.174650
    97  C   -0.007981
    98  C    0.152199
    99  C    0.099391
   100  C    0.015299
   101  O   -0.253327
   102  C    0.061285
   103  N   -0.349933
   104  C    0.038054
   105  C   -0.020254
   106  C   -0.035250
   107  C    0.088952
   108  C    0.072947
   109  C    0.034604
   110  C   -0.007574
   111  N   -0.324156
   112  C    0.078358
   113  C   -0.162374
   114  C    0.001887
   115  C    0.096471
   116  C    0.131535
   117  C    0.042218
   118  O   -0.188923
   119  C    0.000957
   120  C    0.211137
   121  O   -0.250952
   122  O   -0.305970
   123  C    0.152128
   124  H   -0.019461
   125  H   -0.015612
   126  H   -0.039461
   127  H   -0.001746
   128  H   -0.004558
   129  H    0.021332
   130  H    0.015630
   131  H    0.015609
   132  H    0.014097
   133  H    0.037606
   134  H    0.019974
   135  H    0.019623
   136  H    0.008866
   137  H    0.026118
   138  H    0.039364
   139  H    0.038103
   140  H    0.036015
   141  H    0.033771
   142  H    0.013856
   143  H    0.015417
   144  H    0.024324
   145  H    0.011682
   146  H    0.009044
   147  H    0.006502
   148  H    0.003954
   149  H    0.010643
   150  H    0.017485
   151  H    0.029660
   152  H    0.045126
   153  H    0.009004
   154  H    0.048030
   155  H    0.034044
   156  H    0.043262
   157  H    0.049307
   158  H    0.053621
 Sum of Mulliken charges =  -0.00000

 Dipole moment (field-independent basis, Debye):
    X=             -3.2969    Y=              1.8044    Z=              5.9793  Tot=              7.0624
 Quadrupole moment (field-independent basis, Debye-Ang):
   XX=           -519.7741   YY=           -505.4648   ZZ=           -493.5303
   XY=             31.0895   XZ=             -6.5033   YZ=             -6.4789

 Normal termination of Gaussian 16 at Fri Sep 10 18:47:06 2021.
