 Gaussian 16, Revision A.03,
 Gaussian 16:  ES64L-G16RevA.03 25-Dec-2016

 -----------------------------------
 #p cam-b3lyp/Def2SVP td=(nstates=5)
 -----------------------------------

 --------------------------------
 TDDFT excited states in gaussian
 --------------------------------
 Symbolic Z-matrix:
 Charge =  0 Multiplicity = 1

                         Standard orientation:
 ---------------------------------------------------------------------
 Center     Atomic      Atomic             Coordinates (Angstroms)
 Number     Number       Type             X           Y           Z
 ---------------------------------------------------------------------
      1         12           0        4.157651   -1.108633   -0.029774
      2          6           0        4.665954    1.861841   -1.961129
      3          6           0        5.246959    0.648598    2.684745
      4          6           0        4.150445   -3.829856    1.598573
      5          6           0        4.206802   -2.887950   -3.025984
      6          7           0        4.840000    0.984130    0.205583
      7          6           0        4.930637    2.036922   -0.601006
      8          6           0        5.260382    3.362599    0.148142
      9          6           0        5.961735    2.752097    1.443282
     10          6           0        5.284419    1.393227    1.468539
     11          6           0        7.464934    2.548759    1.283439
     12          6           0        3.972273    4.170796    0.521403
     13          6           0        4.213099    5.618681    0.958421
     14          1           0        3.237429    6.633117    0.589183
     15          7           0        4.157053   -1.435849    1.918502
     16          6           0        4.625105   -0.603679    2.879598
     17          6           0        4.399573   -1.298325    4.165399
     18          6           0        3.936574   -2.680669    3.860682
     19          6           0        4.089902   -2.712951    2.428611
     20          6           0        4.575409   -0.638867    5.498796
     21          6           0        3.445386   -3.799139    4.724331
     22          8           0        3.314547   -4.992010    4.283291
     23          6           0        3.202423   -3.476428    6.142029
     24          7           0        4.394929   -3.103528   -0.596984
     25          6           0        4.289972   -4.092416    0.297481
     26          6           0        4.213113   -5.431014   -0.374969
     27          6           0        4.042286   -5.133171   -1.934411
     28          6           0        4.138196   -3.588106   -1.891461
     29          6           0        5.418144   -6.357449   -0.161359
     30          6           0        2.824880   -5.777152   -2.644082
     31          6           0        1.544159   -5.163096   -2.124672
     32          7           0        4.214662   -0.616751   -2.143029
     33          6           0        4.251343   -1.517118   -3.217583
     34          6           0        4.392739   -0.716308   -4.447534
     35          6           0        4.445499    0.601917   -3.998821
     36          6           0        4.369927    0.621571   -2.576782
     37          6           0        4.513889   -1.231676   -5.768198
     38          6           0        4.572922    1.996878   -4.388313
     39          8           0        4.580035    2.600153   -5.462326
     40          6           0        4.843328    2.860302   -3.077891
     41          6           0        3.917255    4.045333   -3.115282
     42          8           0        2.682485    3.895760   -3.013611
     43          8           0        4.636474    5.174585   -3.025520
     44          6           0        3.775654    6.387491   -3.027247
     45          1           0        5.791673    1.026659    3.552096
     46          1           0        4.039388   -4.786532    2.113234
     47          1           0        4.144075   -3.368905   -4.003839
     48          1           0        5.954161    4.020279   -0.375835
     49          1           0        5.715163    3.315183    2.343204
     50          1           0        7.785681    2.736808    0.258901
     51          1           0        7.648509    1.509041    1.555063
     52          1           0        8.016210    3.149401    2.007388
     53          1           0        3.548784    3.767383    1.441173
     54          1           0        3.256204    4.156798   -0.301018
     55          1           0        5.221285    5.948672    0.706278
     56          1           0        4.179977    5.656786    2.047297
     57          1           0        5.081012    0.321595    5.407011
     58          1           0        5.267510   -1.256605    6.070727
     59          1           0        3.632792   -0.546691    6.038525
     60          1           0        4.126389   -3.112204    6.591669
     61          1           0        2.770591   -4.373251    6.584836
     62          1           0        2.488546   -2.654233    6.199669
     63          1           0        3.351419   -5.996627   -0.022846
     64          1           0        4.899945   -5.477326   -2.512902
     65          1           0        5.156369   -7.323956    0.269969
     66          1           0        6.139956   -5.832758    0.463923
     67          1           0        6.008447   -6.553248   -1.056134
     68          1           0        2.780153   -6.843871   -2.427158
     69          1           0        2.846641   -5.659677   -3.727585
     70          1           0        1.352164   -5.732605   -1.216030
     71          1           0        0.738040   -5.296716   -2.846841
     72          1           0        1.691199   -4.123151   -1.832472
     73          1           0        3.873073   -0.613505   -6.396837
     74          1           0        4.219869   -2.280093   -5.812644
     75          1           0        5.580107   -1.089218   -5.943528
     76          1           0        5.890882    3.158224   -3.109429
     77          1           0        4.119748    7.024140   -3.842422
     78          1           0        3.812462    6.795033   -2.016822
     79          1           0        2.732767    6.238030   -3.309004
     80         12           0       -4.787378   -0.139552    0.030626
     81          6           0       -2.205843    1.974440    1.351905
     82          6           0       -6.990569    2.370572    0.723336
     83          6           0       -7.140705   -2.136465   -0.705299
     84          6           0       -2.628893   -2.834878    0.501587
     85          7           0       -4.512846    1.866160    0.921719
     86          6           0       -3.477244    2.584719    1.328590
     87          6           0       -3.810678    4.064677    1.657374
     88          6           0       -5.376138    3.894243    1.972256
     89          6           0       -5.661639    2.653883    1.128057
     90          6           0       -5.664575    3.559193    3.426180
     91          6           0       -3.571274    5.017369    0.433821
     92          6           0       -3.579349    6.510251    0.769942
     93          1           0       -2.674299    7.393117    0.039254
     94          7           0       -6.678965    0.224910   -0.446496
     95          6           0       -7.411898    1.304128   -0.100986
     96          6           0       -8.746475    1.086335   -0.680329
     97          6           0       -8.789816   -0.285341   -1.255948
     98          6           0       -7.517187   -0.804360   -0.796465
     99          6           0       -9.799541    2.155304   -0.722555
    100          6           0       -9.813546   -1.014225   -2.072589
    101          8           0       -9.746806   -2.280099   -2.262162
    102          6           0      -10.946894   -0.218026   -2.565624
    103          7           0       -4.956323   -2.210156    0.110394
    104          6           0       -6.069989   -2.829934   -0.318018
    105          6           0       -5.858232   -4.321431   -0.422819
    106          6           0       -4.290181   -4.549009   -0.206008
    107          6           0       -3.861670   -3.094623    0.088114
    108          6           0       -6.639048   -5.175955    0.575425
    109          6           0       -3.533193   -5.333166   -1.312707
    110          6           0       -3.496827   -4.521310   -2.587439
    111          7           0       -2.721688   -0.395165    0.609967
    112          6           0       -2.024986   -1.613045    0.769532
    113          6           0       -0.681012   -1.281413    1.285469
    114          6           0       -0.697087    0.115710    1.413071
    115          6           0       -1.968626    0.617485    1.024589
    116          6           0        0.338327   -2.218805    1.614649
    117          6           0        0.068902    1.279171    1.798167
    118          8           0        1.236820    1.479809    2.128994
    119          6           0       -0.915913    2.522957    1.895798
    120          6           0       -0.281970    3.675724    1.166571
    121          8           0       -0.103675    3.624477   -0.063144
    122          8           0       -0.190889    4.727930    2.000186
    123          6           0        0.421614    5.899694    1.319278
    124          1           0       -7.794797    2.999281    1.106499
    125          1           0       -7.880822   -2.860518   -1.053791
    126          1           0       -1.864376   -3.610642    0.581535
    127          1           0       -3.298314    4.463932    2.524467
    128          1           0       -5.947288    4.743801    1.607017
    129          1           0       -4.758830    3.374013    3.984293
    130          1           0       -6.284678    2.672563    3.406310
    131          1           0       -6.275981    4.344490    3.879851
    132          1           0       -4.442169    4.970096   -0.232556
    133          1           0       -2.659535    4.765825   -0.072233
    134          1           0       -3.503593    6.690175    1.849221
    135          1           0       -4.554091    6.922062    0.497345
    136          1           0       -9.538821    3.002564   -0.076351
    137          1           0      -10.701796    1.733512   -0.266587
    138          1           0      -10.034275    2.475379   -1.739959
    139          1           0      -11.469071    0.227717   -1.722353
    140          1           0      -11.523194   -0.892651   -3.201741
    141          1           0      -10.556932    0.610218   -3.167762
    142          1           0       -6.133144   -4.682926   -1.406095
    143          1           0       -4.084780   -5.127780    0.706506
    144          1           0       -7.284282   -5.932993    0.091014
    145          1           0       -7.228164   -4.518070    1.200459
    146          1           0       -6.029797   -5.704802    1.306419
    147          1           0       -4.062204   -6.259518   -1.549696
    148          1           0       -2.519892   -5.603076   -1.034580
    149          1           0       -4.466399   -4.738001   -3.045760
    150          1           0       -2.677305   -4.846215   -3.225284
    151          1           0       -3.467927   -3.447401   -2.369406
    152          1           0        1.265038   -1.821659    1.222250
    153          1           0        0.121190   -3.202772    1.204242
    154          1           0        0.270886   -2.205141    2.705763
    155          1           0       -1.065167    2.740346    2.954119
    156          1           0        1.283281    6.204547    1.921178
    157          1           0       -0.395073    6.636194    1.199563
    158          1           0        0.886074    5.732426    0.354525
 ---------------------------------------------------------------------

 SCF Done:  E(RCAM-B3LYP) =  -4069.81399856     A.U. after   18 cycles

 Excitation energies and oscillator strengths:

 Excited State   1:      Singlet-A      1.6497 eV  751.54 nm  f=0.3346  <S**2>=0.000
     309 -> 315        0.13155
     310 -> 316        0.10027
     311 -> 313        0.53859
     312 -> 314        0.42722
 This state for optimization and/or second-order correction.
 Total Energy, E(TD-HF/TD-DFT) =  -4069.75337231
 Copying the excited state density for this state as the 1-particle RhoCI density.

 Excited State   2:      Singlet-A      1.6897 eV  733.78 nm  f=0.4609  <S**2>=0.000
     309 -> 315       -0.10970
     310 -> 316        0.13705
     311 -> 313       -0.42557
     312 -> 314        0.53671

 Excited State   3:      Singlet-A      2.1263 eV  583.11 nm  f=0.0000  <S**2>=0.000
     312 -> 313        0.70412

 Excited State   4:      Singlet-A      2.1691 eV  571.60 nm  f=0.0019  <S**2>=0.000
     309 -> 313        0.48079
     310 -> 314       -0.43445
     311 -> 315       -0.19525
     312 -> 316        0.17260

 Excited State   5:      Singlet-A      2.1903 eV  566.05 nm  f=0.1661  <S**2>=0.000
     309 -> 313        0.42891
     310 -> 314        0.47429
     311 -> 315       -0.18454
     312 -> 316       -0.20568

 The electronic state is 1-A.
 Alpha  occ. eigenvalues --  -46.87643 -46.86940 -19.26325 -19.25561 -19.19028
 Alpha  occ. eigenvalues --  -19.18712 -19.18565 -19.18286 -19.18118 -19.17435
 Alpha  occ. eigenvalues --  -14.42479 -14.41554 -14.41347 -14.40708 -14.39348
 Alpha  occ. eigenvalues --  -14.38601 -14.38559 -14.37776 -10.38965 -10.38196
 Alpha  occ. eigenvalues --  -10.35387 -10.34929 -10.34527 -10.33648 -10.31681
 Alpha  occ. eigenvalues --  -10.31329 -10.31168 -10.31011 -10.30531 -10.30410
 Alpha  occ. eigenvalues --  -10.30388 -10.30092 -10.30035 -10.29896 -10.29785
 Alpha  occ. eigenvalues --  -10.29743 -10.29518 -10.29423 -10.29412 -10.29284
 Alpha  occ. eigenvalues --  -10.28934 -10.28704 -10.28606 -10.28472 -10.28425
 Alpha  occ. eigenvalues --  -10.28238 -10.28145 -10.28034 -10.27940 -10.27666
 Alpha  occ. eigenvalues --  -10.27528 -10.27483 -10.27481 -10.27464 -10.27451
 Alpha  occ. eigenvalues --  -10.27335 -10.27306 -10.27170 -10.27066 -10.27025
 Alpha  occ. eigenvalues --  -10.27009 -10.26877 -10.26866 -10.26790 -10.26608
 Alpha  occ. eigenvalues --  -10.26606 -10.26397 -10.26386 -10.26065 -10.26045
 Alpha  occ. eigenvalues --  -10.25981 -10.25952 -10.25890 -10.25883 -10.25702
 Alpha  occ. eigenvalues --  -10.25564 -10.25359 -10.25296 -10.25230 -10.25048
 Alpha  occ. eigenvalues --  -10.24939 -10.24693 -10.24649 -10.24642 -10.24097
 Alpha  occ. eigenvalues --  -10.24059  -3.16391  -3.15668  -1.91273  -1.90862
 Alpha  occ. eigenvalues --   -1.90700  -1.90552  -1.90135  -1.89980  -1.16594
 Alpha  occ. eigenvalues --   -1.15881  -1.09037  -1.07894  -1.06962  -1.06831
 Alpha  occ. eigenvalues --   -1.06705  -1.05767  -1.04491  -1.03710  -1.03660
 Alpha  occ. eigenvalues --   -1.03034  -1.02996  -1.02443  -1.02113  -1.01627
 Alpha  occ. eigenvalues --   -0.92022  -0.91180  -0.89470  -0.89141  -0.88986
 Alpha  occ. eigenvalues --   -0.88382  -0.88186  -0.87822  -0.87734  -0.87669
 Alpha  occ. eigenvalues --   -0.87146  -0.87123  -0.86873  -0.86596  -0.84986
 Alpha  occ. eigenvalues --   -0.84279  -0.83838  -0.83486  -0.82916  -0.82643
 Alpha  occ. eigenvalues --   -0.82427  -0.81982  -0.81596  -0.80910  -0.80440
 Alpha  occ. eigenvalues --   -0.79891  -0.78644  -0.78084  -0.77131  -0.76893
 Alpha  occ. eigenvalues --   -0.76631  -0.76310  -0.75845  -0.75234  -0.74783
 Alpha  occ. eigenvalues --   -0.74344  -0.72699  -0.72064  -0.71582  -0.70976
 Alpha  occ. eigenvalues --   -0.69704  -0.69513  -0.68825  -0.68191  -0.67617
 Alpha  occ. eigenvalues --   -0.67179  -0.66942  -0.66524  -0.65270  -0.64761
 Alpha  occ. eigenvalues --   -0.64644  -0.64525  -0.64179  -0.64144  -0.63971
 Alpha  occ. eigenvalues --   -0.63631  -0.62273  -0.61607  -0.60339  -0.59808
 Alpha  occ. eigenvalues --   -0.59788  -0.59028  -0.58974  -0.58434  -0.58279
 Alpha  occ. eigenvalues --   -0.57794  -0.57590  -0.57240  -0.56839  -0.56662
 Alpha  occ. eigenvalues --   -0.56199  -0.55887  -0.55616  -0.55456  -0.55300
 Alpha  occ. eigenvalues --   -0.55232  -0.54892  -0.54785  -0.54458  -0.53910
 Alpha  occ. eigenvalues --   -0.53896  -0.53233  -0.53153  -0.53097  -0.52853
 Alpha  occ. eigenvalues --   -0.52688  -0.52666  -0.52544  -0.52355  -0.52267
 Alpha  occ. eigenvalues --   -0.52147  -0.51974  -0.51931  -0.51651  -0.51263
 Alpha  occ. eigenvalues --   -0.51236  -0.50893  -0.50527  -0.50463  -0.49986
 Alpha  occ. eigenvalues --   -0.49975  -0.49863  -0.49562  -0.49479  -0.49285
 Alpha  occ. eigenvalues --   -0.49206  -0.49169  -0.48850  -0.48594  -0.48518
 Alpha  occ. eigenvalues --   -0.48431  -0.48391  -0.48339  -0.47979  -0.47845
 Alpha  occ. eigenvalues --   -0.47809  -0.47589  -0.47101  -0.47072  -0.46719
 Alpha  occ. eigenvalues --   -0.46613  -0.46542  -0.46263  -0.46175  -0.46047
 Alpha  occ. eigenvalues --   -0.45904  -0.45779  -0.45674  -0.45500  -0.45212
 Alpha  occ. eigenvalues --   -0.45143  -0.44698  -0.44542  -0.44454  -0.44180
 Alpha  occ. eigenvalues --   -0.44067  -0.43973  -0.43949  -0.43897  -0.43603
 Alpha  occ. eigenvalues --   -0.43526  -0.43409  -0.43373  -0.43335  -0.42936
 Alpha  occ. eigenvalues --   -0.42894  -0.42826  -0.42688  -0.42526  -0.42406
 Alpha  occ. eigenvalues --   -0.42185  -0.41977  -0.41953  -0.41754  -0.41441
 Alpha  occ. eigenvalues --   -0.41435  -0.41019  -0.40994  -0.40878  -0.40703
 Alpha  occ. eigenvalues --   -0.40675  -0.40488  -0.40447  -0.40298  -0.40247
 Alpha  occ. eigenvalues --   -0.40187  -0.39975  -0.39407  -0.39360  -0.39087
 Alpha  occ. eigenvalues --   -0.38312  -0.37936  -0.37622  -0.37235  -0.37197
 Alpha  occ. eigenvalues --   -0.37107  -0.36703  -0.36631  -0.36485  -0.36161
 Alpha  occ. eigenvalues --   -0.35984  -0.35467  -0.34248  -0.33708  -0.33503
 Alpha  occ. eigenvalues --   -0.33154  -0.32866  -0.32377  -0.31267  -0.30964
 Alpha  occ. eigenvalues --   -0.30815  -0.30305  -0.30256  -0.29370  -0.29294
 Alpha  occ. eigenvalues --   -0.29263  -0.28682  -0.28545  -0.24024  -0.23258
 Alpha  occ. eigenvalues --   -0.21118  -0.20339
 Alpha virt. eigenvalues --   -0.08816  -0.07996  -0.01670  -0.01016  -0.00064
 Alpha virt. eigenvalues --    0.00673   0.02057   0.02907   0.03332   0.04354
 Alpha virt. eigenvalues --    0.04743   0.05119   0.05281   0.05917   0.06169

 Mulliken charges:
               1
     1  Mg   0.809271
     2  C    0.005358
     3  C   -0.082647
     4  C   -0.052261
     5  C   -0.065644
     6  N   -0.255186
     7  C   -0.046249
     8  C   -0.015206
     9  C   -0.091495
    10  C    0.061619
    11  C    0.105438
    12  C    0.045818
    13  C   -0.076169
    14  H    0.019864
    15  N   -0.436377
    16  C    0.184954
    17  C   -0.177182
    18  C   -0.006186
    19  C    0.145931
    20  C    0.112539
    21  C    0.009119
    22  O   -0.253200
    23  C    0.063225
    24  N   -0.336179
    25  C    0.042259
    26  C   -0.026763
    27  C   -0.023287
    28  C    0.074331
    29  C    0.076768
    30  C    0.036311
    31  C   -0.009561
    32  N   -0.310353
    33  C    0.081017
    34  C   -0.171622
    35  C    0.007224
    36  C    0.083788
    37  C    0.127571
    38  C    0.047203
    39  O   -0.191049
    40  C   -0.008501
    41  C    0.209584
    42  O   -0.246648
    43  O   -0.306567
    44  C    0.158727
    45  H   -0.021510
    46  H   -0.020892
    47  H   -0.044653
    48  H   -0.002670
    49  H   -0.004280
    50  H    0.024182
    51  H    0.016000
    52  H    0.014100
    53  H    0.025238
    54  H    0.055695
    55  H    0.016733
    56  H    0.019735
    57  H    0.006289
    58  H    0.023565
    59  H    0.039648
    60  H    0.037316
    61  H    0.032811
    62  H    0.030974
    63  H    0.012511
    64  H    0.008654
    65  H    0.021131
    66  H    0.013375
    67  H    0.003763
    68  H    0.004444
    69  H    0.004793
    70  H    0.005410
    71  H    0.016894
    72  H    0.032888
    73  H    0.046365
    74  H    0.007110
    75  H    0.044297
    76  H    0.032815
    77  H    0.040664
    78  H    0.042706
    79  H    0.054536
    80  Mg   0.840633
    81  C   -0.015252
    82  C   -0.087939
    83  C   -0.045286
    84  C   -0.065431
    85  N   -0.254829
    86  C   -0.049858
    87  C   -0.015534
    88  C   -0.090616
    89  C    0.046599
    90  C    0.114545
    91  C    0.062149
    92  C   -0.077704
    93  H    0.035286
    94  N   -0.423456
    95  C    0.163781
    96  C   -0.174450
    97  C   -0.007382
    98  C    0.152498
    99  C    0.099357
   100  C    0.015928
   101  O   -0.252852
   102  C    0.061017
   103  N   -0.350058
   104  C    0.037885
   105  C   -0.020068
   106  C   -0.034697
   107  C    0.088359
   108  C    0.073586
   109  C    0.033547
   110  C   -0.008230
   111  N   -0.323881
   112  C    0.077956
   113  C   -0.171819
   114  C   -0.001351
   115  C    0.099675
   116  C    0.136290
   117  C    0.053232
   118  O   -0.189078
   119  C    0.003024
   120  C    0.209505
   121  O   -0.238745
   122  O   -0.309282
   123  C    0.147820
   124  H   -0.019777
   125  H   -0.015330
   126  H   -0.037838
   127  H   -0.001806
   128  H   -0.004083
   129  H    0.021568
   130  H    0.014391
   131  H    0.016118
   132  H    0.014513
   133  H    0.041017
   134  H    0.019492
   135  H    0.019465
   136  H    0.008849
   137  H    0.026162
   138  H    0.040373
   139  H    0.038131
   140  H    0.036602
   141  H    0.034363
   142  H    0.014607
   143  H    0.013285
   144  H    0.025122
   145  H    0.011323
   146  H    0.006161
   147  H    0.005725
   148  H    0.005648
   149  H    0.010543
   150  H    0.017848
   151  H    0.031127
   152  H    0.059665
   153  H    0.013441
   154  H    0.046103
   155  H    0.032969
   156  H    0.040115
   157  H    0.047041
   158  H    0.061965
 Sum of Mulliken charges =  -0.00000

 Dipole moment (field-independent basis, Debye):
    X=             -2.4391    Y=              2.9432    Z=              5.4665  Tot=              6.6704
 Quadrupole moment (field-independent basis, Debye-Ang):
   XX=           -482.6571   YY=           -472.8261   ZZ=           -520.8430
   XY=            -25.3533   XZ=              7.9111   YZ=             34.8172

 Normal termination of Gaussian 16 at Thu Sep  9 21:50:10 2021.
