 Gaussian 16, Revision A.03,
 Gaussian 16:  ES64L-G16RevA.03 25-Dec-2016

 -----------------------------------
 #p cam-b3lyp/Def2SVP td=(nstates=5)
 -----------------------------------

 --------------------------------
 TDDFT excited states in gaussian
 --------------------------------
 Symbolic Z-matrix:
 Charge =  0 Multiplicity = 1

                         Standard orientation:
 ---------------------------------------------------------------------
 Center     Atomic      Atomic             Coordinates (Angstroms)
 Number     Number       Type             X           Y           Z
 ---------------------------------------------------------------------
      1         12           0        8.128961    0.370213    0.108156
      2          6           0        8.183964   -3.119370   -0.686828
      3          6           0        8.979411    0.971751   -3.141144
      4          6           0        8.530813    3.416879    0.891073
      5          6           0        8.405417   -0.540056    3.460863
      6          7           0        8.504095   -0.984921   -1.601678
      7          6           0        8.433827   -2.299092   -1.789261
      8          6           0        8.575896   -2.718423   -3.283032
      9          6           0        9.370681   -1.447702   -3.826709
     10          6           0        8.897049   -0.415439   -2.818726
     11          6           0       10.885855   -1.583447   -3.715704
     12          6           0        7.188249   -2.872572   -3.991836
     13          6           0        7.221638   -3.589550   -5.344678
     14          1           0        6.106105   -4.449908   -5.708981
     15          7           0        8.194635    1.986528   -1.025890
     16          6           0        8.546912    2.045170   -2.332698
     17          6           0        8.436641    3.467724   -2.721109
     18          6           0        8.175242    4.257705   -1.485920
     19          6           0        8.317654    3.242022   -0.474246
     20          6           0        8.528362    3.943117   -4.138621
     21          6           0        7.859224    5.701370   -1.253335
     22          8           0        7.897784    6.226991   -0.088513
     23          6           0        7.586027    6.515374   -2.451585
     24          7           0        8.646388    1.321431    1.892838
     25          6           0        8.694113    2.655578    1.975047
     26          6           0        8.804879    3.111218    3.399849
     27          6           0        8.577620    1.811125    4.298662
     28          6           0        8.449740    0.761442    3.167255
     29          6           0       10.133127    3.774830    3.788936
     30          6           0        7.459152    1.882527    5.368405
     31          6           0        6.108285    1.966265    4.693688
     32          7           0        8.093708   -1.483907    1.236004
     33          6           0        8.249591   -1.630827    2.621930
     34          6           0        8.261820   -3.077965    2.904263
     35          6           0        8.127971   -3.676477    1.652978
     36          6           0        8.064221   -2.667612    0.649774
     37          6           0        8.443266   -3.676172    4.182409
     38          6           0        8.048738   -4.934072    0.927696
     39          8           0        7.958155   -6.118670    1.253295
     40          6           0        8.204343   -4.626536   -0.626986
     41          6           0        7.116475   -5.373695   -1.349208
     42          8           0        5.917315   -5.064080   -1.195849
     43          8           0        7.665860   -6.169440   -2.279536
     44          6           0        6.638879   -6.917519   -3.052738
     45          1           0        9.472228    1.269705   -4.068665
     46          1           0        8.564145    4.458474    1.217273
     47          1           0        8.403295   -0.897694    4.492146
     48          1           0        9.162248   -3.622621   -3.447478
     49          1           0        9.054138   -1.169083   -4.831644
     50          1           0       11.166067   -2.479129   -3.161489
     51          1           0       11.220341   -0.689556   -3.188853
     52          1           0       11.351613   -1.542624   -4.700682
     53          1           0        6.836467   -1.891371   -4.310513
     54          1           0        6.473728   -3.372061   -3.336628
     55          1           0        8.169072   -4.106930   -5.498288
     56          1           0        7.193978   -2.835688   -6.131525
     57          1           0        8.888995    3.157865   -4.801846
     58          1           0        9.307984    4.704003   -4.169455
     59          1           0        7.587624    4.366188   -4.491261
     60          1           0        8.452025    6.483959   -3.113104
     61          1           0        7.292616    7.498957   -2.086446
     62          1           0        6.761460    6.064315   -3.004381
     63          1           0        8.037406    3.847237    3.635828
     64          1           0        9.470318    1.544088    4.864750
     65          1           0       10.017937    4.780090    4.194999
     66          1           0       10.777634    3.779431    2.910368
     67          1           0       10.736770    3.208369    4.497564
     68          1           0        7.571109    2.780786    5.974658
     69          1           0        7.453149    1.025989    6.042614
     70          1           0        6.009443    3.029518    4.477919
     71          1           0        5.322921    1.630858    5.371859
     72          1           0        6.106395    1.438629    3.739705
     73          1           0        7.713772   -4.483352    4.247742
     74          1           0        8.303364   -2.950059    4.982903
     75          1           0        9.475961   -4.015173    4.101931
     76          1           0        9.197514   -4.968614   -0.916324
     77          1           0        6.879429   -7.977045   -2.964573
     78          1           0        6.626278   -6.483009   -4.052461
     79          1           0        5.625825   -6.902220   -2.649220
     80         12           0       -7.742371    0.990854    0.345639
     81          6           0       -9.616443   -2.062952    0.142774
     82          6           0       -8.902073    1.734952   -2.774613
     83          6           0       -5.755682    3.464493    0.305309
     84          6           0       -5.869105   -0.489984    2.884094
     85          7           0       -9.080986   -0.102000   -1.034942
     86          6           0       -9.782131   -1.224340   -0.979145
     87          6           0      -10.773862   -1.422380   -2.156774
     88          6           0      -10.044651   -0.492544   -3.244214
     89          6           0       -9.321922    0.466477   -2.300488
     90          6           0       -9.001138   -1.231687   -4.065227
     91          6           0      -12.212823   -0.894058   -1.821692
     92          6           0      -13.303130   -1.331878   -2.802161
     93          1           0      -14.638958   -1.606866   -2.280229
     94          7           0       -7.741272    2.618774   -0.789458
     95          6           0       -8.277587    2.752704   -2.020596
     96          6           0       -7.992940    4.135174   -2.435221
     97          6           0       -7.102089    4.756103   -1.417598
     98          6           0       -6.808543    3.605449   -0.586979
     99          6           0       -8.612829    4.764700   -3.648828
    100          6           0       -6.587866    6.151455   -1.231165
    101          8           0       -5.635366    6.414592   -0.414863
    102          6           0       -7.168318    7.185622   -2.100097
    103          7           0       -5.923511    1.353932    1.284940
    104          6           0       -5.293327    2.532717    1.139167
    105          6           0       -4.152757    2.666435    2.119783
    106          6           0       -4.299922    1.428396    3.121380
    107          6           0       -5.500058    0.712275    2.463920
    108          6           0       -2.749963    2.665601    1.512692
    109          6           0       -4.374564    1.755192    4.638060
    110          6           0       -5.662694    2.484019    4.946188
    111          7           0       -7.835456   -0.847151    1.477506
    112          6           0       -6.935918   -1.280439    2.476098
    113          6           0       -7.348283   -2.642621    2.872162
    114          6           0       -8.453958   -2.918477    2.053714
    115          6           0       -8.700066   -1.814664    1.193181
    116          6           0       -6.694494   -3.462966    3.834300
    117          6           0       -9.462351   -3.896676    1.714635
    118          8           0       -9.802504   -4.987549    2.170721
    119          6           0      -10.182174   -3.436634    0.374258
    120          6           0      -11.667368   -3.557222    0.579659
    121          8           0      -12.251322   -2.837116    1.408541
    122          8           0      -12.183005   -4.342870   -0.383266
    123          6           0      -13.655428   -4.483869   -0.228622
    124          1           0       -9.023436    1.958723   -3.834843
    125          1           0       -5.105365    4.336201    0.408726
    126          1           0       -5.396197   -0.980738    3.737430
    127          1           0      -10.845048   -2.438934   -2.524646
    128          1           0      -10.767414    0.044199   -3.853223
    129          1           0       -8.838072   -2.234941   -3.700479
    130          1           0       -8.094130   -0.647185   -3.983126
    131          1           0       -9.274602   -1.216574   -5.124151
    132          1           0      -12.241781    0.191539   -1.981019
    133          1           0      -12.495114   -1.164832   -0.822885
    134          1           0      -12.968719   -2.149470   -3.452278
    135          1           0      -13.502705   -0.506824   -3.490251
    136          1           0       -9.092302    4.015061   -4.290342
    137          1           0       -7.792809    5.159391   -4.258470
    138          1           0       -9.292401    5.582181   -3.398667
    139          1           0       -6.999651    6.919257   -3.140804
    140          1           0       -6.740239    8.129535   -1.757093
    141          1           0       -8.253731    7.199309   -1.950681
    142          1           0       -4.234254    3.587005    2.684582
    143          1           0       -3.444698    0.740678    3.047558
    144          1           0       -2.162384    3.566990    1.770222
    145          1           0       -2.842597    2.565901    0.439374
    146          1           0       -2.134890    1.805672    1.772365
    147          1           0       -3.561693    2.428563    4.920831
    148          1           0       -4.302048    0.878434    5.272895
    149          1           0       -5.424501    3.522344    4.696730
    150          1           0       -5.919518    2.379827    5.998435
    151          1           0       -6.467871    2.160464    4.276375
    152          1           0       -7.470922   -3.915069    4.437026
    153          1           0       -6.002133   -2.886073    4.443901
    154          1           0       -6.175151   -4.162321    3.173659
    155          1           0       -9.825908   -4.084192   -0.427800
    156          1           0      -13.869861   -5.555704   -0.174973
    157          1           0      -14.099503   -3.922951   -1.072382
    158          1           0      -14.098119   -4.133066    0.696263
 ---------------------------------------------------------------------

 SCF Done:  E(RCAM-B3LYP) =  -4069.81175923     A.U. after   19 cycles

 Excitation energies and oscillator strengths:

 Excited State   1:      Singlet-A      1.6697 eV  742.58 nm  f=0.0183  <S**2>=0.000
     309 -> 315       -0.10246
     310 -> 316        0.13869
     311 -> 313       -0.40649
     312 -> 314        0.55305
 This state for optimization and/or second-order correction.
 Total Energy, E(TD-HF/TD-DFT) =  -4069.75040066
 Copying the excited state density for this state as the 1-particle RhoCI density.

 Excited State   2:      Singlet-A      1.6854 eV  735.63 nm  f=0.7380  <S**2>=0.000
     309 -> 315        0.14264
     310 -> 316        0.10430
     311 -> 313        0.55222
     312 -> 314        0.40596

 Excited State   3:      Singlet-A      2.1855 eV  567.31 nm  f=0.0814  <S**2>=0.000
     309 -> 313       -0.10202
     310 -> 314        0.63454
     312 -> 316       -0.26931

 Excited State   4:      Singlet-A      2.1931 eV  565.35 nm  f=0.1162  <S**2>=0.000
     309 -> 313        0.63260
     310 -> 314        0.10113
     311 -> 315       -0.27501

 Excited State   5:      Singlet-A      2.7697 eV  447.64 nm  f=0.0000  <S**2>=0.000
     312 -> 313        0.70703

 The electronic state is 1-A.
 Alpha  occ. eigenvalues --  -46.87811 -46.87585 -19.26294 -19.26291 -19.19100
 Alpha  occ. eigenvalues --  -19.19032 -19.18815 -19.18654 -19.18179 -19.17977
 Alpha  occ. eigenvalues --  -14.42464 -14.42425 -14.41464 -14.41279 -14.39416
 Alpha  occ. eigenvalues --  -14.39279 -14.38602 -14.38523 -10.39092 -10.39029
 Alpha  occ. eigenvalues --  -10.35448 -10.35333 -10.34400 -10.34154 -10.31704
 Alpha  occ. eigenvalues --  -10.31686 -10.31420 -10.31236 -10.30957 -10.30921
 Alpha  occ. eigenvalues --  -10.30584 -10.30521 -10.30320 -10.30284 -10.30221
 Alpha  occ. eigenvalues --  -10.30061 -10.29936 -10.29809 -10.29642 -10.29363
 Alpha  occ. eigenvalues --  -10.29327 -10.29266 -10.28762 -10.28660 -10.28610
 Alpha  occ. eigenvalues --  -10.28554 -10.28377 -10.28334 -10.28130 -10.28080
 Alpha  occ. eigenvalues --  -10.27926 -10.27804 -10.27740 -10.27598 -10.27594
 Alpha  occ. eigenvalues --  -10.27520 -10.27488 -10.27465 -10.27419 -10.27417
 Alpha  occ. eigenvalues --  -10.27416 -10.27410 -10.27396 -10.27278 -10.27169
 Alpha  occ. eigenvalues --  -10.26980 -10.26720 -10.26641 -10.26400 -10.26372
 Alpha  occ. eigenvalues --  -10.26245 -10.26214 -10.26046 -10.26035 -10.25967
 Alpha  occ. eigenvalues --  -10.25857 -10.25851 -10.25746 -10.25446 -10.25281
 Alpha  occ. eigenvalues --  -10.24845 -10.24800 -10.24796 -10.24732 -10.24651
 Alpha  occ. eigenvalues --  -10.24612  -3.16554  -3.16335  -1.91436  -1.91217
 Alpha  occ. eigenvalues --   -1.91022  -1.90864  -1.90806  -1.90643  -1.16643
 Alpha  occ. eigenvalues --   -1.16585  -1.08637  -1.08584  -1.07215  -1.06907
 Alpha  occ. eigenvalues --   -1.06885  -1.06654  -1.04594  -1.04423  -1.03775
 Alpha  occ. eigenvalues --   -1.03588  -1.03247  -1.02960  -1.02425  -1.02034
 Alpha  occ. eigenvalues --   -0.91985  -0.91913  -0.89538  -0.89412  -0.89201
 Alpha  occ. eigenvalues --   -0.89089  -0.88304  -0.88133  -0.87883  -0.87709
 Alpha  occ. eigenvalues --   -0.87687  -0.87611  -0.87281  -0.87058  -0.84995
 Alpha  occ. eigenvalues --   -0.84935  -0.83956  -0.83789  -0.82972  -0.82869
 Alpha  occ. eigenvalues --   -0.82659  -0.82589  -0.81597  -0.81528  -0.80607
 Alpha  occ. eigenvalues --   -0.80374  -0.78807  -0.78566  -0.77234  -0.77074
 Alpha  occ. eigenvalues --   -0.76948  -0.76827  -0.75935  -0.75773  -0.74913
 Alpha  occ. eigenvalues --   -0.74716  -0.72788  -0.72621  -0.71685  -0.71504
 Alpha  occ. eigenvalues --   -0.69931  -0.69670  -0.68885  -0.68762  -0.67652
 Alpha  occ. eigenvalues --   -0.67529  -0.67230  -0.67142  -0.65300  -0.65207
 Alpha  occ. eigenvalues --   -0.64867  -0.64696  -0.64635  -0.64584  -0.64287
 Alpha  occ. eigenvalues --   -0.64121  -0.62310  -0.62210  -0.60452  -0.60269
 Alpha  occ. eigenvalues --   -0.59817  -0.59730  -0.59001  -0.58916  -0.58517
 Alpha  occ. eigenvalues --   -0.58351  -0.57596  -0.57483  -0.57322  -0.57160
 Alpha  occ. eigenvalues --   -0.56321  -0.56131  -0.55989  -0.55824  -0.55528
 Alpha  occ. eigenvalues --   -0.55388  -0.55356  -0.55166  -0.54539  -0.54410
 Alpha  occ. eigenvalues --   -0.53908  -0.53851  -0.53310  -0.53231  -0.53155
 Alpha  occ. eigenvalues --   -0.53076  -0.52928  -0.52835  -0.52762  -0.52613
 Alpha  occ. eigenvalues --   -0.52464  -0.52317  -0.51928  -0.51793  -0.51627
 Alpha  occ. eigenvalues --   -0.51599  -0.51210  -0.51127  -0.50576  -0.50418
 Alpha  occ. eigenvalues --   -0.50049  -0.49926  -0.49915  -0.49784  -0.49523
 Alpha  occ. eigenvalues --   -0.49425  -0.49225  -0.49136  -0.49108  -0.49035
 Alpha  occ. eigenvalues --   -0.48605  -0.48489  -0.48473  -0.48451  -0.48288
 Alpha  occ. eigenvalues --   -0.48276  -0.47706  -0.47527  -0.47307  -0.47046
 Alpha  occ. eigenvalues --   -0.46813  -0.46633  -0.46568  -0.46491  -0.46373
 Alpha  occ. eigenvalues --   -0.46194  -0.46176  -0.46002  -0.45834  -0.45745
 Alpha  occ. eigenvalues --   -0.45217  -0.45122  -0.44589  -0.44518  -0.44445
 Alpha  occ. eigenvalues --   -0.44406  -0.44160  -0.44100  -0.44060  -0.44028
 Alpha  occ. eigenvalues --   -0.44004  -0.43876  -0.43507  -0.43484  -0.43399
 Alpha  occ. eigenvalues --   -0.43314  -0.43040  -0.42864  -0.42826  -0.42713
 Alpha  occ. eigenvalues --   -0.42674  -0.42474  -0.42029  -0.41889  -0.41717
 Alpha  occ. eigenvalues --   -0.41595  -0.41547  -0.41392  -0.41153  -0.40916
 Alpha  occ. eigenvalues --   -0.40885  -0.40827  -0.40662  -0.40634  -0.40589
 Alpha  occ. eigenvalues --   -0.40410  -0.40247  -0.40173  -0.39468  -0.39339
 Alpha  occ. eigenvalues --   -0.38486  -0.38266  -0.37763  -0.37594  -0.37337
 Alpha  occ. eigenvalues --   -0.37277  -0.37185  -0.37133  -0.36726  -0.36704
 Alpha  occ. eigenvalues --   -0.36207  -0.36140  -0.34300  -0.34178  -0.33798
 Alpha  occ. eigenvalues --   -0.33783  -0.33200  -0.33100  -0.31345  -0.31212
 Alpha  occ. eigenvalues --   -0.31048  -0.30899  -0.30039  -0.29881  -0.29459
 Alpha  occ. eigenvalues --   -0.29334  -0.29257  -0.29134  -0.24094  -0.23960
 Alpha  occ. eigenvalues --   -0.21141  -0.21041
 Alpha virt. eigenvalues --   -0.08786  -0.08718  -0.01763  -0.01608  -0.00065
 Alpha virt. eigenvalues --    0.00036   0.02189   0.02285   0.03097   0.03297
 Alpha virt. eigenvalues --    0.04703   0.04799   0.05086   0.05228   0.06162

 Mulliken charges:
               1
     1  Mg   0.838509
     2  C   -0.003001
     3  C   -0.094100
     4  C   -0.045855
     5  C   -0.064045
     6  N   -0.256766
     7  C   -0.052517
     8  C   -0.013986
     9  C   -0.087010
    10  C    0.046318
    11  C    0.104804
    12  C    0.053473
    13  C   -0.071786
    14  H    0.036078
    15  N   -0.433177
    16  C    0.168443
    17  C   -0.177099
    18  C   -0.003918
    19  C    0.148704
    20  C    0.110178
    21  C    0.012408
    22  O   -0.249486
    23  C    0.062416
    24  N   -0.341083
    25  C    0.041181
    26  C   -0.028212
    27  C   -0.023962
    28  C    0.074750
    29  C    0.076139
    30  C    0.035154
    31  C   -0.004503
    32  N   -0.310440
    33  C    0.080263
    34  C   -0.169850
    35  C    0.008374
    36  C    0.082863
    37  C    0.127339
    38  C    0.046064
    39  O   -0.188358
    40  C   -0.005308
    41  C    0.212925
    42  O   -0.257230
    43  O   -0.304774
    44  C    0.157667
    45  H   -0.017562
    46  H   -0.016734
    47  H   -0.041553
    48  H    0.000980
    49  H   -0.004045
    50  H    0.025514
    51  H    0.016474
    52  H    0.016681
    53  H    0.011159
    54  H    0.044071
    55  H    0.017928
    56  H    0.017912
    57  H    0.005831
    58  H    0.026893
    59  H    0.039661
    60  H    0.037275
    61  H    0.035936
    62  H    0.031636
    63  H    0.016575
    64  H    0.009542
    65  H    0.023317
    66  H    0.012608
    67  H    0.004788
    68  H    0.006466
    69  H    0.004698
    70  H    0.008913
    71  H    0.017582
    72  H    0.028895
    73  H    0.047524
    74  H    0.009014
    75  H    0.046097
    76  H    0.035209
    77  H    0.043062
    78  H    0.046363
    79  H    0.053704
    80  Mg   0.837872
    81  C   -0.016864
    82  C   -0.087955
    83  C   -0.045563
    84  C   -0.064416
    85  N   -0.254576
    86  C   -0.049798
    87  C   -0.015081
    88  C   -0.090508
    89  C    0.045770
    90  C    0.114421
    91  C    0.062543
    92  C   -0.077792
    93  H    0.034750
    94  N   -0.423441
    95  C    0.162875
    96  C   -0.174852
    97  C   -0.007933
    98  C    0.152073
    99  C    0.099471
   100  C    0.015411
   101  O   -0.253203
   102  C    0.061244
   103  N   -0.350037
   104  C    0.037585
   105  C   -0.019917
   106  C   -0.034941
   107  C    0.088943
   108  C    0.073406
   109  C    0.034688
   110  C   -0.007651
   111  N   -0.324169
   112  C    0.078484
   113  C   -0.162853
   114  C    0.002303
   115  C    0.096240
   116  C    0.131504
   117  C    0.042514
   118  O   -0.187771
   119  C    0.000873
   120  C    0.211201
   121  O   -0.251085
   122  O   -0.305599
   123  C    0.152069
   124  H   -0.019974
   125  H   -0.015573
   126  H   -0.039999
   127  H   -0.000685
   128  H   -0.004537
   129  H    0.022577
   130  H    0.014474
   131  H    0.015979
   132  H    0.013867
   133  H    0.037680
   134  H    0.020740
   135  H    0.019463
   136  H    0.008583
   137  H    0.025786
   138  H    0.039584
   139  H    0.038005
   140  H    0.036231
   141  H    0.033835
   142  H    0.014247
   143  H    0.013280
   144  H    0.025165
   145  H    0.011529
   146  H    0.006606
   147  H    0.006290
   148  H    0.003831
   149  H    0.010832
   150  H    0.017776
   151  H    0.029978
   152  H    0.045897
   153  H    0.008738
   154  H    0.047668
   155  H    0.035104
   156  H    0.043880
   157  H    0.049382
   158  H    0.053527
 Sum of Mulliken charges =  -0.00000

 Dipole moment (field-independent basis, Debye):
    X=              2.2889    Y=              3.9002    Z=             -7.5295  Tot=              8.7832
 Quadrupole moment (field-independent basis, Debye-Ang):
   XX=           -474.0212   YY=           -562.9960   ZZ=           -449.9962
   XY=            -11.5372   XZ=             30.1704   YZ=              9.9476

 Normal termination of Gaussian 16 at Sun Sep 12 07:03:11 2021.
