 Gaussian 16, Revision A.03,
 Gaussian 16:  ES64L-G16RevA.03 25-Dec-2016

 -----------------------------------
 #p cam-b3lyp/Def2SVP td=(nstates=5)
 -----------------------------------

 --------------------------------
 TDDFT excited states in gaussian
 --------------------------------
 Symbolic Z-matrix:
 Charge =  0 Multiplicity = 1

                         Standard orientation:
 ---------------------------------------------------------------------
 Center     Atomic      Atomic             Coordinates (Angstroms)
 Number     Number       Type             X           Y           Z
 ---------------------------------------------------------------------
      1         12           0       -4.424580   -0.540418    0.460309
      2          6           0       -4.512653    2.978800   -0.187427
      3          6           0       -5.607634   -1.002114   -2.706753
      4          6           0       -4.786214   -3.612296    1.159884
      5          6           0       -4.347903    0.236215    3.856869
      6          7           0       -4.952543    0.886179   -1.148020
      7          6           0       -4.883886    2.206133   -1.290068
      8          6           0       -5.170766    2.686801   -2.744039
      9          6           0       -6.033589    1.446652   -3.253515
     10          6           0       -5.474334    0.370075   -2.340203
     11          6           0       -7.527772    1.592113   -2.983769
     12          6           0       -3.860045    2.856342   -3.583681
     13          6           0       -4.020528    3.627679   -4.896936
     14          1           0       -2.936089    4.491473   -5.338749
     15          7           0       -4.626536   -2.108900   -0.723721
     16          6           0       -5.110051   -2.111361   -1.989222
     17          6           0       -5.058884   -3.518038   -2.442348
     18          6           0       -4.684480   -4.359717   -1.272095
     19          6           0       -4.710021   -3.384438   -0.212115
     20          6           0       -5.300040   -3.934882   -3.860740
     21          6           0       -4.366063   -5.814523   -1.129676
     22          8           0       -4.293603   -6.386390    0.011503
     23          6           0       -4.226585   -6.581993   -2.380507
     24          7           0       -4.771481   -1.558036    2.249651
     25          6           0       -4.828649   -2.893905    2.283876
     26          6           0       -4.800755   -3.405673    3.693576
     27          6           0       -4.466142   -2.145164    4.614936
     28          6           0       -4.439289   -1.051880    3.518451
     29          6           0       -6.091631   -4.071882    4.189375
     30          6           0       -3.246195   -2.270297    5.561768
     31          6           0       -1.971824   -2.339467    4.750416
     32          7           0       -4.250303    1.266202    1.650602
     33          6           0       -4.263089    1.358471    3.049886
     34          6           0       -4.227133    2.793070    3.388561
     35          6           0       -4.212570    3.440360    2.154604
     36          6           0       -4.264331    2.472295    1.111310
     37          6           0       -4.270166    3.340834    4.701016
     38          6           0       -4.190192    4.725427    1.474929
     39          8           0       -4.051127    5.894993    1.835857
     40          6           0       -4.506517    4.482442   -0.066733
     41          6           0       -3.487360    5.247859   -0.865961
     42          8           0       -2.283126    4.920982   -0.847605
     43          8           0       -4.117305    6.085699   -1.703657
     44          6           0       -3.163864    6.854670   -2.547333
     45          1           0       -6.195791   -1.257679   -3.590325
     46          1           0       -4.800414   -4.665859    1.446662
     47          1           0       -4.236565    0.551856    4.895824
     48          1           0       -5.758490    3.602405   -2.812403
     49          1           0       -5.824195    1.205885   -4.295584
     50          1           0       -7.738321    2.467280   -2.369218
     51          1           0       -7.819245    0.680867   -2.461116
     52          1           0       -8.091355    1.595525   -3.917117
     53          1           0       -3.555612    1.885537   -3.974730
     54          1           0       -3.076189    3.322175   -2.985437
     55          1           0       -4.971572    4.159774   -4.932987
     56          1           0       -4.082845    2.905997   -5.711486
     57          1           0       -5.715323   -3.120100   -4.452531
     58          1           0       -6.088982   -4.686499   -3.841966
     59          1           0       -4.405632   -4.352230   -4.323542
     60          1           0       -5.154597   -6.515692   -2.948790
     61          1           0       -3.911026   -7.582254   -2.085972
     62          1           0       -3.456199   -6.116779   -2.996162
     63          1           0       -4.023344   -4.157846    3.821226
     64          1           0       -5.293261   -1.892793    5.278906
     65          1           0       -5.949510   -5.093772    4.541862
     66          1           0       -6.821767   -4.034891    3.381400
     67          1           0       -6.612734   -3.528836    4.977391
     68          1           0       -3.308324   -3.191219    6.140549
     69          1           0       -3.160407   -1.441794    6.264957
     70          1           0       -1.909698   -3.394020    4.484164
     71          1           0       -1.117386   -2.039172    5.357844
     72          1           0       -2.059391   -1.773759    3.822628
     73          1           0       -3.526973    4.137785    4.723448
     74          1           0       -4.059764    2.581681    5.454024
     75          1           0       -5.301030    3.692554    4.739332
     76          1           0       -5.519166    4.845302   -0.239931
     77          1           0       -3.379926    7.911995   -2.393660
     78          1           0       -3.258399    6.460809   -3.559431
     79          1           0       -2.115466    6.813506   -2.249836
     80         12           0        4.532476   -0.975812   -0.339764
     81          6           0        4.593307    2.427121    0.798390
     82          6           0        3.442359    0.206661   -3.347752
     83          6           0        4.037494   -3.980936   -1.229542
     84          6           0        4.512632   -1.948787    3.006673
     85          7           0        4.111156    1.072732   -1.059626
     86          6           0        4.229518    2.292747   -0.557727
     87          6           0        4.019909    3.435061   -1.587647
     88          6           0        3.122588    2.636328   -2.653344
     89          6           0        3.608565    1.216973   -2.367074
     90          6           0        1.633902    2.700735   -2.355007
     91          6           0        5.369388    3.921879   -2.223213
     92          6           0        5.276299    5.235838   -3.002057
     93          1           0        6.412265    6.152463   -2.958984
     94          7           0        4.317277   -1.760372   -2.149941
     95          6           0        3.884846   -1.131763   -3.263103
     96          6           0        3.886085   -2.149032   -4.325797
     97          6           0        4.197130   -3.468474   -3.711746
     98          6           0        4.175048   -3.116800   -2.306061
     99          6           0        3.688013   -1.811956   -5.775131
    100          6           0        4.457144   -4.825263   -4.292870
    101          8           0        4.470960   -5.878929   -3.563193
    102          6           0        4.602381   -4.895700   -5.754182
    103          7           0        4.094122   -2.707346    0.724201
    104          6           0        3.980798   -3.892591    0.099486
    105          6           0        3.938097   -5.030252    1.091602
    106          6           0        4.291120   -4.378109    2.508531
    107          6           0        4.393748   -2.895983    2.086428
    108          6           0        2.607455   -5.775676    1.192095
    109          6           0        5.473048   -5.005587    3.297182
    110          6           0        6.773128   -4.748555    2.569785
    111          7           0        4.734836    0.015248    1.569397
    112          6           0        4.670731   -0.577789    2.849347
    113          6           0        4.747698    0.515399    3.840031
    114          6           0        4.828713    1.679668    3.061326
    115          6           0        4.783629    1.337841    1.682691
    116          6           0        4.689471    0.362298    5.253995
    117          6           0        4.931409    3.120923    3.092150
    118          8           0        5.093199    3.961583    3.975806
    119          6           0        4.656163    3.678562    1.629386
    120          6           0        5.729068    4.681703    1.305206
    121          8           0        6.914847    4.324470    1.191582
    122          8           0        5.152799    5.850495    0.970196
    123          6           0        6.176205    6.874372    0.629416
    124          1           0        2.883056    0.448325   -4.252003
    125          1           0        3.975062   -5.042058   -1.481684
    126          1           0        4.611310   -2.177117    4.070067
    127          1           0        3.474805    4.292140   -1.210748
    128          1           0        3.368219    2.925289   -3.671934
    129          1           0        1.433338    3.175747   -1.406180
    130          1           0        1.291386    1.674285   -2.344133
    131          1           0        1.104783    3.186293   -3.180000
    132          1           0        5.648223    3.240352   -3.037163
    133          1           0        6.136438    3.997568   -1.477205
    134          1           0        4.341908    5.771892   -2.795905
    135          1           0        5.222610    5.004025   -4.068547
    136          1           0        3.316832   -0.787589   -5.902783
    137          1           0        2.872115   -2.444171   -6.141842
    138          1           0        4.579400   -2.000812   -6.377141
    139          1           0        3.699998   -4.513704   -6.225604
    140          1           0        4.871801   -5.931103   -5.971508
    141          1           0        5.420463   -4.232543   -6.056814
    142          1           0        4.683744   -5.778954    0.853785
    143          1           0        3.447137   -4.447223    3.210494
    144          1           0        2.700140   -6.861701    1.002275
    145          1           0        1.911046   -5.326185    0.496740
    146          1           0        2.087729   -5.666764    2.142479
    147          1           0        5.357667   -6.090845    3.352518
    148          1           0        5.556776   -4.638345    4.314587
    149          1           0        6.799795   -5.547164    1.822388
    150          1           0        7.615833   -4.820409    3.254422
    151          1           0        6.740881   -3.794203    2.031433
    152          1           0        5.452660    1.007332    5.668693
    153          1           0        4.840899   -0.674168    5.548243
    154          1           0        3.666544    0.697838    5.444537
    155          1           0        3.662506    4.128245    1.631821
    156          1           0        5.990608    7.738673    1.274571
    157          1           0        6.088782    7.032453   -0.461961
    158          1           0        7.209015    6.649707    0.868762
 ---------------------------------------------------------------------

 SCF Done:  E(RCAM-B3LYP) =  -4069.81204202     A.U. after   19 cycles

 Excitation energies and oscillator strengths:

 Excited State   1:      Singlet-A      1.6503 eV  751.29 nm  f=0.0388  <S**2>=0.000
     309 -> 315       -0.11166
     310 -> 316        0.12435
     311 -> 313       -0.45632
     312 -> 314        0.51429
 This state for optimization and/or second-order correction.
 Total Energy, E(TD-HF/TD-DFT) =  -4069.75139487
 Copying the excited state density for this state as the 1-particle RhoCI density.

 Excited State   2:      Singlet-A      1.6995 eV  729.53 nm  f=0.6570  <S**2>=0.000
     309 -> 315        0.13557
     310 -> 316        0.11826
     311 -> 313        0.51185
     312 -> 314        0.45417

 Excited State   3:      Singlet-A      2.1796 eV  568.85 nm  f=0.0333  <S**2>=0.000
     309 -> 313       -0.26930
     310 -> 314        0.58627
     311 -> 315        0.11085
     312 -> 316       -0.24232

 Excited State   4:      Singlet-A      2.1968 eV  564.40 nm  f=0.1451  <S**2>=0.000
     309 -> 313        0.58107
     310 -> 314        0.26498
     311 -> 315       -0.25661
     312 -> 316       -0.11806

 Excited State   5:      Singlet-A      2.3382 eV  530.25 nm  f=0.0000  <S**2>=0.000
     312 -> 313        0.70709

 The electronic state is 1-A.
 Alpha  occ. eigenvalues --  -46.87916 -46.87409 -19.26552 -19.26004 -19.19306
 Alpha  occ. eigenvalues --  -19.18881 -19.18844 -19.18560 -19.18288 -19.17768
 Alpha  occ. eigenvalues --  -14.42584 -14.42216 -14.41567 -14.41111 -14.39516
 Alpha  occ. eigenvalues --  -14.39113 -14.38703 -14.38347 -10.39347 -10.38765
 Alpha  occ. eigenvalues --  -10.35511 -10.35245 -10.34516 -10.33934 -10.31975
 Alpha  occ. eigenvalues --  -10.31546 -10.31437 -10.31058 -10.31002 -10.30735
 Alpha  occ. eigenvalues --  -10.30691 -10.30614 -10.30312 -10.30161 -10.30108
 Alpha  occ. eigenvalues --  -10.30030 -10.29924 -10.29734 -10.29649 -10.29358
 Alpha  occ. eigenvalues --  -10.29215 -10.29178 -10.28965 -10.28887 -10.28488
 Alpha  occ. eigenvalues --  -10.28368 -10.28309 -10.28300 -10.28145 -10.27895
 Alpha  occ. eigenvalues --  -10.27855 -10.27765 -10.27690 -10.27686 -10.27598
 Alpha  occ. eigenvalues --  -10.27585 -10.27549 -10.27540 -10.27404 -10.27348
 Alpha  occ. eigenvalues --  -10.27327 -10.27317 -10.27255 -10.27206 -10.27153
 Alpha  occ. eigenvalues --  -10.27017 -10.26693 -10.26432 -10.26390 -10.26376
 Alpha  occ. eigenvalues --  -10.26333 -10.26282 -10.26126 -10.25972 -10.25884
 Alpha  occ. eigenvalues --  -10.25705 -10.25665 -10.25521 -10.25303 -10.25144
 Alpha  occ. eigenvalues --  -10.24939 -10.24902 -10.24803 -10.24627 -10.24573
 Alpha  occ. eigenvalues --  -10.24446  -3.16659  -3.16159  -1.91541  -1.91128
 Alpha  occ. eigenvalues --   -1.91041  -1.90969  -1.90629  -1.90467  -1.16900
 Alpha  occ. eigenvalues --   -1.16305  -1.08754  -1.08365  -1.07279  -1.06913
 Alpha  occ. eigenvalues --   -1.06818  -1.06627  -1.04717  -1.04211  -1.03880
 Alpha  occ. eigenvalues --   -1.03407  -1.03346  -1.02798  -1.02527  -1.01861
 Alpha  occ. eigenvalues --   -0.92110  -0.91700  -0.89632  -0.89384  -0.89268
 Alpha  occ. eigenvalues --   -0.88753  -0.88398  -0.87994  -0.87963  -0.87816
 Alpha  occ. eigenvalues --   -0.87565  -0.87415  -0.87365  -0.86946  -0.85166
 Alpha  occ. eigenvalues --   -0.84673  -0.84052  -0.83653  -0.83048  -0.82807
 Alpha  occ. eigenvalues --   -0.82778  -0.82348  -0.81769  -0.81310  -0.80742
 Alpha  occ. eigenvalues --   -0.80177  -0.78896  -0.78430  -0.77359  -0.77116
 Alpha  occ. eigenvalues --   -0.76882  -0.76581  -0.76090  -0.75483  -0.75018
 Alpha  occ. eigenvalues --   -0.74543  -0.72887  -0.72450  -0.71806  -0.71269
 Alpha  occ. eigenvalues --   -0.70017  -0.69546  -0.69039  -0.68518  -0.67770
 Alpha  occ. eigenvalues --   -0.67406  -0.67360  -0.66940  -0.65470  -0.65002
 Alpha  occ. eigenvalues --   -0.64944  -0.64778  -0.64505  -0.64386  -0.64362
 Alpha  occ. eigenvalues --   -0.63969  -0.62491  -0.61988  -0.60539  -0.60141
 Alpha  occ. eigenvalues --   -0.59968  -0.59456  -0.59118  -0.58730  -0.58637
 Alpha  occ. eigenvalues --   -0.58162  -0.57758  -0.57430  -0.57251  -0.56998
 Alpha  occ. eigenvalues --   -0.56433  -0.56194  -0.55968  -0.55633  -0.55590
 Alpha  occ. eigenvalues --   -0.55481  -0.55214  -0.54997  -0.54692  -0.54223
 Alpha  occ. eigenvalues --   -0.54093  -0.53542  -0.53414  -0.53371  -0.53093
 Alpha  occ. eigenvalues --   -0.53005  -0.52872  -0.52871  -0.52638  -0.52551
 Alpha  occ. eigenvalues --   -0.52424  -0.52205  -0.51997  -0.51789  -0.51669
 Alpha  occ. eigenvalues --   -0.51362  -0.51335  -0.50934  -0.50651  -0.50323
 Alpha  occ. eigenvalues --   -0.50146  -0.50031  -0.49718  -0.49656  -0.49637
 Alpha  occ. eigenvalues --   -0.49350  -0.49257  -0.49211  -0.48931  -0.48754
 Alpha  occ. eigenvalues --   -0.48708  -0.48583  -0.48543  -0.48252  -0.48158
 Alpha  occ. eigenvalues --   -0.48109  -0.47835  -0.47419  -0.47323  -0.46932
 Alpha  occ. eigenvalues --   -0.46895  -0.46743  -0.46483  -0.46446  -0.46290
 Alpha  occ. eigenvalues --   -0.46221  -0.46041  -0.45971  -0.45834  -0.45532
 Alpha  occ. eigenvalues --   -0.45314  -0.44957  -0.44719  -0.44642  -0.44269
 Alpha  occ. eigenvalues --   -0.44254  -0.44247  -0.44193  -0.44144  -0.43866
 Alpha  occ. eigenvalues --   -0.43770  -0.43693  -0.43663  -0.43538  -0.43262
 Alpha  occ. eigenvalues --   -0.43159  -0.43083  -0.42917  -0.42779  -0.42644
 Alpha  occ. eigenvalues --   -0.42603  -0.42341  -0.42155  -0.41842  -0.41715
 Alpha  occ. eigenvalues --   -0.41714  -0.41381  -0.41278  -0.41159  -0.41042
 Alpha  occ. eigenvalues --   -0.40937  -0.40693  -0.40673  -0.40524  -0.40469
 Alpha  occ. eigenvalues --   -0.40406  -0.40211  -0.39917  -0.39555  -0.39227
 Alpha  occ. eigenvalues --   -0.38601  -0.38101  -0.37986  -0.37442  -0.37434
 Alpha  occ. eigenvalues --   -0.37364  -0.37018  -0.36936  -0.36897  -0.36472
 Alpha  occ. eigenvalues --   -0.36359  -0.35944  -0.34410  -0.34024  -0.33991
 Alpha  occ. eigenvalues --   -0.33558  -0.33314  -0.32925  -0.31416  -0.31162
 Alpha  occ. eigenvalues --   -0.31116  -0.30705  -0.30152  -0.29664  -0.29549
 Alpha  occ. eigenvalues --   -0.29426  -0.29117  -0.28969  -0.24206  -0.23775
 Alpha  occ. eigenvalues --   -0.21245  -0.20865
 Alpha virt. eigenvalues --   -0.08885  -0.08553  -0.01865  -0.01440  -0.00162
 Alpha virt. eigenvalues --    0.00195   0.02088   0.02453   0.02838   0.03517
 Alpha virt. eigenvalues --    0.04531   0.04824   0.05036   0.05487   0.05864

 Mulliken charges:
               1
     1  Mg   0.838686
     2  C   -0.003879
     3  C   -0.094843
     4  C   -0.045569
     5  C   -0.063417
     6  N   -0.256718
     7  C   -0.053011
     8  C   -0.013866
     9  C   -0.086896
    10  C    0.045962
    11  C    0.104750
    12  C    0.053373
    13  C   -0.070964
    14  H    0.032885
    15  N   -0.433222
    16  C    0.168460
    17  C   -0.177125
    18  C   -0.003401
    19  C    0.148783
    20  C    0.110159
    21  C    0.012930
    22  O   -0.249449
    23  C    0.062220
    24  N   -0.341008
    25  C    0.041263
    26  C   -0.028225
    27  C   -0.023994
    28  C    0.074661
    29  C    0.076094
    30  C    0.035078
    31  C   -0.004388
    32  N   -0.310532
    33  C    0.080351
    34  C   -0.168865
    35  C    0.008525
    36  C    0.082796
    37  C    0.127132
    38  C    0.046062
    39  O   -0.187858
    40  C   -0.005551
    41  C    0.213755
    42  O   -0.259501
    43  O   -0.304120
    44  C    0.157886
    45  H   -0.017646
    46  H   -0.016584
    47  H   -0.040868
    48  H    0.001141
    49  H   -0.004644
    50  H    0.025695
    51  H    0.016959
    52  H    0.016733
    53  H    0.010255
    54  H    0.042634
    55  H    0.019187
    56  H    0.017903
    57  H    0.005319
    58  H    0.027197
    59  H    0.039618
    60  H    0.037015
    61  H    0.036558
    62  H    0.032386
    63  H    0.016366
    64  H    0.009822
    65  H    0.023355
    66  H    0.012668
    67  H    0.005026
    68  H    0.006279
    69  H    0.005362
    70  H    0.007766
    71  H    0.017717
    72  H    0.029794
    73  H    0.048821
    74  H    0.009640
    75  H    0.046092
    76  H    0.035509
    77  H    0.044009
    78  H    0.045875
    79  H    0.052016
    80  Mg   0.837377
    81  C   -0.016389
    82  C   -0.088008
    83  C   -0.046302
    84  C   -0.065628
    85  N   -0.254995
    86  C   -0.047731
    87  C   -0.015434
    88  C   -0.091420
    89  C    0.046687
    90  C    0.114657
    91  C    0.062500
    92  C   -0.077256
    93  H    0.033355
    94  N   -0.423371
    95  C    0.162930
    96  C   -0.175733
    97  C   -0.008691
    98  C    0.152096
    99  C    0.100053
   100  C    0.014655
   101  O   -0.253754
   102  C    0.061520
   103  N   -0.350215
   104  C    0.037609
   105  C   -0.019810
   106  C   -0.034564
   107  C    0.089245
   108  C    0.073680
   109  C    0.034846
   110  C   -0.007537
   111  N   -0.324287
   112  C    0.079056
   113  C   -0.163558
   114  C    0.003058
   115  C    0.096043
   116  C    0.131324
   117  C    0.042766
   118  O   -0.187492
   119  C    0.000596
   120  C    0.210725
   121  O   -0.252121
   122  O   -0.304089
   123  C    0.152494
   124  H   -0.020736
   125  H   -0.016285
   126  H   -0.041433
   127  H    0.003354
   128  H   -0.006739
   129  H    0.035161
   130  H    0.011240
   131  H    0.015441
   132  H    0.012783
   133  H    0.037059
   134  H    0.022006
   135  H    0.018347
   136  H    0.008243
   137  H    0.023849
   138  H    0.039095
   139  H    0.036892
   140  H    0.035634
   141  H    0.033907
   142  H    0.013764
   143  H    0.011924
   144  H    0.024947
   145  H    0.012368
   146  H    0.006057
   147  H    0.005934
   148  H    0.003033
   149  H    0.010742
   150  H    0.017385
   151  H    0.030365
   152  H    0.045804
   153  H    0.007678
   154  H    0.046705
   155  H    0.040379
   156  H    0.044055
   157  H    0.049173
   158  H    0.052596
 Sum of Mulliken charges =  -0.00000

 Dipole moment (field-independent basis, Debye):
    X=             -5.0346    Y=             -1.8184    Z=             -6.7412  Tot=              8.6080
 Quadrupole moment (field-independent basis, Debye-Ang):
   XX=           -518.4552   YY=           -544.2423   ZZ=           -455.9219
   XY=             -0.0414   XZ=              1.1483   YZ=            -42.6976

 Normal termination of Gaussian 16 at Fri Sep  3 22:36:25 2021.
