 Gaussian 16, Revision A.03,
 Gaussian 16:  ES64L-G16RevA.03 25-Dec-2016

 -----------------------------------
 #p cam-b3lyp/Def2SVP td=(nstates=5)
 -----------------------------------

 --------------------------------
 TDDFT excited states in gaussian
 --------------------------------
 Symbolic Z-matrix:
 Charge =  0 Multiplicity = 1

                         Standard orientation:
 ---------------------------------------------------------------------
 Center     Atomic      Atomic             Coordinates (Angstroms)
 Number     Number       Type             X           Y           Z
 ---------------------------------------------------------------------
      1         12           0       -4.063960    0.548665   -0.136132
      2          6           0       -3.121259    3.995765   -0.338682
      3          6           0       -4.690589    0.677074   -3.487834
      4          6           0       -5.328103   -2.350144    0.099391
      5          6           0       -4.448976    1.008367    3.296957
      6          7           0       -3.887965    2.185734   -1.615887
      7          6           0       -3.457571    3.442861   -1.576356
      8          6           0       -3.325226    4.095160   -2.985030
      9          6           0       -4.361470    3.183344   -3.783021
     10          6           0       -4.283892    1.927035   -2.933554
     11          6           0       -5.791593    3.712509   -3.747854
     12          6           0       -1.878084    3.962517   -3.568053
     13          6           0       -1.578806    4.847721   -4.781396
     14          1           0       -0.245147    5.411747   -4.924837
     15          7           0       -4.427940   -0.807122   -1.526172
     16          6           0       -4.641949   -0.578404   -2.844191
     17          6           0       -4.866022   -1.905402   -3.457011
     18          6           0       -4.953052   -2.905722   -2.357066
     19          6           0       -4.932434   -2.046278   -1.201077
     20          6           0       -4.927012   -2.128560   -4.936954
     21          6           0       -5.051421   -4.398503   -2.349300
     22          8           0       -5.349748   -5.055002   -1.293561
     23          6           0       -4.874037   -5.075304   -3.646804
     24          7           0       -4.998874   -0.470040    1.427777
     25          6           0       -5.401622   -1.737211    1.282672
     26          6           0       -5.778673   -2.344697    2.601282
     27          6           0       -5.317120   -1.300140    3.717357
     28          6           0       -4.799883   -0.174705    2.787769
     29          6           0       -7.267712   -2.666814    2.788404
     30          6           0       -4.376669   -1.828829    4.829318
     31          6           0       -3.030534   -2.182445    4.237732
     32          7           0       -3.666443    2.139793    1.285606
     33          6           0       -3.925375    2.123175    2.663775
     34          6           0       -3.589514    3.461865    3.182596
     35          6           0       -3.171523    4.173923    2.060054
     36          6           0       -3.266736    3.341345    0.908515
     37          6           0       -3.743705    3.896821    4.528506
     38          6           0       -2.689984    5.452046    1.561677
     39          8           0       -2.328612    6.506675    2.085758
     40          6           0       -2.753838    5.425730   -0.029253
     41          6           0       -1.438117    5.941147   -0.545521
     42          8           0       -0.384746    5.295466   -0.369818
     43          8           0       -1.658382    6.982226   -1.362944
     44          6           0       -0.395405    7.522561   -1.933104
     45          1           0       -5.142322    0.662362   -4.481646
     46          1           0       -5.666694   -3.378171    0.244148
     47          1           0       -4.463518    1.199656    4.371503
     48          1           0       -3.634283    5.139474   -3.033163
     49          1           0       -4.023374    2.975896   -4.798096
     50          1           0       -5.885747    4.561418   -3.070795
     51          1           0       -6.401960    2.878782   -3.400227
     52          1           0       -6.144132    3.943094   -4.753500
     53          1           0       -1.762687    2.978808   -4.023094
     54          1           0       -1.132018    4.147086   -2.794331
     55          1           0       -2.336409    5.621853   -4.906557
     56          1           0       -1.665152    4.236420   -5.679759
     57          1           0       -4.997387   -1.187658   -5.481286
     58          1           0       -5.870309   -2.633481   -5.144210
     59          1           0       -4.097262   -2.738457   -5.294545
     60          1           0       -5.626205   -4.712604   -4.347690
     61          1           0       -4.888148   -6.143488   -3.433183
     62          1           0       -3.906274   -4.793451   -4.062669
     63          1           0       -5.259571   -3.289123    2.759459
     64          1           0       -6.164252   -0.882450    4.261946
     65          1           0       -7.462834   -3.712551    3.027288
     66          1           0       -7.793637   -2.367995    1.882092
     67          1           0       -7.774559   -2.064291    3.541723
     68          1           0       -4.783136   -2.739221    5.268542
     69          1           0       -4.219222   -1.112968    5.636167
     70          1           0       -3.190201   -3.189495    3.854080
     71          1           0       -2.261769   -2.176632    5.011151
     72          1           0       -2.789335   -1.544251    3.387428
     73          1           0       -2.840098    4.454565    4.774239
     74          1           0       -3.884303    3.053037    5.203683
     75          1           0       -4.637461    4.514261    4.440045
     76          1           0       -3.586609    6.065249   -0.320167
     77          1           0       -0.359071    8.583312   -1.684667
     78          1           0       -0.390163    7.249607   -2.988506
     79          1           0        0.529559    7.171870   -1.473976
     80         12           0        3.461027   -1.943032    0.432083
     81          6           0        5.427030    1.059285    0.426269
     82          6           0        3.913137   -2.067743   -2.946476
     83          6           0        1.368735   -4.326563    0.339961
     84          6           0        2.235191   -0.968895    3.545613
     85          7           0        4.549775   -0.618203   -0.964961
     86          6           0        5.311079    0.458978   -0.844803
     87          6           0        6.050737    0.872184   -2.145474
     88          6           0        5.062117    0.190004   -3.211371
     89          6           0        4.493562   -0.926376   -2.337803
     90          6           0        3.917171    1.094853   -3.635248
     91          6           0        7.494873    0.264535   -2.230616
     92          6           0        8.385014    0.871705   -3.317253
     93          1           0        9.812943    1.015458   -3.047410
     94          7           0        3.133874   -3.311336   -0.967669
     95          6           0        3.398405   -3.205372   -2.286783
     96          6           0        2.955684   -4.472470   -2.888951
     97          6           0        2.257477   -5.269666   -1.844096
     98          6           0        2.206923   -4.303443   -0.765238
     99          6           0        3.276879   -4.856924   -4.304035
    100          6           0        1.712605   -6.665707   -1.824100
    101          8           0        0.933637   -7.071177   -0.890488
    102          6           0        2.042414   -7.514767   -2.978147
    103          7           0        1.854884   -2.457055    1.647980
    104          6           0        1.141257   -3.572717    1.415735
    105          6           0        0.219568   -3.881168    2.571487
    106          6           0        0.639676   -2.870549    3.737564
    107          6           0        1.719245   -2.056973    2.990577
    108          6           0       -1.275292   -3.736601    2.287132
    109          6           0        1.003956   -3.494723    5.112482
    110          6           0        2.283622   -4.290990    4.995013
    111          7           0        3.889558   -0.369735    1.849528
    112          6           0        3.239806   -0.130134    3.080184
    113          6           0        3.802347    1.118736    3.633608
    114          6           0        4.731302    1.534641    2.667918
    115          6           0        4.732088    0.621042    1.579417
    116          6           0        3.407620    1.740887    4.851489
    117          6           0        5.703758    2.544506    2.316921
    118          8           0        6.192379    3.516756    2.891128
    119          6           0        6.106458    2.349815    0.791691
    120          6           0        7.606686    2.403078    0.696938
    121          8           0        8.305282    1.522694    1.229386
    122          8           0        7.958952    3.356772   -0.184395
    123          6           0        9.437502    3.440370   -0.321176
    124          1           0        3.801971   -2.077258   -4.031113
    125          1           0        0.704126   -5.190806    0.409690
    126          1           0        1.975926   -0.650843    4.557687
    127          1           0        6.103712    1.940434   -2.318115
    128          1           0        5.612836   -0.225897   -4.051072
    129          1           0        3.890324    2.007575   -3.058735
    130          1           0        3.013942    0.520378   -3.476487
    131          1           0        3.966944    1.287057   -4.710850
    132          1           0        7.427941   -0.767720   -2.597643
    133          1           0        7.990625    0.325885   -1.281357
    134          1           0        7.972451    1.807901   -3.712577
    135          1           0        8.391682    0.197540   -4.177173
    136          1           0        3.657452   -4.002099   -4.876606
    137          1           0        2.328120   -5.108725   -4.790176
    138          1           0        3.944913   -5.718702   -4.365102
    139          1           0        1.680119   -7.043317   -3.888602
    140          1           0        1.639799   -8.501151   -2.739782
    141          1           0        3.132794   -7.575455   -3.067578
    142          1           0        0.361602   -4.897157    2.918893
    143          1           0       -0.171433   -2.168277    3.979945
    144          1           0       -1.848799   -4.661702    2.485549
    145          1           0       -1.398542   -3.426130    1.258077
    146          1           0       -1.773585   -2.936066    2.831233
    147          1           0        0.228618   -4.197832    5.426549
    148          1           0        1.113519   -2.761297    5.904369
    149          1           0        1.939928   -5.254641    4.607288
    150          1           0        2.755799   -4.403116    5.968939
    151          1           0        2.952089   -3.853205    4.244589
    152          1           0        4.315669    2.051016    5.351257
    153          1           0        2.822463    1.065105    5.471729
    154          1           0        2.805382    2.566313    4.462587
    155          1           0        5.631643    3.150109    0.222777
    156          1           0        9.719868    4.476333   -0.109625
    157          1           0        9.666500    3.052132   -1.331409
    158          1           0       10.038999    2.904915    0.404045
 ---------------------------------------------------------------------

 SCF Done:  E(RCAM-B3LYP) =  -4069.79884819     A.U. after   19 cycles

 Excitation energies and oscillator strengths:

 Excited State   1:      Singlet-A      1.6363 eV  757.69 nm  f=0.0025  <S**2>=0.000
     309 -> 315       -0.10972
     310 -> 316        0.12189
     311 -> 313        0.45909
     312 -> 314        0.51259
 This state for optimization and/or second-order correction.
 Total Energy, E(TD-HF/TD-DFT) =  -4069.73871396
 Copying the excited state density for this state as the 1-particle RhoCI density.

 Excited State   2:      Singlet-A      1.7112 eV  724.55 nm  f=0.6753  <S**2>=0.000
     309 -> 315       -0.13709
     310 -> 316       -0.12205
     311 -> 313        0.50905
     312 -> 314       -0.45602

 Excited State   3:      Singlet-A      2.1780 eV  569.25 nm  f=0.0264  <S**2>=0.000
     309 -> 313       -0.31805
     310 -> 314        0.56284
     311 -> 315       -0.12939
     312 -> 316       -0.23099

 Excited State   4:      Singlet-A      2.1986 eV  563.91 nm  f=0.1469  <S**2>=0.000
     309 -> 313        0.55598
     310 -> 314        0.31169
     311 -> 315        0.24710
     312 -> 316       -0.14139

 Excited State   5:      Singlet-A      2.2141 eV  559.98 nm  f=0.0001  <S**2>=0.000
     312 -> 313        0.70639

 The electronic state is 1-A.
 Alpha  occ. eigenvalues --  -46.87919 -46.87326 -19.26333 -19.26075 -19.19070
 Alpha  occ. eigenvalues --  -19.18872 -19.18809 -19.18438 -19.18231 -19.17672
 Alpha  occ. eigenvalues --  -14.42575 -14.42173 -14.41610 -14.41012 -14.39510
 Alpha  occ. eigenvalues --  -14.39027 -14.38704 -14.38247 -10.39135 -10.38792
 Alpha  occ. eigenvalues --  -10.35441 -10.35123 -10.34454 -10.33848 -10.31719
 Alpha  occ. eigenvalues --  -10.31539 -10.31526 -10.31014 -10.30980 -10.30716
 Alpha  occ. eigenvalues --  -10.30700 -10.30629 -10.30375 -10.30089 -10.30052
 Alpha  occ. eigenvalues --  -10.30025 -10.29827 -10.29737 -10.29501 -10.29361
 Alpha  occ. eigenvalues --  -10.29112 -10.29080 -10.28874 -10.28706 -10.28473
 Alpha  occ. eigenvalues --  -10.28460 -10.28447 -10.28244 -10.28062 -10.27886
 Alpha  occ. eigenvalues --  -10.27871 -10.27857 -10.27774 -10.27683 -10.27679
 Alpha  occ. eigenvalues --  -10.27650 -10.27584 -10.27516 -10.27365 -10.27295
 Alpha  occ. eigenvalues --  -10.27233 -10.27157 -10.27147 -10.27143 -10.26874
 Alpha  occ. eigenvalues --  -10.26855 -10.26677 -10.26512 -10.26465 -10.26362
 Alpha  occ. eigenvalues --  -10.26348 -10.26240 -10.26191 -10.25957 -10.25949
 Alpha  occ. eigenvalues --  -10.25753 -10.25606 -10.25603 -10.25418 -10.25271
 Alpha  occ. eigenvalues --  -10.24926 -10.24922 -10.24536 -10.24506 -10.24313
 Alpha  occ. eigenvalues --  -10.24180  -3.16661  -3.16076  -1.91543  -1.91130
 Alpha  occ. eigenvalues --   -1.90971  -1.90958  -1.90547  -1.90383  -1.16683
 Alpha  occ. eigenvalues --   -1.16365  -1.08686  -1.08277  -1.07199  -1.06693
 Alpha  occ. eigenvalues --   -1.06692  -1.06654  -1.04702  -1.04170  -1.03905
 Alpha  occ. eigenvalues --   -1.03355  -1.03329  -1.02690  -1.02539  -1.01760
 Alpha  occ. eigenvalues --   -0.92079  -0.91638  -0.89800  -0.89320  -0.89177
 Alpha  occ. eigenvalues --   -0.88875  -0.88534  -0.87976  -0.87859  -0.87810
 Alpha  occ. eigenvalues --   -0.87417  -0.87360  -0.87347  -0.86859  -0.85116
 Alpha  occ. eigenvalues --   -0.84719  -0.84321  -0.83510  -0.83078  -0.82758
 Alpha  occ. eigenvalues --   -0.82665  -0.82368  -0.81691  -0.81291  -0.80708
 Alpha  occ. eigenvalues --   -0.80137  -0.78899  -0.78337  -0.77505  -0.77116
 Alpha  occ. eigenvalues --   -0.76849  -0.76589  -0.76056  -0.75545  -0.75200
 Alpha  occ. eigenvalues --   -0.74408  -0.72939  -0.72368  -0.71811  -0.71391
 Alpha  occ. eigenvalues --   -0.70469  -0.69303  -0.68985  -0.68540  -0.67748
 Alpha  occ. eigenvalues --   -0.67333  -0.67263  -0.66945  -0.65459  -0.65080
 Alpha  occ. eigenvalues --   -0.64965  -0.64826  -0.64546  -0.64432  -0.64320
 Alpha  occ. eigenvalues --   -0.63795  -0.62411  -0.61963  -0.60558  -0.60035
 Alpha  occ. eigenvalues --   -0.59924  -0.59498  -0.59132  -0.58661  -0.58629
 Alpha  occ. eigenvalues --   -0.58093  -0.57683  -0.57474  -0.57209  -0.56906
 Alpha  occ. eigenvalues --   -0.56423  -0.56071  -0.55903  -0.55675  -0.55599
 Alpha  occ. eigenvalues --   -0.55531  -0.55169  -0.54961  -0.54703  -0.54239
 Alpha  occ. eigenvalues --   -0.54025  -0.53642  -0.53435  -0.53304  -0.53142
 Alpha  occ. eigenvalues --   -0.52935  -0.52882  -0.52830  -0.52740  -0.52615
 Alpha  occ. eigenvalues --   -0.52440  -0.52171  -0.52022  -0.51716  -0.51480
 Alpha  occ. eigenvalues --   -0.51394  -0.51374  -0.50879  -0.50697  -0.50359
 Alpha  occ. eigenvalues --   -0.50263  -0.50050  -0.49829  -0.49673  -0.49576
 Alpha  occ. eigenvalues --   -0.49292  -0.49235  -0.49198  -0.48911  -0.48872
 Alpha  occ. eigenvalues --   -0.48696  -0.48617  -0.48487  -0.48367  -0.48218
 Alpha  occ. eigenvalues --   -0.48054  -0.47713  -0.47411  -0.47329  -0.47202
 Alpha  occ. eigenvalues --   -0.46757  -0.46690  -0.46569  -0.46407  -0.46333
 Alpha  occ. eigenvalues --   -0.46276  -0.45940  -0.45918  -0.45738  -0.45520
 Alpha  occ. eigenvalues --   -0.45425  -0.45007  -0.44646  -0.44499  -0.44340
 Alpha  occ. eigenvalues --   -0.44227  -0.44195  -0.44096  -0.44005  -0.43826
 Alpha  occ. eigenvalues --   -0.43766  -0.43642  -0.43597  -0.43525  -0.43263
 Alpha  occ. eigenvalues --   -0.43202  -0.43056  -0.42951  -0.42755  -0.42622
 Alpha  occ. eigenvalues --   -0.42507  -0.42341  -0.42146  -0.41782  -0.41676
 Alpha  occ. eigenvalues --   -0.41647  -0.41370  -0.41256  -0.41178  -0.40971
 Alpha  occ. eigenvalues --   -0.40864  -0.40676  -0.40631  -0.40455  -0.40427
 Alpha  occ. eigenvalues --   -0.40341  -0.40200  -0.39987  -0.39563  -0.39053
 Alpha  occ. eigenvalues --   -0.38567  -0.37911  -0.37872  -0.37514  -0.37384
 Alpha  occ. eigenvalues --   -0.37373  -0.36912  -0.36875  -0.36671  -0.36408
 Alpha  occ. eigenvalues --   -0.36248  -0.35760  -0.34411  -0.33889  -0.33832
 Alpha  occ. eigenvalues --   -0.33562  -0.33305  -0.32840  -0.31353  -0.31146
 Alpha  occ. eigenvalues --   -0.30991  -0.30623  -0.30092  -0.29577  -0.29530
 Alpha  occ. eigenvalues --   -0.29415  -0.29022  -0.28838  -0.24210  -0.23695
 Alpha  occ. eigenvalues --   -0.21258  -0.20773
 Alpha virt. eigenvalues --   -0.08882  -0.08460  -0.01881  -0.01339  -0.00116
 Alpha virt. eigenvalues --    0.00267   0.02093   0.02484   0.02668   0.03670
 Alpha virt. eigenvalues --    0.04570   0.05035   0.05063   0.05469   0.06003

 Mulliken charges:
               1
     1  Mg   0.837735
     2  C   -0.002251
     3  C   -0.094368
     4  C   -0.047359
     5  C   -0.064585
     6  N   -0.256423
     7  C   -0.052803
     8  C   -0.013862
     9  C   -0.087060
    10  C    0.046485
    11  C    0.104763
    12  C    0.053707
    13  C   -0.071428
    14  H    0.035154
    15  N   -0.433819
    16  C    0.169497
    17  C   -0.177341
    18  C   -0.002712
    19  C    0.150921
    20  C    0.110408
    21  C    0.015429
    22  O   -0.247839
    23  C    0.061969
    24  N   -0.340843
    25  C    0.041577
    26  C   -0.029987
    27  C   -0.024823
    28  C    0.071261
    29  C    0.076432
    30  C    0.098795
    31  C   -0.082017
    32  N   -0.310411
    33  C    0.078615
    34  C   -0.169907
    35  C    0.008378
    36  C    0.083420
    37  C    0.127280
    38  C    0.046510
    39  O   -0.187378
    40  C   -0.005663
    41  C    0.213143
    42  O   -0.256701
    43  O   -0.304911
    44  C    0.157307
    45  H   -0.017479
    46  H   -0.016304
    47  H   -0.042336
    48  H    0.001295
    49  H   -0.004413
    50  H    0.025804
    51  H    0.016623
    52  H    0.016765
    53  H    0.010382
    54  H    0.044202
    55  H    0.018501
    56  H    0.017308
    57  H    0.005386
    58  H    0.027285
    59  H    0.039206
    60  H    0.036167
    61  H    0.037847
    62  H    0.031692
    63  H    0.016658
    64  H    0.010972
    65  H    0.023823
    66  H    0.013491
    67  H    0.005060
    68  H    0.004676
    69  H   -0.003932
    70  H    0.022406
    71  H    0.034052
    72  H    0.070750
    73  H    0.047913
    74  H    0.008125
    75  H    0.046468
    76  H    0.035365
    77  H    0.043713
    78  H    0.045623
    79  H    0.054449
    80  Mg   0.837338
    81  C   -0.015695
    82  C   -0.088852
    83  C   -0.048355
    84  C   -0.062612
    85  N   -0.254467
    86  C   -0.048654
    87  C   -0.015062
    88  C   -0.090803
    89  C    0.046078
    90  C    0.114447
    91  C    0.062679
    92  C   -0.077260
    93  H    0.034090
    94  N   -0.423308
    95  C    0.162778
    96  C   -0.176663
    97  C   -0.008306
    98  C    0.151165
    99  C    0.100410
   100  C    0.014218
   101  O   -0.252134
   102  C    0.061698
   103  N   -0.350464
   104  C    0.041333
   105  C   -0.035222
   106  C   -0.025971
   107  C    0.083106
   108  C    0.153496
   109  C    0.033491
   110  C   -0.004669
   111  N   -0.324939
   112  C    0.079807
   113  C   -0.160597
   114  C    0.004317
   115  C    0.096669
   116  C    0.130221
   117  C    0.044436
   118  O   -0.187352
   119  C    0.000049
   120  C    0.210820
   121  O   -0.251738
   122  O   -0.305355
   123  C    0.152310
   124  H   -0.021935
   125  H   -0.014109
   126  H   -0.041599
   127  H   -0.000586
   128  H   -0.005724
   129  H    0.025665
   130  H    0.013954
   131  H    0.013365
   132  H    0.013541
   133  H    0.037655
   134  H    0.020355
   135  H    0.018832
   136  H    0.007679
   137  H    0.023075
   138  H    0.039010
   139  H    0.036112
   140  H    0.035962
   141  H    0.033566
   142  H    0.010518
   143  H    0.007563
   144  H    0.025993
   145  H   -0.000851
   146  H   -0.088192
   147  H    0.004561
   148  H    0.001356
   149  H    0.010906
   150  H    0.016700
   151  H    0.030406
   152  H    0.044960
   153  H    0.006371
   154  H    0.053104
   155  H    0.037981
   156  H    0.043543
   157  H    0.048793
   158  H    0.053153
 Sum of Mulliken charges =  -0.00000

 Dipole moment (field-independent basis, Debye):
    X=             -3.7267    Y=             -1.4764    Z=             -7.8519  Tot=              8.8159
 Quadrupole moment (field-independent basis, Debye-Ang):
   XX=           -509.7155   YY=           -553.0833   ZZ=           -447.5921
   XY=            -15.9922   XZ=            -31.5821   YZ=            -25.3669

 Normal termination of Gaussian 16 at Thu Sep  9 00:03:16 2021.
