 Gaussian 16, Revision A.03,
 Gaussian 16:  ES64L-G16RevA.03 25-Dec-2016

 -----------------------------------
 #p cam-b3lyp/Def2SVP td=(nstates=5)
 -----------------------------------

 --------------------------------
 TDDFT excited states in gaussian
 --------------------------------
 Symbolic Z-matrix:
 Charge =  0 Multiplicity = 1

                         Standard orientation:
 ---------------------------------------------------------------------
 Center     Atomic      Atomic             Coordinates (Angstroms)
 Number     Number       Type             X           Y           Z
 ---------------------------------------------------------------------
      1         12           0       -6.444800   -1.062782    0.122912
      2          6           0       -7.228063    2.429635    0.164609
      3          6           0       -7.375421   -1.080314   -3.159877
      4          6           0       -6.195404   -4.223632    0.181646
      5          6           0       -6.670214   -1.004151    3.600183
      6          7           0       -7.187901    0.535702   -1.216228
      7          6           0       -7.386431    1.844411   -1.093595
      8          6           0       -7.705611    2.550224   -2.445381
      9          6           0       -8.273011    1.299219   -3.254727
     10          6           0       -7.542547    0.185993   -2.524609
     11          6           0       -9.775017    1.094566   -3.085619
     12          6           0       -6.424190    3.139252   -3.125628
     13          6           0       -6.685410    4.119239   -4.273123
     14          1           0       -5.784523    5.248398   -4.448483
     15          7           0       -6.270577   -2.361884   -1.355205
     16          6           0       -6.690429   -2.196371   -2.632552
     17          6           0       -6.332264   -3.442271   -3.343982
     18          6           0       -5.841495   -4.418908   -2.332339
     19          6           0       -6.110982   -3.707138   -1.109172
     20          6           0       -6.423578   -3.595887   -4.831199
     21          6           0       -5.236784   -5.782308   -2.448941
     22          8           0       -5.095538   -6.552435   -1.438233
     23          6           0       -4.890745   -6.233348   -3.809037
     24          7           0       -6.648714   -2.475251    1.646389
     25          6           0       -6.431213   -3.774749    1.416209
     26          6           0       -6.357021   -4.551262    2.697405
     27          6           0       -6.327311   -3.467738    3.869943
     28          6           0       -6.480571   -2.187508    3.012160
     29          6           0       -7.502631   -5.541895    2.946875
     30          6           0       -5.147983   -3.547669    4.871549
     31          6           0       -3.854166   -3.200477    4.169699
     32          7           0       -6.695336    0.458111    1.651036
     33          6           0       -6.784748    0.255300    3.035791
     34          6           0       -7.058736    1.568431    3.647907
     35          6           0       -7.126571    2.446858    2.568273
     36          6           0       -6.934840    1.723637    1.356464
     37          6           0       -7.267830    1.814625    5.033585
     38          6           0       -7.340914    3.824147    2.154764
     39          8           0       -7.460489    4.898367    2.745735
     40          6           0       -7.536387    3.848233    0.574563
     41          6           0       -6.664293    4.944200    0.025366
     42          8           0       -5.420386    4.859379    0.078909
     43          8           0       -7.417891    5.799166   -0.682917
     44          6           0       -6.608942    6.895029   -1.280278
     45          1           0       -7.861329   -1.256628   -4.121515
     46          1           0       -6.004424   -5.296173    0.256611
     47          1           0       -6.669300   -0.894351    4.686183
     48          1           0       -8.465775    3.329125   -2.383032
     49          1           0       -7.975608    1.323810   -4.302901
     50          1           0      -10.186358    1.766533   -2.332505
     51          1           0       -9.894179    0.056310   -2.775266
     52          1           0      -10.288115    1.181687   -4.043699
     53          1           0       -5.910634    2.347538   -3.671073
     54          1           0       -5.778384    3.613945   -2.386083
     55          1           0       -7.723248    4.453449   -4.283380
     56          1           0       -6.564154    3.583098   -5.214425
     57          1           0       -6.972730   -2.772353   -5.285917
     58          1           0       -7.041110   -4.473060   -5.023369
     59          1           0       -5.444068   -3.727988   -5.291025
     60          1           0       -5.788209   -6.231625   -4.427992
     61          1           0       -4.388635   -7.192692   -3.689060
     62          1           0       -4.207727   -5.511270   -4.257409
     63          1           0       -5.447469   -5.149009    2.740280
     64          1           0       -7.215420   -3.522421    4.499980
     65          1           0       -7.168046   -6.567437    3.105061
     66          1           0       -8.190671   -5.480602    2.104180
     67          1           0       -8.156469   -5.284276    3.779668
     68          1           0       -5.043239   -4.562510    5.253743
     69          1           0       -5.263654   -2.881543    5.726621
     70          1           0       -3.565461   -4.145071    3.710109
     71          1           0       -3.105675   -2.872839    4.891935
     72          1           0       -4.017750   -2.483224    3.365165
     73          1           0       -6.706060    2.717944    5.271066
     74          1           0       -6.937116    0.971612    5.639853
     75          1           0       -8.349684    1.945051    5.054505
     76          1           0       -8.593965    4.036524    0.392366
     77          1           0       -7.044065    7.835799   -0.942856
     78          1           0       -6.578447    6.707899   -2.353803
     79          1           0       -5.587733    6.996560   -0.911274
     80         12           0        6.613228    1.097227   -0.054249
     81          6           0        6.986980   -2.452258   -0.429142
     82          6           0        5.865631    0.521843    3.223658
     83          6           0        5.838169    4.163148    0.204210
     84          6           0        6.262174    1.286024   -3.516447
     85          7           0        6.476784   -0.767829    1.126956
     86          6           0        6.700314   -2.052150    0.892667
     87          6           0        6.690725   -2.948329    2.160075
     88          6           0        5.780229   -2.020983    3.103428
     89          6           0        6.081133   -0.662228    2.474223
     90          6           0        4.292229   -2.294484    2.960602
     91          6           0        8.125841   -3.146907    2.762590
     92          6           0        8.234820   -4.254721    3.812655
     93          1           0        9.462660   -5.043292    3.867621
     94          7           0        6.429552    2.244221    1.554865
     95          6           0        6.145927    1.843283    2.811878
     96          6           0        6.101021    3.068731    3.624543
     97          6           0        6.218328    4.239987    2.713988
     98          6           0        6.144031    3.580736    1.425596
     99          6           0        6.038570    3.048723    5.124256
    100          6           0        6.359490    5.711331    2.961805
    101          8           0        6.204889    6.570163    2.023008
    102          6           0        6.591649    6.122333    4.354166
    103          7           0        5.911018    2.494377   -1.424356
    104          6           0        5.704541    3.773106   -1.063590
    105          6           0        5.467043    4.648883   -2.270656
    106          6           0        5.798125    3.732051   -3.538484
    107          6           0        6.096802    2.399878   -2.816327
    108          6           0        4.056312    5.220363   -2.410696
    109          6           0        6.846205    4.277339   -4.546874
    110          6           0        8.212181    4.317446   -3.900429
    111          7           0        6.801228   -0.273509   -1.713709
    112          6           0        6.585724    0.007416   -3.080719
    113          6           0        6.721563   -1.267867   -3.813944
    114          6           0        6.986022   -2.213743   -2.812008
    115          6           0        6.993095   -1.576615   -1.541769
    116          6           0        6.553265   -1.443071   -5.216476
    117          6           0        7.250293   -3.608143   -2.539023
    118          8           0        7.448432   -4.606311   -3.230484
    119          6           0        7.137403   -3.846435   -0.971583
    120          6           0        8.336787   -4.642405   -0.535204
    121          8           0        9.478939   -4.155822   -0.608250
    122          8           0        7.920995   -5.755995    0.095196
    123          6           0        9.074778   -6.573122    0.556633
    124          1           0        5.398332    0.436817    4.205127
    125          1           0        5.671767    5.242667    0.225097
    126          1           0        6.263914    1.277785   -4.608505
    127          1           0        6.223370   -3.916804    2.028089
    128          1           0        6.123765   -2.048308    4.134253
    129          1           0        4.085154   -2.987832    2.159028
    130          1           0        3.834837   -1.334827    2.758381
    131          1           0        3.877464   -2.630872    3.915131
    132          1           0        8.378057   -2.276095    3.381308
    133          1           0        8.845717   -3.313907    1.985086
    134          1           0        7.356174   -4.911177    3.811979
    135          1           0        8.225348   -3.795286    4.804047
    136          1           0        5.795949    2.048346    5.503441
    137          1           0        5.181784    3.665281    5.416865
    138          1           0        6.940276    3.453422    5.588819
    139          1           0        5.771763    5.770736    4.975974
    140          1           0        6.754846    7.201164    4.317074
    141          1           0        7.498199    5.626523    4.718777
    142          1           0        6.136404    5.500386   -2.268361
    143          1           0        4.907395    3.559571   -4.160322
    144          1           0        4.036726    6.324995   -2.469670
    145          1           0        3.463055    4.873606   -1.575019
    146          1           0        3.490964    4.850763   -3.264496
    147          1           0        6.604318    5.305974   -4.825388
    148          1           0        6.904134    3.700541   -5.463903
    149          1           0        8.196681    5.262423   -3.349191
    150          1           0        8.994255    4.314605   -4.656996
    151          1           0        8.324580    3.510086   -3.167493
    152          1           0        7.356108   -2.087944   -5.548236
    153          1           0        6.565705   -0.489687   -5.740567
    154          1           0        5.565008   -1.910162   -5.237475
    155          1           0        6.203574   -4.379070   -0.787610
    156          1           0        8.946969   -7.574170    0.133249
    157          1           0        9.078016   -6.489389    1.659688
    158          1           0       10.057179   -6.309256    0.182851
 ---------------------------------------------------------------------

 SCF Done:  E(RCAM-B3LYP) =  -4069.81176941     A.U. after   19 cycles

 Excitation energies and oscillator strengths:

 Excited State   1:      Singlet-A      1.6657 eV  744.32 nm  f=0.0096  <S**2>=0.000
     309 -> 315        0.10889
     310 -> 316        0.13258
     311 -> 313        0.43480
     312 -> 314        0.53142
 This state for optimization and/or second-order correction.
 Total Energy, E(TD-HF/TD-DFT) =  -4069.75055486
 Copying the excited state density for this state as the 1-particle RhoCI density.

 Excited State   2:      Singlet-A      1.6897 eV  733.78 nm  f=0.7341  <S**2>=0.000
     309 -> 315        0.13781
     310 -> 316       -0.11228
     311 -> 313        0.53021
     312 -> 314       -0.43388

 Excited State   3:      Singlet-A      2.1853 eV  567.34 nm  f=0.0387  <S**2>=0.000
     309 -> 313        0.20626
     310 -> 314        0.60929
     312 -> 316       -0.25771

 Excited State   4:      Singlet-A      2.1940 eV  565.12 nm  f=0.1497  <S**2>=0.000
     309 -> 313        0.60665
     310 -> 314       -0.20448
     311 -> 315       -0.26454

 Excited State   5:      Singlet-A      2.6510 eV  467.68 nm  f=0.0000  <S**2>=0.000
     312 -> 313        0.70710

 The electronic state is 1-A.
 Alpha  occ. eigenvalues --  -46.87852 -46.87553 -19.26318 -19.26276 -19.19085
 Alpha  occ. eigenvalues --  -19.19058 -19.18844 -19.18588 -19.18217 -19.17963
 Alpha  occ. eigenvalues --  -14.42503 -14.42390 -14.41509 -14.41251 -14.39455
 Alpha  occ. eigenvalues --  -14.39242 -14.38643 -14.38497 -10.39118 -10.39012
 Alpha  occ. eigenvalues --  -10.35475 -10.35264 -10.34437 -10.34141 -10.31706
 Alpha  occ. eigenvalues --  -10.31692 -10.31459 -10.31210 -10.30954 -10.30911
 Alpha  occ. eigenvalues --  -10.30625 -10.30564 -10.30294 -10.30267 -10.30262
 Alpha  occ. eigenvalues --  -10.30029 -10.29986 -10.29790 -10.29682 -10.29324
 Alpha  occ. eigenvalues --  -10.29306 -10.29298 -10.28791 -10.28620 -10.28579
 Alpha  occ. eigenvalues --  -10.28575 -10.28413 -10.28296 -10.28159 -10.28037
 Alpha  occ. eigenvalues --  -10.27898 -10.27844 -10.27779 -10.27631 -10.27588
 Alpha  occ. eigenvalues --  -10.27561 -10.27528 -10.27507 -10.27455 -10.27418
 Alpha  occ. eigenvalues --  -10.27378 -10.27358 -10.27340 -10.27261 -10.27203
 Alpha  occ. eigenvalues --  -10.26959 -10.26746 -10.26606 -10.26409 -10.26306
 Alpha  occ. eigenvalues --  -10.26278 -10.26273 -10.26083 -10.26061 -10.25915
 Alpha  occ. eigenvalues --  -10.25907 -10.25834 -10.25793 -10.25505 -10.25247
 Alpha  occ. eigenvalues --  -10.24884 -10.24844 -10.24837 -10.24773 -10.24658
 Alpha  occ. eigenvalues --  -10.24577  -3.16595  -3.16303  -1.91477  -1.91185
 Alpha  occ. eigenvalues --   -1.91063  -1.90905  -1.90773  -1.90610  -1.16668
 Alpha  occ. eigenvalues --   -1.16569  -1.08675  -1.08573  -1.07244  -1.06869
 Alpha  occ. eigenvalues --   -1.06838  -1.06680  -1.04633  -1.04389  -1.03818
 Alpha  occ. eigenvalues --   -1.03556  -1.03289  -1.02932  -1.02467  -1.02005
 Alpha  occ. eigenvalues --   -0.92023  -0.91887  -0.89597  -0.89395  -0.89233
 Alpha  occ. eigenvalues --   -0.89050  -0.88362  -0.88115  -0.87929  -0.87726
 Alpha  occ. eigenvalues --   -0.87706  -0.87580  -0.87311  -0.87003  -0.85028
 Alpha  occ. eigenvalues --   -0.84899  -0.84019  -0.83774  -0.83005  -0.82812
 Alpha  occ. eigenvalues --   -0.82691  -0.82547  -0.81632  -0.81509  -0.80643
 Alpha  occ. eigenvalues --   -0.80344  -0.78842  -0.78528  -0.77279  -0.77045
 Alpha  occ. eigenvalues --   -0.76987  -0.76802  -0.75970  -0.75741  -0.74964
 Alpha  occ. eigenvalues --   -0.74691  -0.72832  -0.72599  -0.71726  -0.71472
 Alpha  occ. eigenvalues --   -0.70003  -0.69663  -0.68919  -0.68727  -0.67690
 Alpha  occ. eigenvalues --   -0.67498  -0.67259  -0.67099  -0.65336  -0.65174
 Alpha  occ. eigenvalues --   -0.64908  -0.64676  -0.64671  -0.64557  -0.64341
 Alpha  occ. eigenvalues --   -0.64103  -0.62345  -0.62191  -0.60489  -0.60226
 Alpha  occ. eigenvalues --   -0.59851  -0.59695  -0.59044  -0.58890  -0.58558
 Alpha  occ. eigenvalues --   -0.58325  -0.57632  -0.57467  -0.57366  -0.57132
 Alpha  occ. eigenvalues --   -0.56359  -0.56107  -0.56019  -0.55798  -0.55562
 Alpha  occ. eigenvalues --   -0.55408  -0.55349  -0.55151  -0.54586  -0.54395
 Alpha  occ. eigenvalues --   -0.53939  -0.53813  -0.53351  -0.53261  -0.53126
 Alpha  occ. eigenvalues --   -0.53040  -0.52966  -0.52807  -0.52790  -0.52549
 Alpha  occ. eigenvalues --   -0.52537  -0.52315  -0.51977  -0.51811  -0.51656
 Alpha  occ. eigenvalues --   -0.51557  -0.51255  -0.51109  -0.50601  -0.50353
 Alpha  occ. eigenvalues --   -0.50107  -0.49956  -0.49870  -0.49756  -0.49554
 Alpha  occ. eigenvalues --   -0.49379  -0.49260  -0.49141  -0.49101  -0.49008
 Alpha  occ. eigenvalues --   -0.48643  -0.48522  -0.48481  -0.48463  -0.48271
 Alpha  occ. eigenvalues --   -0.48222  -0.47744  -0.47490  -0.47344  -0.47006
 Alpha  occ. eigenvalues --   -0.46860  -0.46610  -0.46599  -0.46453  -0.46416
 Alpha  occ. eigenvalues --   -0.46222  -0.46168  -0.45988  -0.45875  -0.45737
 Alpha  occ. eigenvalues --   -0.45270  -0.45091  -0.44631  -0.44554  -0.44422
 Alpha  occ. eigenvalues --   -0.44376  -0.44209  -0.44134  -0.44060  -0.44027
 Alpha  occ. eigenvalues --   -0.43977  -0.43832  -0.43545  -0.43467  -0.43440
 Alpha  occ. eigenvalues --   -0.43284  -0.43083  -0.42844  -0.42806  -0.42765
 Alpha  occ. eigenvalues --   -0.42716  -0.42450  -0.42083  -0.41871  -0.41757
 Alpha  occ. eigenvalues --   -0.41582  -0.41571  -0.41361  -0.41193  -0.40929
 Alpha  occ. eigenvalues --   -0.40882  -0.40856  -0.40643  -0.40618  -0.40588
 Alpha  occ. eigenvalues --   -0.40392  -0.40274  -0.40128  -0.39545  -0.39333
 Alpha  occ. eigenvalues --   -0.38542  -0.38244  -0.37794  -0.37561  -0.37389
 Alpha  occ. eigenvalues --   -0.37310  -0.37165  -0.37098  -0.36763  -0.36688
 Alpha  occ. eigenvalues --   -0.36249  -0.36118  -0.34342  -0.34150  -0.33811
 Alpha  occ. eigenvalues --   -0.33780  -0.33241  -0.33071  -0.31375  -0.31148
 Alpha  occ. eigenvalues --   -0.31088  -0.30865  -0.30077  -0.29869  -0.29496
 Alpha  occ. eigenvalues --   -0.29374  -0.29217  -0.29111  -0.24136  -0.23930
 Alpha  occ. eigenvalues --   -0.21183  -0.21011
 Alpha virt. eigenvalues --   -0.08825  -0.08685  -0.01805  -0.01574  -0.00098
 Alpha virt. eigenvalues --    0.00086   0.02147   0.02303   0.03053   0.03323
 Alpha virt. eigenvalues --    0.04667   0.04834   0.05058   0.05245   0.06135

 Mulliken charges:
               1
     1  Mg   0.838550
     2  C   -0.002862
     3  C   -0.093960
     4  C   -0.045952
     5  C   -0.064158
     6  N   -0.256771
     7  C   -0.052519
     8  C   -0.013995
     9  C   -0.087021
    10  C    0.046332
    11  C    0.104772
    12  C    0.053444
    13  C   -0.071841
    14  H    0.036124
    15  N   -0.433213
    16  C    0.168459
    17  C   -0.176926
    18  C   -0.003840
    19  C    0.148748
    20  C    0.110118
    21  C    0.012434
    22  O   -0.249596
    23  C    0.062377
    24  N   -0.341048
    25  C    0.041207
    26  C   -0.028225
    27  C   -0.023815
    28  C    0.074586
    29  C    0.076125
    30  C    0.035255
    31  C   -0.004384
    32  N   -0.310409
    33  C    0.080192
    34  C   -0.170060
    35  C    0.008383
    36  C    0.082846
    37  C    0.127393
    38  C    0.046046
    39  O   -0.188433
    40  C   -0.005324
    41  C    0.212906
    42  O   -0.257113
    43  O   -0.304793
    44  C    0.157593
    45  H   -0.017358
    46  H   -0.016792
    47  H   -0.041887
    48  H    0.001029
    49  H   -0.003902
    50  H    0.025518
    51  H    0.016465
    52  H    0.016831
    53  H    0.011163
    54  H    0.044102
    55  H    0.017980
    56  H    0.017994
    57  H    0.005941
    58  H    0.027070
    59  H    0.039993
    60  H    0.037391
    61  H    0.036188
    62  H    0.031872
    63  H    0.016345
    64  H    0.009505
    65  H    0.023247
    66  H    0.012809
    67  H    0.004753
    68  H    0.006211
    69  H    0.004447
    70  H    0.008767
    71  H    0.016704
    72  H    0.029310
    73  H    0.047311
    74  H    0.008667
    75  H    0.046112
    76  H    0.035241
    77  H    0.043078
    78  H    0.046406
    79  H    0.053852
    80  Mg   0.837985
    81  C   -0.016879
    82  C   -0.087593
    83  C   -0.044914
    84  C   -0.064961
    85  N   -0.254563
    86  C   -0.049908
    87  C   -0.015114
    88  C   -0.090553
    89  C    0.045843
    90  C    0.114285
    91  C    0.062557
    92  C   -0.077775
    93  H    0.034559
    94  N   -0.423660
    95  C    0.163133
    96  C   -0.174009
    97  C   -0.007349
    98  C    0.152256
    99  C    0.099104
   100  C    0.015961
   101  O   -0.252863
   102  C    0.061132
   103  N   -0.349981
   104  C    0.037799
   105  C   -0.020024
   106  C   -0.034550
   107  C    0.088837
   108  C    0.073364
   109  C    0.034788
   110  C   -0.007598
   111  N   -0.323984
   112  C    0.078318
   113  C   -0.163534
   114  C    0.002075
   115  C    0.096073
   116  C    0.131550
   117  C    0.042091
   118  O   -0.188469
   119  C    0.000997
   120  C    0.211155
   121  O   -0.251162
   122  O   -0.305555
   123  C    0.152121
   124  H   -0.019392
   125  H   -0.015145
   126  H   -0.041043
   127  H   -0.000671
   128  H   -0.004518
   129  H    0.022633
   130  H    0.015135
   131  H    0.016047
   132  H    0.013857
   133  H    0.037547
   134  H    0.020790
   135  H    0.019510
   136  H    0.008688
   137  H    0.027112
   138  H    0.039632
   139  H    0.038873
   140  H    0.036460
   141  H    0.033507
   142  H    0.014211
   143  H    0.012061
   144  H    0.025098
   145  H    0.013388
   146  H    0.005435
   147  H    0.006047
   148  H    0.003155
   149  H    0.010975
   150  H    0.017551
   151  H    0.030204
   152  H    0.045662
   153  H    0.008155
   154  H    0.046328
   155  H    0.035080
   156  H    0.043748
   157  H    0.049490
   158  H    0.053408
 Sum of Mulliken charges =  -0.00000

 Dipole moment (field-independent basis, Debye):
    X=             -3.9545    Y=             -1.0647    Z=              0.0856  Tot=              4.0962
 Quadrupole moment (field-independent basis, Debye-Ang):
   XX=           -522.5033   YY=           -549.1183   ZZ=           -447.7757
   XY=             21.8256   XZ=             62.2492   YZ=            -44.5404

 Normal termination of Gaussian 16 at Sat Sep  4 08:17:37 2021.
