 Gaussian 16, Revision A.03,
 Gaussian 16:  ES64L-G16RevA.03 25-Dec-2016

 -----------------------------------
 #p cam-b3lyp/Def2SVP td=(nstates=5)
 -----------------------------------

 --------------------------------
 TDDFT excited states in gaussian
 --------------------------------
 Symbolic Z-matrix:
 Charge =  0 Multiplicity = 1

                         Standard orientation:
 ---------------------------------------------------------------------
 Center     Atomic      Atomic             Coordinates (Angstroms)
 Number     Number       Type             X           Y           Z
 ---------------------------------------------------------------------
      1         12           0        4.776289    0.064937    0.158202
      2          6           0        4.571079   -3.230523   -1.223843
      3          6           0        5.705492    1.146123   -2.941908
      4          6           0        5.403008    2.891958    1.451181
      5          6           0        4.945703   -1.424724    3.304290
      6          7           0        5.064405   -1.002352   -1.759747
      7          6           0        4.895211   -2.255496   -2.169839
      8          6           0        5.020672   -2.422573   -3.713768
      9          6           0        5.916727   -1.143158   -4.033427
     10          6           0        5.513124   -0.265135   -2.862059
     11          6           0        7.415672   -1.413195   -3.951293
     12          6           0        3.632997   -2.344790   -4.434904
     13          6           0        3.625676   -2.819895   -5.890780
     14          1           0        2.451217   -3.515859   -6.394397
     15          7           0        4.978406    1.841522   -0.681883
     16          6           0        5.348216    2.095544   -1.960163
     17          6           0        5.351968    3.567801   -2.098459
     18          6           0        5.138856    4.152468   -0.745373
     19          6           0        5.191750    2.970591    0.076665
     20          6           0        5.495284    4.270339   -3.413621
     21          6           0        4.932415    5.555098   -0.267727
     22          8           0        4.998764    5.868869    0.969899
     23          6           0        4.735618    6.581005   -1.307837
     24          7           0        5.346136    0.653361    2.078271
     25          6           0        5.495528    1.945921    2.388037
     26          6           0        5.625676    2.140828    3.869594
     27          6           0        5.289340    0.727661    4.532609
     28          6           0        5.093241   -0.099607    3.238220
     29          6           0        6.996794    2.622786    4.363318
     30          6           0        4.168222    0.701481    5.601641
     31          6           0        2.835160    1.004212    4.954804
     32          7           0        4.586264   -1.946513    0.951302
     33          6           0        4.715427   -2.340262    2.291060
     34          6           0        4.613181   -3.810883    2.320888
     35          6           0        4.447152   -4.174036    0.985822
     36          6           0        4.472067   -3.006416    0.170754
     37          6           0        4.734254   -4.631398    3.476972
     38          6           0        4.279171   -5.278834    0.055737
     39          8           0        4.094168   -6.491022    0.173500
     40          6           0        4.474736   -4.722632   -1.423527
     41          6           0        3.340430   -5.248271   -2.260403
     42          8           0        2.167077   -4.877287   -2.053085
     43          8           0        3.836926   -5.913178   -3.314885
     44          6           0        2.763802   -6.435720   -4.202301
     45          1           0        6.229751    1.559317   -3.805832
     46          1           0        5.512901    3.856519    1.951164
     47          1           0        4.904942   -1.952425    4.258923
     48          1           0        5.537421   -3.328028   -4.032432
     49          1           0        5.633421   -0.672823   -4.974833
     50          1           0        7.620116   -2.409577   -3.559697
     51          1           0        7.812276   -0.651460   -3.279758
     52          1           0        7.893780   -1.240604   -4.915866
     53          1           0        3.361244   -1.299192   -4.579596
     54          1           0        2.875127   -2.892067   -3.873256
     55          1           0        4.532073   -3.375340   -6.133339
     56          1           0        3.664610   -1.942586   -6.536545
     57          1           0        5.801528    3.584658   -4.202672
     58          1           0        6.331450    4.962367   -3.315477
     59          1           0        4.593759    4.819332   -3.686003
     60          1           0        5.603709    6.596161   -1.967184
     61          1           0        4.514873    7.507302   -0.778598
     62          1           0        3.884783    6.296715   -1.927682
     63          1           0        4.914637    2.882926    4.230344
     64          1           0        6.152680    0.299096    5.042168
     65          1           0        6.954957    3.549523    4.936130
     66          1           0        7.649174    2.727694    3.496897
     67          1           0        7.547369    1.898184    4.962681
     68          1           0        4.342450    1.471196    6.352726
     69          1           0        4.089037   -0.254769    6.118909
     70          1           0        2.820788    2.093125    4.924915
     71          1           0        2.019044    0.619661    5.567410
     72          1           0        2.802943    0.649506    3.924449
     73          1           0        3.944129   -5.378695    3.404741
     74          1           0        4.642041   -4.044456    4.390536
     75          1           0        5.738597   -5.030792    3.336843
     76          1           0        5.441688   -5.086211   -1.769843
     77          1           0        2.921116   -7.510130   -4.297852
     78          1           0        2.795461   -5.836779   -5.112616
     79          1           0        1.750641   -6.411099   -3.799513
     80         12           0       -4.167841    1.089119    0.377041
     81          6           0       -6.727760   -1.423244    0.259188
     82          6           0       -5.841984    2.699545   -2.120645
     83          6           0       -1.705709    3.076772    0.143405
     84          6           0       -2.150716   -1.240209    2.005263
     85          7           0       -6.033085    0.602148   -0.707384
     86          6           0       -6.953303   -0.346848   -0.623954
     87          6           0       -8.222490   -0.089089   -1.479687
     88          6           0       -7.578442    0.892448   -2.575432
     89          6           0       -6.431300    1.465687   -1.745911
     90          6           0       -6.985995    0.158328   -3.766823
     91          6           0       -9.357603    0.625175   -0.665231
     92          6           0      -10.729607    0.630292   -1.342966
     93          1           0      -11.920188    0.515556   -0.505216
     94          7           0       -4.045536    2.891003   -0.445656
     95          6           0       -4.819280    3.389018   -1.432872
     96          6           0       -4.313804    4.745515   -1.694717
     97          6           0       -3.074315    4.946536   -0.895993
     98          6           0       -2.877981    3.609364   -0.372996
     99          6           0       -5.039202    5.730280   -2.565045
    100          6           0       -2.201997    6.141084   -0.654508
    101          8           0       -1.042808    6.031101   -0.118776
    102          6           0       -2.705388    7.431072   -1.148492
    103          7           0       -2.141789    0.879119    0.793400
    104          6           0       -1.296375    1.915370    0.654184
    105          6           0        0.047721    1.609427    1.270798
    106          6           0       -0.148219    0.237869    2.069555
    107          6           0       -1.612002   -0.071429    1.686048
    108          6           0        1.211925    1.465522    0.290851
    109          6           0        0.237327    0.238460    3.574226
    110          6           0       -0.713630    1.120913    4.350324
    111          7           0       -4.429001   -0.895123    1.191059
    112          6           0       -3.446272   -1.700388    1.807398
    113          6           0       -4.070986   -3.008540    2.091821
    114          6           0       -5.377382   -2.880357    1.596471
    115          6           0       -5.548221   -1.590816    1.024272
    116          6           0       -3.423073   -4.128332    2.685455
    117          6           0       -6.647508   -3.546413    1.417965
    118          8           0       -7.122771   -4.622006    1.779842
    119          6           0       -7.539704   -2.677007    0.430783
    120          6           0       -8.910355   -2.546683    1.036469
    121          8           0       -9.074945   -1.922190    2.099262
    122          8           0       -9.825420   -2.990338    0.155444
    123          6           0      -11.201679   -2.871095    0.706350
    124          1           0       -6.162499    3.165691   -3.052769
    125          1           0       -0.855637    3.761599    0.186623
    126          1           0       -1.617827   -1.985899    2.599112
    127          1           0       -8.631008   -0.968607   -1.962725
    128          1           0       -8.273719    1.678283   -2.859032
    129          1           0       -6.990690   -0.911998   -3.623526
    130          1           0       -5.971558    0.522830   -3.862200
    131          1           0       -7.500214    0.454256   -4.685703
    132          1           0       -9.156158    1.703858   -0.640640
    133          1           0       -9.442099    0.206072    0.318561
    134          1           0      -10.778736   -0.077253   -2.179574
    135          1           0      -10.883028    1.606885   -1.808525
    136          1           0       -5.832053    5.244778   -3.147363
    137          1           0       -4.324084    6.079133   -3.317883
    138          1           0       -5.412379    6.591247   -2.006351
    139          1           0       -2.870288    7.367429   -2.221441
    140          1           0       -1.986533    8.176769   -0.803476
    141          1           0       -3.682126    7.623893   -0.690868
    142          1           0        0.338154    2.384516    1.969373
    143          1           0        0.465154   -0.571221    1.646498
    144          1           0        2.048619    2.157801    0.502393
    145          1           0        0.835255    1.619386   -0.711642
    146          1           0        1.640175    0.466729    0.225963
    147          1           0        1.235093    0.663146    3.709343
    148          1           0        0.245770   -0.751334    4.018327
    149          1           0       -0.295810    2.121628    4.205125
    150          1           0       -0.719938    0.844728    5.402808
    151          1           0       -1.713492    1.112794    3.901040
    152          1           0       -4.113232   -4.539138    3.410319
    153          1           0       -2.481276   -3.842826    3.149429
    154          1           0       -3.272327   -4.756591    1.803507
    155          1           0       -7.563929   -3.193411   -0.529580
    156          1           0      -11.653905   -3.866327    0.654541
    157          1           0      -11.687861   -2.065973    0.123982
    158          1           0      -11.301323   -2.648214    1.762212
 ---------------------------------------------------------------------

 SCF Done:  E(RCAM-B3LYP) =  -4069.80090120     A.U. after   19 cycles

 Excitation energies and oscillator strengths:

 Excited State   1:      Singlet-A      1.6427 eV  754.74 nm  f=0.0021  <S**2>=0.000
     309 -> 315       -0.11260
     310 -> 316        0.12098
     311 -> 313       -0.46698
     312 -> 314        0.50498
 This state for optimization and/or second-order correction.
 Total Energy, E(TD-HF/TD-DFT) =  -4069.74053158
 Copying the excited state density for this state as the 1-particle RhoCI density.

 Excited State   2:      Singlet-A      1.7059 eV  726.81 nm  f=0.6860  <S**2>=0.000
     309 -> 315        0.13386
     310 -> 316        0.12228
     311 -> 313        0.50235
     312 -> 314        0.46440

 Excited State   3:      Singlet-A      2.1817 eV  568.30 nm  f=0.0913  <S**2>=0.000
     309 -> 313       -0.18565
     310 -> 314        0.61633
     312 -> 316       -0.25801

 Excited State   4:      Singlet-A      2.1950 eV  564.86 nm  f=0.1064  <S**2>=0.000
     309 -> 313        0.61018
     310 -> 314        0.18261
     311 -> 315       -0.26793

 Excited State   5:      Singlet-A      2.3119 eV  536.29 nm  f=0.0007  <S**2>=0.000
     312 -> 313        0.70336

 The electronic state is 1-A.
 Alpha  occ. eigenvalues --  -46.87954 -46.87394 -19.26341 -19.26167 -19.19092
 Alpha  occ. eigenvalues --  -19.18968 -19.18721 -19.18517 -19.18244 -19.17813
 Alpha  occ. eigenvalues --  -14.42552 -14.42240 -14.41598 -14.41081 -14.39472
 Alpha  occ. eigenvalues --  -14.39097 -14.38716 -14.38326 -10.39151 -10.38892
 Alpha  occ. eigenvalues --  -10.35347 -10.35203 -10.34467 -10.33988 -10.31716
 Alpha  occ. eigenvalues --  -10.31597 -10.31530 -10.31035 -10.30981 -10.30814
 Alpha  occ. eigenvalues --  -10.30694 -10.30633 -10.30350 -10.30110 -10.30098
 Alpha  occ. eigenvalues --  -10.30064 -10.29817 -10.29716 -10.29622 -10.29345
 Alpha  occ. eigenvalues --  -10.29191 -10.29113 -10.28820 -10.28592 -10.28524
 Alpha  occ. eigenvalues --  -10.28510 -10.28454 -10.28198 -10.28175 -10.27934
 Alpha  occ. eigenvalues --  -10.27878 -10.27825 -10.27753 -10.27749 -10.27660
 Alpha  occ. eigenvalues --  -10.27652 -10.27498 -10.27472 -10.27413 -10.27291
 Alpha  occ. eigenvalues --  -10.27235 -10.27231 -10.27225 -10.27205 -10.27076
 Alpha  occ. eigenvalues --  -10.26820 -10.26767 -10.26522 -10.26503 -10.26308
 Alpha  occ. eigenvalues --  -10.26294 -10.26187 -10.26159 -10.25963 -10.25833
 Alpha  occ. eigenvalues --  -10.25699 -10.25596 -10.25574 -10.25428 -10.25258
 Alpha  occ. eigenvalues --  -10.24989 -10.24939 -10.24923 -10.24616 -10.24447
 Alpha  occ. eigenvalues --  -10.24363  -3.16626  -3.16144  -1.91510  -1.91098
 Alpha  occ. eigenvalues --   -1.91026  -1.90939  -1.90615  -1.90452  -1.16692
 Alpha  occ. eigenvalues --   -1.16458  -1.08703  -1.08420  -1.07110  -1.06778
 Alpha  occ. eigenvalues --   -1.06752  -1.06712  -1.04682  -1.04245  -1.03889
 Alpha  occ. eigenvalues --   -1.03397  -1.03345  -1.02764  -1.02532  -1.01848
 Alpha  occ. eigenvalues --   -0.92073  -0.91735  -0.89789  -0.89274  -0.89161
 Alpha  occ. eigenvalues --   -0.88933  -0.88512  -0.87977  -0.87969  -0.87780
 Alpha  occ. eigenvalues --   -0.87499  -0.87428  -0.87275  -0.86900  -0.85069
 Alpha  occ. eigenvalues --   -0.84790  -0.84315  -0.83628  -0.83013  -0.82740
 Alpha  occ. eigenvalues --   -0.82663  -0.82442  -0.81679  -0.81359  -0.80675
 Alpha  occ. eigenvalues --   -0.80211  -0.78853  -0.78386  -0.77438  -0.77070
 Alpha  occ. eigenvalues --   -0.76898  -0.76684  -0.76025  -0.75610  -0.75119
 Alpha  occ. eigenvalues --   -0.74699  -0.72927  -0.72428  -0.71787  -0.71401
 Alpha  occ. eigenvalues --   -0.70669  -0.69342  -0.68954  -0.68590  -0.67720
 Alpha  occ. eigenvalues --   -0.67372  -0.67254  -0.67001  -0.65484  -0.65141
 Alpha  occ. eigenvalues --   -0.65007  -0.64848  -0.64569  -0.64477  -0.64351
 Alpha  occ. eigenvalues --   -0.63735  -0.62405  -0.62033  -0.60508  -0.60114
 Alpha  occ. eigenvalues --   -0.59889  -0.59568  -0.59112  -0.58745  -0.58619
 Alpha  occ. eigenvalues --   -0.58181  -0.57679  -0.57441  -0.57317  -0.57005
 Alpha  occ. eigenvalues --   -0.56395  -0.56052  -0.55954  -0.55699  -0.55614
 Alpha  occ. eigenvalues --   -0.55501  -0.55235  -0.55052  -0.54702  -0.54330
 Alpha  occ. eigenvalues --   -0.53981  -0.53705  -0.53542  -0.53237  -0.53182
 Alpha  occ. eigenvalues --   -0.52988  -0.52954  -0.52908  -0.52716  -0.52678
 Alpha  occ. eigenvalues --   -0.52486  -0.52039  -0.51959  -0.51649  -0.51542
 Alpha  occ. eigenvalues --   -0.51453  -0.51316  -0.50906  -0.50587  -0.50367
 Alpha  occ. eigenvalues --   -0.50241  -0.49971  -0.49798  -0.49718  -0.49484
 Alpha  occ. eigenvalues --   -0.49291  -0.49274  -0.49161  -0.48979  -0.48882
 Alpha  occ. eigenvalues --   -0.48698  -0.48593  -0.48437  -0.48356  -0.48264
 Alpha  occ. eigenvalues --   -0.48137  -0.47751  -0.47385  -0.47365  -0.47034
 Alpha  occ. eigenvalues --   -0.46932  -0.46623  -0.46503  -0.46438  -0.46378
 Alpha  occ. eigenvalues --   -0.46332  -0.46052  -0.45942  -0.45882  -0.45584
 Alpha  occ. eigenvalues --   -0.45444  -0.45121  -0.45008  -0.44620  -0.44394
 Alpha  occ. eigenvalues --   -0.44310  -0.44225  -0.44168  -0.44020  -0.43924
 Alpha  occ. eigenvalues --   -0.43819  -0.43729  -0.43627  -0.43565  -0.43452
 Alpha  occ. eigenvalues --   -0.43278  -0.43093  -0.43044  -0.42757  -0.42714
 Alpha  occ. eigenvalues --   -0.42623  -0.42402  -0.42091  -0.41836  -0.41686
 Alpha  occ. eigenvalues --   -0.41558  -0.41400  -0.41262  -0.41216  -0.40889
 Alpha  occ. eigenvalues --   -0.40784  -0.40769  -0.40732  -0.40538  -0.40358
 Alpha  occ. eigenvalues --   -0.40267  -0.40048  -0.39842  -0.39544  -0.38835
 Alpha  occ. eigenvalues --   -0.38655  -0.38093  -0.37813  -0.37500  -0.37448
 Alpha  occ. eigenvalues --   -0.37336  -0.36973  -0.36924  -0.36699  -0.36509
 Alpha  occ. eigenvalues --   -0.36251  -0.35838  -0.34397  -0.33954  -0.33847
 Alpha  occ. eigenvalues --   -0.33655  -0.33299  -0.32905  -0.31289  -0.31116
 Alpha  occ. eigenvalues --   -0.31076  -0.30719  -0.30107  -0.29713  -0.29505
 Alpha  occ. eigenvalues --   -0.29406  -0.29080  -0.28938  -0.24202  -0.23764
 Alpha  occ. eigenvalues --   -0.21248  -0.20850
 Alpha virt. eigenvalues --   -0.08865  -0.08531  -0.01874  -0.01452  -0.00065
 Alpha virt. eigenvalues --    0.00188   0.02097   0.02480   0.03431   0.03912
 Alpha virt. eigenvalues --    0.04592   0.04959   0.05027   0.05368   0.06102

 Mulliken charges:
               1
     1  Mg   0.792359
     2  C    0.001369
     3  C   -0.092079
     4  C   -0.049556
     5  C   -0.063741
     6  N   -0.251717
     7  C   -0.055785
     8  C   -0.013501
     9  C   -0.087092
    10  C    0.046834
    11  C    0.104804
    12  C    0.053148
    13  C   -0.071908
    14  H    0.036319
    15  N   -0.431877
    16  C    0.169647
    17  C   -0.176317
    18  C   -0.003399
    19  C    0.144982
    20  C    0.110385
    21  C    0.017076
    22  O   -0.248474
    23  C    0.061322
    24  N   -0.334544
    25  C    0.042853
    26  C   -0.028839
    27  C   -0.027206
    28  C    0.070352
    29  C    0.076635
    30  C    0.091977
    31  C   -0.089937
    32  N   -0.306844
    33  C    0.075949
    34  C   -0.171522
    35  C    0.008298
    36  C    0.077944
    37  C    0.127621
    38  C    0.046058
    39  O   -0.188050
    40  C   -0.006632
    41  C    0.213007
    42  O   -0.257519
    43  O   -0.304733
    44  C    0.157490
    45  H   -0.017488
    46  H   -0.016410
    47  H   -0.043017
    48  H    0.001017
    49  H   -0.003781
    50  H    0.025680
    51  H    0.016595
    52  H    0.016967
    53  H    0.011673
    54  H    0.044181
    55  H    0.017980
    56  H    0.017988
    57  H    0.005494
    58  H    0.027138
    59  H    0.041634
    60  H    0.035193
    61  H    0.037881
    62  H    0.036159
    63  H    0.016236
    64  H    0.011061
    65  H    0.024026
    66  H    0.013672
    67  H    0.004974
    68  H    0.001727
    69  H    0.003940
    70  H    0.017935
    71  H    0.030430
    72  H    0.089265
    73  H    0.047031
    74  H    0.008271
    75  H    0.046569
    76  H    0.035538
    77  H    0.043338
    78  H    0.046409
    79  H    0.054002
    80  Mg   0.838188
    81  C   -0.017366
    82  C   -0.088411
    83  C   -0.047474
    84  C   -0.062013
    85  N   -0.254581
    86  C   -0.049341
    87  C   -0.015164
    88  C   -0.090434
    89  C    0.045578
    90  C    0.114626
    91  C    0.062623
    92  C   -0.077535
    93  H    0.034336
    94  N   -0.422997
    95  C    0.162344
    96  C   -0.175974
    97  C   -0.008880
    98  C    0.151243
    99  C    0.099974
   100  C    0.014131
   101  O   -0.253577
   102  C    0.061297
   103  N   -0.350116
   104  C    0.038976
   105  C   -0.016208
   106  C   -0.037293
   107  C    0.091805
   108  C    0.034999
   109  C    0.028300
   110  C   -0.004432
   111  N   -0.324566
   112  C    0.078507
   113  C   -0.161154
   114  C    0.002152
   115  C    0.096942
   116  C    0.132182
   117  C    0.042917
   118  O   -0.187673
   119  C    0.000789
   120  C    0.211127
   121  O   -0.251299
   122  O   -0.305595
   123  C    0.152192
   124  H   -0.020946
   125  H   -0.016073
   126  H   -0.036905
   127  H   -0.000879
   128  H   -0.005035
   129  H    0.022608
   130  H    0.014315
   131  H    0.015212
   132  H    0.013845
   133  H    0.037612
   134  H    0.020590
   135  H    0.019233
   136  H    0.008138
   137  H    0.024203
   138  H    0.038955
   139  H    0.036853
   140  H    0.035618
   141  H    0.034105
   142  H    0.014525
   143  H    0.020281
   144  H    0.062883
   145  H    0.014429
   146  H    0.019856
   147  H   -0.017505
   148  H   -0.000687
   149  H    0.008132
   150  H    0.014391
   151  H    0.027701
   152  H    0.044744
   153  H    0.009615
   154  H    0.051286
   155  H    0.035103
   156  H    0.043664
   157  H    0.049174
   158  H    0.053352
 Sum of Mulliken charges =  -0.00000

 Dipole moment (field-independent basis, Debye):
    X=              2.1949    Y=              5.1216    Z=             -6.6369  Tot=              8.6658
 Quadrupole moment (field-independent basis, Debye-Ang):
   XX=           -475.0592   YY=           -552.6746   ZZ=           -462.8810
   XY=            -27.4734   XZ=             22.7272   YZ=             -8.3975

 Normal termination of Gaussian 16 at Fri Sep 10 06:44:24 2021.
