 Gaussian 16, Revision A.03,
 Gaussian 16:  ES64L-G16RevA.03 25-Dec-2016

 -----------------------------------
 #p cam-b3lyp/Def2SVP td=(nstates=5)
 -----------------------------------

 --------------------------------
 TDDFT excited states in gaussian
 --------------------------------
 Symbolic Z-matrix:
 Charge =  0 Multiplicity = 1

                         Standard orientation:
 ---------------------------------------------------------------------
 Center     Atomic      Atomic             Coordinates (Angstroms)
 Number     Number       Type             X           Y           Z
 ---------------------------------------------------------------------
      1         12           0        8.072336   -0.481845   -0.053317
      2          6           0        8.141632    2.862887   -1.326180
      3          6           0        8.964440    0.811118    2.975785
      4          6           0        8.460511   -3.454950    0.979443
      5          6           0        8.306039   -1.584338   -3.351127
      6          7           0        8.471275    1.590580    0.614923
      7          6           0        8.404938    2.788986    0.043438
      8          6           0        8.566960    3.964646    1.052867
      9          6           0        9.367342    3.201720    2.201489
     10          6           0        8.879437    1.787782    1.939477
     11          6           0       10.881091    3.240821    2.018353
     12          6           0        7.188855    4.497077    1.571590
     13          6           0        7.240702    5.843281    2.299875
     14          1           0        6.130986    6.770413    2.137689
     15          7           0        8.150987   -1.199323    1.785675
     16          6           0        8.520221   -0.526839    2.902239
     17          6           0        8.413429   -1.494795    4.015046
     18          6           0        8.135045   -2.834705    3.427479
     19          6           0        8.265385   -2.551064    2.021087
     20          6           0        8.523106   -1.105728    5.457387
     21          6           0        7.814396   -4.162681    4.037231
     22          8           0        7.837161   -5.246000    3.358647
     23          6           0        7.555944   -4.173989    5.488477
     24          7           0        8.565359   -2.266831   -1.016847
     25          6           0        8.610507   -3.423286   -0.346357
     26          6           0        8.702159   -4.593014   -1.280849
     27          6           0        8.464651   -4.007076   -2.747143
     28          6           0        8.352727   -2.505329   -2.385899
     29          6           0       10.024469   -5.371850   -1.250508
     30          6           0        7.332239   -4.650176   -3.586479
     31          6           0        5.990198   -4.334946   -2.964662
     32          7           0        8.024453    0.436761   -2.019255
     33          6           0        8.162401   -0.210237   -3.255798
     34          6           0        8.172571    0.837766   -4.292935
     35          6           0        8.055735    2.030450   -3.581810
     36          6           0        8.003949    1.747148   -2.187052
     37          6           0        8.337995    0.625925   -5.690144
     38          6           0        7.987388    3.479805   -3.674314
     39          8           0        7.893896    4.286141   -4.600907
     40          6           0        8.162923    4.084083   -2.211487
     41          6           0        7.085413    5.115108   -2.013321
     42          8           0        5.884006    4.782203   -1.957091
     43          8           0        7.647786    6.288522   -1.685636
     44          6           0        6.631824    7.348066   -1.446172
     45          1           0        9.468983    1.073074    3.907856
     46          1           0        8.488412   -4.502984    1.284867
     47          1           0        8.290861   -1.858123   -4.407661
     48          1           0        9.156424    4.803615    0.682616
     49          1           0        9.063628    3.529280    3.195564
     50          1           0       11.155053    3.676953    1.057804
     51          1           0       11.207668    2.202081    2.071830
     52          1           0       11.359617    3.748866    2.856016
     53          1           0        6.840159    3.859820    2.384226
     54          1           0        6.466407    4.555588    0.756746
     55          1           0        8.190640    6.351320    2.131286
     56          1           0        7.222465    5.652047    3.372861
     57          1           0        8.893245   -0.087521    5.570507
     58          1           0        9.302208   -1.728351    5.896762
     59          1           0        7.586575   -1.254780    5.994998
     60          1           0        8.430536   -3.788329    6.012789
     61          1           0        7.256688   -5.192644    5.732687
     62          1           0        6.739169   -3.485470    5.707036
     63          1           0        7.930844   -5.330157   -1.061486
     64          1           0        9.350185   -4.105793   -3.375441
     65          1           0        9.902859   -6.432683   -1.030170
     66          1           0       10.680380   -4.894082   -0.523315
     67          1           0       10.619449   -5.297963   -2.160429
     68          1           0        7.435264   -5.734736   -3.594389
     69          1           0        7.318400   -4.310784   -4.622274
     70          1           0        5.892986   -5.099593   -2.194794
     71          1           0        5.196429   -4.425159   -3.706958
     72          1           0        6.001351   -3.367086   -2.463056
     73          1           0        7.608618    1.267555   -6.184401
     74          1           0        8.186842   -0.420927   -5.952550
     75          1           0        9.372032    0.944263   -5.821614
     76          1           0        9.160168    4.521046   -2.170422
     77          1           0        6.872394    8.179166   -2.109219
     78          1           0        6.631782    7.540496   -0.373150
     79          1           0        5.613574    7.119995   -1.763172
     80         12           0       -7.792765   -0.994920    0.262339
     81          6           0       -9.795263    1.951735   -0.169229
     82          6           0       -5.434685    1.000650    1.708631
     83          6           0       -5.823315   -3.482608    0.250433
     84          6           0       -9.751052   -2.515897   -2.186626
     85          7           0       -7.738052    1.179809    0.662071
     86          6           0       -8.582109    2.189165    0.509975
     87          6           0       -8.134237    3.510301    1.190819
     88          6           0       -6.551967    3.238207    1.226203
     89          6           0       -6.566725    1.710992    1.235363
     90          6           0       -5.833417    3.701387   -0.030180
     91          6           0       -8.722643    3.666810    2.636953
     92          6           0       -8.581486    5.065838    3.240730
     93          1           0       -9.651065    5.563667    4.101340
     94          7           0       -6.135702   -1.326047    1.303046
     95          6           0       -5.310763   -0.400349    1.835821
     96          6           0       -4.226234   -1.153561    2.484367
     97          6           0       -4.390421   -2.594311    2.149696
     98          6           0       -5.467679   -2.519325    1.183267
     99          6           0       -3.217479   -0.509902    3.390760
    100          6           0       -3.684946   -3.833129    2.612117
    101          8           0       -3.831959   -4.955736    2.011288
    102          6           0       -2.745066   -3.673270    3.731291
    103          7           0       -7.647980   -2.672816   -0.956699
    104          6           0       -6.734463   -3.628547   -0.711760
    105          6           0       -6.997444   -4.860681   -1.544269
    106          6           0       -8.425059   -4.622823   -2.224653
    107          6           0       -8.712652   -3.193082   -1.716190
    108          6           0       -5.962395   -5.165364   -2.626962
    109          6           0       -9.503163   -5.718151   -1.999680
    110          6           0       -9.917213   -5.743916   -0.545967
    111          7           0       -9.581473   -0.485420   -0.837189
    112          6           0      -10.218024   -1.255929   -1.834787
    113          6           0      -11.328929   -0.442620   -2.370381
    114          6           0      -11.246712    0.763088   -1.657649
    115          6           0      -10.148816    0.712962   -0.756755
    116          6           0      -12.214040   -0.829137   -3.415990
    117          6           0      -11.832556    2.070878   -1.470091
    118          8           0      -12.836098    2.642186   -1.894632
    119          6           0      -10.841886    2.946623   -0.588037
    120          6           0      -11.648051    3.612552    0.493242
    121          8           0      -12.199930    2.935147    1.378203
    122          8           0      -11.455461    4.942722    0.430586
    123          6           0      -12.225892    5.646300    1.490408
    124          1           0       -4.539125    1.565630    1.968729
    125          1           0       -5.242108   -4.407086    0.282300
    126          1           0      -10.468094   -2.956078   -2.882871
    127          1           0       -8.344466    4.408282    0.622298
    128          1           0       -6.105750    3.620702    2.140508
    129          1           0       -6.524818    4.030943   -0.791427
    130          1           0       -5.267529    2.846835   -0.377392
    131          1           0       -5.096192    4.470031    0.218872
    132          1           0       -8.102491    3.095485    3.339613
    133          1           0       -9.751117    3.363341    2.664721
    134          1           0       -8.315220    5.815631    2.485847
    135          1           0       -7.731503    5.063295    3.927420
    136          1           0       -3.248277    0.584003    3.314418
    137          1           0       -2.226735   -0.780952    3.010185
    138          1           0       -3.303669   -0.849192    4.425222
    139          1           0       -1.978461   -2.951772    3.458830
    140          1           0       -2.407813   -4.682335    3.976083
    141          1           0       -3.286274   -3.250196    4.584941
    142          1           0       -7.048191   -5.744980   -0.920925
    143          1           0       -8.348575   -4.557370   -3.319966
    144          1           0       -5.514181   -6.172363   -2.531291
    145          1           0       -5.195709   -4.402864   -2.590482
    146          1           0       -6.325095   -5.079541   -3.649835
    147          1           0       -9.091997   -6.705728   -2.222833
    148          1           0      -10.385309   -5.589380   -2.617928
    149          1           0       -9.142053   -6.359206   -0.079459
    150          1           0      -10.900358   -6.197020   -0.435652
    151          1           0       -9.856039   -4.743722   -0.101543
    152          1           0      -13.208797   -0.538769   -3.105103
    153          1           0      -12.154208   -1.897502   -3.612944
    154          1           0      -11.811240   -0.236345   -4.241594
    155          1           0      -10.367502    3.671735   -1.250427
    156          1           0      -12.852234    6.390733    0.989216
    157          1           0      -11.472357    6.022633    2.207571
    158          1           0      -12.969865    5.074429    2.032550
 ---------------------------------------------------------------------

 SCF Done:  E(RCAM-B3LYP) =  -4069.81177729     A.U. after   19 cycles

 Excitation energies and oscillator strengths:

 Excited State   1:      Singlet-A      1.6716 eV  741.73 nm  f=0.1867  <S**2>=0.000
     310 -> 316       -0.14255
     311 -> 313       -0.38681
     312 -> 314        0.56688
 This state for optimization and/or second-order correction.
 Total Energy, E(TD-HF/TD-DFT) =  -4069.75034861
 Copying the excited state density for this state as the 1-particle RhoCI density.

 Excited State   2:      Singlet-A      1.6831 eV  736.62 nm  f=0.5868  <S**2>=0.000
     309 -> 315        0.14594
     311 -> 313        0.56619
     312 -> 314        0.38641

 Excited State   3:      Singlet-A      2.1855 eV  567.30 nm  f=0.0563  <S**2>=0.000
     309 -> 313        0.14432
     310 -> 314        0.62639
     312 -> 316        0.26564

 Excited State   4:      Singlet-A      2.1931 eV  565.33 nm  f=0.1367  <S**2>=0.000
     309 -> 313        0.62434
     310 -> 314       -0.14323
     311 -> 315       -0.27165

 Excited State   5:      Singlet-A      2.7384 eV  452.76 nm  f=0.0000  <S**2>=0.000
     312 -> 313        0.70703

 The electronic state is 1-A.
 Alpha  occ. eigenvalues --  -46.87905 -46.87588 -19.26424 -19.26297 -19.19162
 Alpha  occ. eigenvalues --  -19.19107 -19.18910 -19.18647 -19.18279 -19.17986
 Alpha  occ. eigenvalues --  -14.42560 -14.42423 -14.41550 -14.41287 -14.39510
 Alpha  occ. eigenvalues --  -14.39280 -14.38694 -14.38529 -10.39218 -10.39035
 Alpha  occ. eigenvalues --  -10.35543 -10.35325 -10.34500 -10.34163 -10.31826
 Alpha  occ. eigenvalues --  -10.31711 -10.31517 -10.31234 -10.31024 -10.30950
 Alpha  occ. eigenvalues --  -10.30678 -10.30609 -10.30328 -10.30302 -10.30290
 Alpha  occ. eigenvalues --  -10.30069 -10.30014 -10.29825 -10.29735 -10.29364
 Alpha  occ. eigenvalues --  -10.29358 -10.29333 -10.28880 -10.28706 -10.28646
 Alpha  occ. eigenvalues --  -10.28607 -10.28475 -10.28333 -10.28238 -10.28056
 Alpha  occ. eigenvalues --  -10.27930 -10.27898 -10.27836 -10.27690 -10.27597
 Alpha  occ. eigenvalues --  -10.27591 -10.27572 -10.27519 -10.27514 -10.27453
 Alpha  occ. eigenvalues --  -10.27413 -10.27401 -10.27397 -10.27308 -10.27276
 Alpha  occ. eigenvalues --  -10.26985 -10.26865 -10.26635 -10.26510 -10.26357
 Alpha  occ. eigenvalues --  -10.26343 -10.26237 -10.26117 -10.26082 -10.25933
 Alpha  occ. eigenvalues --  -10.25910 -10.25864 -10.25788 -10.25497 -10.25324
 Alpha  occ. eigenvalues --  -10.24939 -10.24886 -10.24803 -10.24734 -10.24680
 Alpha  occ. eigenvalues --  -10.24618  -3.16648  -3.16338  -1.91530  -1.91220
 Alpha  occ. eigenvalues --   -1.91116  -1.90958  -1.90809  -1.90646  -1.16772
 Alpha  occ. eigenvalues --   -1.16591  -1.08738  -1.08594  -1.07309  -1.06898
 Alpha  occ. eigenvalues --   -1.06891  -1.06783  -1.04692  -1.04421  -1.03863
 Alpha  occ. eigenvalues --   -1.03591  -1.03338  -1.02968  -1.02515  -1.02040
 Alpha  occ. eigenvalues --   -0.92082  -0.91917  -0.89606  -0.89428  -0.89313
 Alpha  occ. eigenvalues --   -0.89074  -0.88370  -0.88153  -0.87972  -0.87784
 Alpha  occ. eigenvalues --   -0.87726  -0.87612  -0.87380  -0.87053  -0.85104
 Alpha  occ. eigenvalues --   -0.84928  -0.84016  -0.83812  -0.83063  -0.82868
 Alpha  occ. eigenvalues --   -0.82764  -0.82583  -0.81705  -0.81535  -0.80709
 Alpha  occ. eigenvalues --   -0.80377  -0.78903  -0.78567  -0.77323  -0.77075
 Alpha  occ. eigenvalues --   -0.77049  -0.76832  -0.76039  -0.75766  -0.74985
 Alpha  occ. eigenvalues --   -0.74734  -0.72876  -0.72629  -0.71775  -0.71507
 Alpha  occ. eigenvalues --   -0.69979  -0.69695  -0.68990  -0.68757  -0.67748
 Alpha  occ. eigenvalues --   -0.67534  -0.67348  -0.67137  -0.65408  -0.65202
 Alpha  occ. eigenvalues --   -0.64962  -0.64730  -0.64702  -0.64587  -0.64358
 Alpha  occ. eigenvalues --   -0.64138  -0.62417  -0.62218  -0.60542  -0.60272
 Alpha  occ. eigenvalues --   -0.59922  -0.59722  -0.59091  -0.58923  -0.58609
 Alpha  occ. eigenvalues --   -0.58358  -0.57702  -0.57491  -0.57407  -0.57170
 Alpha  occ. eigenvalues --   -0.56416  -0.56136  -0.56107  -0.55826  -0.55626
 Alpha  occ. eigenvalues --   -0.55433  -0.55387  -0.55184  -0.54626  -0.54427
 Alpha  occ. eigenvalues --   -0.54021  -0.53838  -0.53401  -0.53338  -0.53161
 Alpha  occ. eigenvalues --   -0.53075  -0.53029  -0.52868  -0.52837  -0.52599
 Alpha  occ. eigenvalues --   -0.52509  -0.52342  -0.52013  -0.51820  -0.51740
 Alpha  occ. eigenvalues --   -0.51592  -0.51301  -0.51136  -0.50677  -0.50411
 Alpha  occ. eigenvalues --   -0.50116  -0.50022  -0.49907  -0.49799  -0.49628
 Alpha  occ. eigenvalues --   -0.49418  -0.49325  -0.49212  -0.49132  -0.49031
 Alpha  occ. eigenvalues --   -0.48706  -0.48552  -0.48548  -0.48489  -0.48310
 Alpha  occ. eigenvalues --   -0.48272  -0.47802  -0.47526  -0.47400  -0.47049
 Alpha  occ. eigenvalues --   -0.46898  -0.46679  -0.46641  -0.46483  -0.46461
 Alpha  occ. eigenvalues --   -0.46262  -0.46203  -0.46020  -0.45933  -0.45758
 Alpha  occ. eigenvalues --   -0.45285  -0.45139  -0.44688  -0.44612  -0.44448
 Alpha  occ. eigenvalues --   -0.44406  -0.44242  -0.44201  -0.44129  -0.44054
 Alpha  occ. eigenvalues --   -0.44014  -0.43874  -0.43609  -0.43493  -0.43493
 Alpha  occ. eigenvalues --   -0.43316  -0.43131  -0.42871  -0.42835  -0.42821
 Alpha  occ. eigenvalues --   -0.42741  -0.42488  -0.42105  -0.41901  -0.41810
 Alpha  occ. eigenvalues --   -0.41653  -0.41601  -0.41392  -0.41246  -0.40981
 Alpha  occ. eigenvalues --   -0.40928  -0.40913  -0.40658  -0.40656  -0.40631
 Alpha  occ. eigenvalues --   -0.40426  -0.40375  -0.40165  -0.39510  -0.39365
 Alpha  occ. eigenvalues --   -0.38558  -0.38283  -0.37883  -0.37591  -0.37412
 Alpha  occ. eigenvalues --   -0.37387  -0.37198  -0.37130  -0.36835  -0.36714
 Alpha  occ. eigenvalues --   -0.36301  -0.36151  -0.34392  -0.34183  -0.33906
 Alpha  occ. eigenvalues --   -0.33805  -0.33293  -0.33105  -0.31439  -0.31206
 Alpha  occ. eigenvalues --   -0.31141  -0.30901  -0.30139  -0.29891  -0.29555
 Alpha  occ. eigenvalues --   -0.29428  -0.29257  -0.29142  -0.24187  -0.23964
 Alpha  occ. eigenvalues --   -0.21232  -0.21045
 Alpha virt. eigenvalues --   -0.08880  -0.08721  -0.01852  -0.01612  -0.00164
 Alpha virt. eigenvalues --    0.00042   0.02096   0.02274   0.02992   0.03288
 Alpha virt. eigenvalues --    0.04600   0.04802   0.04963   0.05222   0.06034

 Mulliken charges:
               1
     1  Mg   0.838257
     2  C   -0.003241
     3  C   -0.094503
     4  C   -0.045662
     5  C   -0.063743
     6  N   -0.256795
     7  C   -0.052634
     8  C   -0.013945
     9  C   -0.086919
    10  C    0.046161
    11  C    0.104771
    12  C    0.053580
    13  C   -0.071578
    14  H    0.035348
    15  N   -0.433160
    16  C    0.168244
    17  C   -0.177393
    18  C   -0.004008
    19  C    0.148603
    20  C    0.110202
    21  C    0.012227
    22  O   -0.249110
    23  C    0.062581
    24  N   -0.341140
    25  C    0.041227
    26  C   -0.028258
    27  C   -0.024053
    28  C    0.074887
    29  C    0.076081
    30  C    0.035041
    31  C   -0.004554
    32  N   -0.310480
    33  C    0.080389
    34  C   -0.169586
    35  C    0.008370
    36  C    0.082902
    37  C    0.127303
    38  C    0.046075
    39  O   -0.188354
    40  C   -0.005317
    41  C    0.212940
    42  O   -0.257633
    43  O   -0.304607
    44  C    0.157758
    45  H   -0.017574
    46  H   -0.016474
    47  H   -0.041195
    48  H    0.001073
    49  H   -0.004271
    50  H    0.025593
    51  H    0.016649
    52  H    0.016748
    53  H    0.010663
    54  H    0.043694
    55  H    0.018304
    56  H    0.017824
    57  H    0.005779
    58  H    0.027114
    59  H    0.039008
    60  H    0.037455
    61  H    0.036049
    62  H    0.030829
    63  H    0.016929
    64  H    0.009617
    65  H    0.023542
    66  H    0.012502
    67  H    0.004902
    68  H    0.006756
    69  H    0.004785
    70  H    0.009226
    71  H    0.018545
    72  H    0.028471
    73  H    0.047596
    74  H    0.009341
    75  H    0.046183
    76  H    0.035322
    77  H    0.043219
    78  H    0.046255
    79  H    0.053269
    80  Mg   0.837956
    81  C   -0.016845
    82  C   -0.087697
    83  C   -0.045402
    84  C   -0.064845
    85  N   -0.254613
    86  C   -0.049746
    87  C   -0.015131
    88  C   -0.090488
    89  C    0.045724
    90  C    0.114234
    91  C    0.062576
    92  C   -0.077733
    93  H    0.034504
    94  N   -0.423561
    95  C    0.162896
    96  C   -0.174259
    97  C   -0.007763
    98  C    0.152204
    99  C    0.099220
   100  C    0.015683
   101  O   -0.253088
   102  C    0.061180
   103  N   -0.350034
   104  C    0.037631
   105  C   -0.019891
   106  C   -0.034787
   107  C    0.088908
   108  C    0.073580
   109  C    0.034763
   110  C   -0.007642
   111  N   -0.324107
   112  C    0.078429
   113  C   -0.163199
   114  C    0.002246
   115  C    0.096144
   116  C    0.131495
   117  C    0.042327
   118  O   -0.188051
   119  C    0.000914
   120  C    0.211212
   121  O   -0.251152
   122  O   -0.305545
   123  C    0.152095
   124  H   -0.019150
   125  H   -0.015535
   126  H   -0.040577
   127  H   -0.000590
   128  H   -0.004558
   129  H    0.022506
   130  H    0.015117
   131  H    0.016726
   132  H    0.013741
   133  H    0.037551
   134  H    0.020920
   135  H    0.019414
   136  H    0.008849
   137  H    0.026653
   138  H    0.039174
   139  H    0.038420
   140  H    0.036412
   141  H    0.033452
   142  H    0.014276
   143  H    0.012452
   144  H    0.025014
   145  H    0.012047
   146  H    0.005683
   147  H    0.006165
   148  H    0.003565
   149  H    0.010880
   150  H    0.017761
   151  H    0.030121
   152  H    0.045838
   153  H    0.008404
   154  H    0.047020
   155  H    0.035186
   156  H    0.043839
   157  H    0.049441
   158  H    0.053443
 Sum of Mulliken charges =  -0.00000

 Dipole moment (field-independent basis, Debye):
    X=              6.3194    Y=              1.3238    Z=              5.0582  Tot=              8.2020
 Quadrupole moment (field-independent basis, Debye-Ang):
   XX=           -561.4258   YY=           -502.0486   ZZ=           -488.4560
   XY=             15.7580   XZ=             29.0562   YZ=             57.4071

 Normal termination of Gaussian 16 at Sun Sep 12 07:16:25 2021.
