 Gaussian 16, Revision A.03,
 Gaussian 16:  ES64L-G16RevA.03 25-Dec-2016

 -----------------------------------
 #p cam-b3lyp/Def2SVP td=(nstates=5)
 -----------------------------------

 --------------------------------
 TDDFT excited states in gaussian
 --------------------------------
 Symbolic Z-matrix:
 Charge =  0 Multiplicity = 1

                         Standard orientation:
 ---------------------------------------------------------------------
 Center     Atomic      Atomic             Coordinates (Angstroms)
 Number     Number       Type             X           Y           Z
 ---------------------------------------------------------------------
      1         12           0       -4.935792    0.787065   -0.021337
      2          6           0       -5.340664   -2.302778    1.739675
      3          6           0       -5.718326    2.379075    2.893488
      4          6           0       -5.029988    3.502557   -1.656528
      5          6           0       -5.305597   -1.020055   -2.978231
      6          7           0       -5.443657    0.025292    1.994208
      7          6           0       -5.505717   -1.179359    2.552898
      8          6           0       -5.687802   -1.134437    4.099572
      9          6           0       -6.350253    0.309619    4.233213
     10          6           0       -5.776185    0.956653    2.985127
     11          6           0       -7.871503    0.294608    4.123328
     12          6           0       -4.322010   -1.210923    4.861474
     13          6           0       -4.426032   -1.500681    6.361665
     14          1           0       -3.402321   -2.322989    6.988701
     15          7           0       -4.837512    2.660160    0.598907
     16          6           0       -5.180853    3.126819    1.823502
     17          6           0       -4.927718    4.583357    1.790315
     18          6           0       -4.589389    4.954567    0.388234
     19          6           0       -4.834185    3.709041   -0.293028
     20          6           0       -4.969810    5.453793    3.008641
     21          6           0       -4.130022    6.232305   -0.239858
     22          8           0       -4.116647    6.400924   -1.507124
     23          6           0       -3.775205    7.326864    0.681601
     24          7           0       -5.356654    1.228655   -2.017711
     25          6           0       -5.270055    2.480541   -2.480601
     26          6           0       -5.335808    2.514508   -3.978754
     27          6           0       -5.241298    0.994881   -4.459957
     28          6           0       -5.218536    0.308754   -3.071799
     29          6           0       -6.590963    3.162780   -4.579037
     30          6           0       -4.122346    0.646473   -5.473355
     31          6           0       -2.769259    0.790335   -4.813386
     32          7           0       -5.088249   -1.307852   -0.568263
     33          6           0       -5.259444   -1.832350   -1.857552
     34          6           0       -5.417404   -3.291191   -1.712985
     35          6           0       -5.343220   -3.513523   -0.339337
     36          6           0       -5.177381   -2.269338    0.333563
     37          6           0       -5.659311   -4.212066   -2.770294
     38          6           0       -5.390156   -4.510114    0.718237
     39          8           0       -5.419466   -5.741248    0.748927
     40          6           0       -5.512556   -3.753870    2.114281
     41          6           0       -4.504644   -4.362473    3.050777
     42          8           0       -3.280575   -4.227529    2.848759
     43          8           0       -5.130371   -4.799261    4.154509
     44          6           0       -4.183081   -5.388163    5.138374
     45          1           0       -6.177794    2.977932    3.682286
     46          1           0       -4.958722    4.404005   -2.268697
     47          1           0       -5.340438   -1.658302   -3.863037
     48          1           0       -6.361948   -1.891790    4.500030
     49          1           0       -6.006335    0.834221    5.124411
     50          1           0       -8.240895   -0.691399    3.841795
     51          1           0       -8.114910    1.026574    3.352957
     52          1           0       -8.329851    0.662460    5.041685
     53          1           0       -3.873038   -0.218267    4.894941
     54          1           0       -3.661968   -1.944667    4.397481
     55          1           0       -5.420543   -1.857789    6.630610
     56          1           0       -4.321950   -0.558322    6.899555
     57          1           0       -5.406943    4.931763    3.858903
     58          1           0       -5.668937    6.262827    2.797940
     59          1           0       -3.990960    5.867664    3.251323
     60          1           0       -4.639339    7.571288    1.299726
     61          1           0       -3.384725    8.130268    0.057969
     62          1           0       -2.999647    6.976919    1.363507
     63          1           0       -4.498438    3.073532   -4.394361
     64          1           0       -6.156866    0.663476   -4.950446
     65          1           0       -6.375658    3.992246   -5.253080
     66          1           0       -7.230897    3.482706   -3.757196
     67          1           0       -7.249188    2.477118   -5.111977
     68          1           0       -4.143988    1.338220   -6.314761
     69          1           0       -4.203151   -0.364477   -5.872982
     70          1           0       -2.563792    1.855911   -4.909104
     71          1           0       -2.022255    0.199441   -5.344461
     72          1           0       -2.819522    0.562548   -3.748458
     73          1           0       -5.014747   -5.070308   -2.580749
     74          1           0       -5.447868   -3.764639   -3.741224
     75          1           0       -6.720783   -4.412092   -2.624955
     76          1           0       -6.534813   -3.900426    2.461604
     77          1           0       -4.529041   -6.399715    5.351229
     78          1           0       -4.125892   -4.687204    5.971316
     79          1           0       -3.174011   -5.587754    4.776048
     80         12           0        5.616948    0.114920    0.009490
     81          6           0        3.283226   -1.757666   -1.971973
     82          6           0        4.069209    2.941484   -1.108394
     83          6           0        7.928056    1.802872    1.379544
     84          6           0        7.644127   -2.719612    0.050106
     85          7           0        3.907515    0.422856   -1.359925
     86          6           0        3.060161   -0.365318   -2.004212
     87          6           0        1.862443    0.375315   -2.657287
     88          6           0        2.530038    1.828347   -2.805333
     89          6           0        3.544515    1.748423   -1.666412
     90          6           0        3.289016    2.011937   -4.109007
     91          6           0        0.602538    0.414549   -1.722887
     92          6           0       -0.694580    0.846908   -2.410137
     93          1           0       -1.947285    0.228849   -1.984439
     94          7           0        5.676855    2.031378    0.521522
     95          6           0        4.964704    3.041239   -0.020979
     96          6           0        5.385868    4.258069    0.690437
     97          6           0        6.523869    3.909072    1.583658
     98          6           0        6.772685    2.542130    1.171751
     99          6           0        4.672643    5.571357    0.548988
    100          6           0        7.273528    4.682306    2.625919
    101          8           0        8.381203    4.258411    3.111941
    102          6           0        6.720890    5.994385    2.992700
    103          7           0        7.604058   -0.311200    0.447851
    104          6           0        8.375751    0.579864    1.094713
    105          6           0        9.674403   -0.047051    1.542877
    106          6           0        9.510238   -1.614815    1.273165
    107          6           0        8.118358   -1.612052    0.603796
    108          6           0       10.934644    0.460377    0.842378
    109          6           0        9.748881   -2.565062    2.478467
    110          6           0        8.662322   -2.371248    3.511518
    111          7           0        5.434254   -1.937389   -0.640668
    112          6           0        6.413165   -2.951116   -0.550331
    113          6           0        5.867756   -4.144711   -1.228771
    114          6           0        4.608729   -3.732201   -1.690470
    115          6           0        4.393628   -2.371102   -1.343127
    116          6           0        6.541037   -5.387851   -1.394380
    117          6           0        3.417164   -4.135517   -2.401959
    118          8           0        2.994569   -5.197810   -2.856585
    119          6           0        2.558579   -2.837791   -2.726181
    120          6           0        1.130313   -3.119250   -2.347544
    121          8           0        0.816761   -3.306641   -1.158767
    122          8           0        0.341005   -2.906385   -3.416204
    123          6           0       -1.086737   -3.161815   -3.087344
    124          1           0        3.804036    3.891776   -1.572626
    125          1           0        8.714242    2.306269    1.946963
    126          1           0        8.174147   -3.672887    0.105040
    127          1           0        1.571643   -0.001181   -3.630660
    128          1           0        1.806079    2.616742   -2.616467
    129          1           0        3.353900    1.091767   -4.670445
    130          1           0        4.276485    2.354589   -3.828768
    131          1           0        2.843589    2.821944   -4.693660
    132          1           0        0.716198    1.235104   -1.002815
    133          1           0        0.457192   -0.531862   -1.239345
    134          1           0       -0.608280    0.827041   -3.503337
    135          1           0       -0.878255    1.898058   -2.174842
    136          1           0        3.979311    5.563060   -0.301072
    137          1           0        5.427192    6.317307    0.276789
    138          1           0        4.181924    5.885795    1.472564
    139          1           0        6.664826    6.622970    2.107158
    140          1           0        7.343277    6.354317    3.814271
    141          1           0        5.692841    5.854856    3.345205
    142          1           0        9.835520    0.112344    2.602003
    143          1           0       10.222324   -1.974770    0.516066
    144          1           0       11.690879    0.863207    1.542310
    145          1           0       10.644761    1.213065    0.121300
    146          1           0       11.443518   -0.272890    0.219032
    147          1           0       10.693084   -2.321391    2.971680
    148          1           0        9.791774   -3.612874    2.200517
    149          1           0        9.013010   -1.503891    4.078781
    150          1           0        8.576875   -3.250294    4.147147
    151          1           0        7.713681   -2.093547    3.037571
    152          1           0        5.818776   -6.164153   -1.179465
    153          1           0        7.409069   -5.459815   -0.742371
    154          1           0        6.823853   -5.317626   -2.448111
    155          1           0        2.666558   -2.631310   -3.791677
    156          1           0       -1.453141   -3.900454   -3.806945
    157          1           0       -1.576127   -2.169728   -3.090436
    158          1           0       -1.303940   -3.656137   -2.147707
 ---------------------------------------------------------------------

 SCF Done:  E(RCAM-B3LYP) =  -4069.80722400     A.U. after   19 cycles

 Excitation energies and oscillator strengths:

 Excited State   1:      Singlet-A      1.6520 eV  750.52 nm  f=0.0049  <S**2>=0.000
     309 -> 315        0.11847
     310 -> 316       -0.11793
     311 -> 313        0.48636
     312 -> 314       -0.48578
 This state for optimization and/or second-order correction.
 Total Energy, E(TD-HF/TD-DFT) =  -4069.74651503
 Copying the excited state density for this state as the 1-particle RhoCI density.

 Excited State   2:      Singlet-A      1.6975 eV  730.39 nm  f=0.7061  <S**2>=0.000
     309 -> 315        0.12658
     310 -> 316        0.12646
     311 -> 313        0.48354
     312 -> 314        0.48440

 Excited State   3:      Singlet-A      2.1821 eV  568.19 nm  f=0.0779  <S**2>=0.000
     309 -> 313        0.29688
     310 -> 314        0.57165
     311 -> 315       -0.12329
     312 -> 316       -0.23936

 Excited State   4:      Singlet-A      2.1910 eV  565.88 nm  f=0.1212  <S**2>=0.000
     309 -> 313        0.56892
     310 -> 314       -0.29427
     311 -> 315       -0.24593
     312 -> 316        0.12844

 Excited State   5:      Singlet-A      2.4504 eV  505.98 nm  f=0.0000  <S**2>=0.000
     312 -> 313        0.70656

 The electronic state is 1-A.
 Alpha  occ. eigenvalues --  -46.87943 -46.87479 -19.26116 -19.25896 -19.19063
 Alpha  occ. eigenvalues --  -19.18825 -19.18661 -19.18587 -19.18219 -19.17798
 Alpha  occ. eigenvalues --  -14.42600 -14.42320 -14.41622 -14.41181 -14.39574
 Alpha  occ. eigenvalues --  -14.39176 -14.38761 -14.38408 -10.38913 -10.38627
 Alpha  occ. eigenvalues --  -10.35698 -10.35269 -10.34434 -10.33968 -10.31537
 Alpha  occ. eigenvalues --  -10.31480 -10.31227 -10.31109 -10.31023 -10.30843
 Alpha  occ. eigenvalues --  -10.30733 -10.30702 -10.30426 -10.30216 -10.30164
 Alpha  occ. eigenvalues --  -10.30111 -10.29989 -10.29825 -10.29716 -10.29473
 Alpha  occ. eigenvalues --  -10.29273 -10.29221 -10.28785 -10.28547 -10.28506
 Alpha  occ. eigenvalues --  -10.28495 -10.28472 -10.28210 -10.28184 -10.27969
 Alpha  occ. eigenvalues --  -10.27950 -10.27887 -10.27813 -10.27776 -10.27684
 Alpha  occ. eigenvalues --  -10.27663 -10.27649 -10.27534 -10.27489 -10.27382
 Alpha  occ. eigenvalues --  -10.27339 -10.27294 -10.27287 -10.27238 -10.27164
 Alpha  occ. eigenvalues --  -10.26766 -10.26682 -10.26664 -10.26437 -10.26339
 Alpha  occ. eigenvalues --  -10.26303 -10.26301 -10.26244 -10.26054 -10.26014
 Alpha  occ. eigenvalues --  -10.25858 -10.25762 -10.25661 -10.25613 -10.25279
 Alpha  occ. eigenvalues --  -10.24998 -10.24974 -10.24725 -10.24676 -10.24606
 Alpha  occ. eigenvalues --  -10.24513  -3.16685  -3.16229  -1.91566  -1.91153
 Alpha  occ. eigenvalues --   -1.91111  -1.90996  -1.90699  -1.90536  -1.16465
 Alpha  occ. eigenvalues --   -1.16183  -1.08655  -1.08385  -1.07471  -1.06842
 Alpha  occ. eigenvalues --   -1.06465  -1.06459  -1.04722  -1.04311  -1.03927
 Alpha  occ. eigenvalues --   -1.03485  -1.03411  -1.02861  -1.02581  -1.01929
 Alpha  occ. eigenvalues --   -0.92083  -0.91768  -0.89692  -0.89326  -0.89251
 Alpha  occ. eigenvalues --   -0.88970  -0.88463  -0.88065  -0.88056  -0.87814
 Alpha  occ. eigenvalues --   -0.87605  -0.87507  -0.87475  -0.86974  -0.85070
 Alpha  occ. eigenvalues --   -0.84833  -0.84110  -0.83711  -0.83188  -0.82803
 Alpha  occ. eigenvalues --   -0.82746  -0.82467  -0.81617  -0.81307  -0.80691
 Alpha  occ. eigenvalues --   -0.80204  -0.78980  -0.78470  -0.77404  -0.77050
 Alpha  occ. eigenvalues --   -0.76941  -0.76685  -0.75984  -0.75610  -0.75045
 Alpha  occ. eigenvalues --   -0.74619  -0.72948  -0.72521  -0.71804  -0.71394
 Alpha  occ. eigenvalues --   -0.70240  -0.69610  -0.68998  -0.68616  -0.67793
 Alpha  occ. eigenvalues --   -0.67413  -0.67302  -0.67060  -0.65373  -0.65133
 Alpha  occ. eigenvalues --   -0.64938  -0.64698  -0.64581  -0.64465  -0.64299
 Alpha  occ. eigenvalues --   -0.64026  -0.62282  -0.61945  -0.60636  -0.60185
 Alpha  occ. eigenvalues --   -0.59902  -0.59617  -0.59128  -0.58798  -0.58631
 Alpha  occ. eigenvalues --   -0.58212  -0.57642  -0.57401  -0.57262  -0.57033
 Alpha  occ. eigenvalues --   -0.56467  -0.56015  -0.55946  -0.55676  -0.55590
 Alpha  occ. eigenvalues --   -0.55469  -0.55238  -0.55028  -0.54577  -0.54225
 Alpha  occ. eigenvalues --   -0.53958  -0.53726  -0.53477  -0.53337  -0.53052
 Alpha  occ. eigenvalues --   -0.53007  -0.52965  -0.52885  -0.52731  -0.52578
 Alpha  occ. eigenvalues --   -0.52473  -0.52237  -0.52096  -0.51698  -0.51677
 Alpha  occ. eigenvalues --   -0.51525  -0.51280  -0.50975  -0.50787  -0.50352
 Alpha  occ. eigenvalues --   -0.50249  -0.50093  -0.49821  -0.49721  -0.49624
 Alpha  occ. eigenvalues --   -0.49332  -0.49323  -0.49167  -0.48991  -0.48934
 Alpha  occ. eigenvalues --   -0.48702  -0.48638  -0.48545  -0.48309  -0.48216
 Alpha  occ. eigenvalues --   -0.48147  -0.47847  -0.47457  -0.47435  -0.46974
 Alpha  occ. eigenvalues --   -0.46928  -0.46621  -0.46589  -0.46536  -0.46396
 Alpha  occ. eigenvalues --   -0.46226  -0.46085  -0.45891  -0.45854  -0.45590
 Alpha  occ. eigenvalues --   -0.45375  -0.45051  -0.44749  -0.44672  -0.44444
 Alpha  occ. eigenvalues --   -0.44356  -0.44210  -0.44168  -0.44104  -0.43954
 Alpha  occ. eigenvalues --   -0.43888  -0.43735  -0.43547  -0.43531  -0.43260
 Alpha  occ. eigenvalues --   -0.43217  -0.43099  -0.42899  -0.42699  -0.42568
 Alpha  occ. eigenvalues --   -0.42507  -0.42398  -0.42186  -0.41829  -0.41799
 Alpha  occ. eigenvalues --   -0.41647  -0.41448  -0.41327  -0.41247  -0.41093
 Alpha  occ. eigenvalues --   -0.41040  -0.40807  -0.40742  -0.40635  -0.40407
 Alpha  occ. eigenvalues --   -0.40330  -0.40244  -0.39861  -0.39419  -0.39239
 Alpha  occ. eigenvalues --   -0.38625  -0.38163  -0.37814  -0.37599  -0.37338
 Alpha  occ. eigenvalues --   -0.37245  -0.37085  -0.36882  -0.36688  -0.36413
 Alpha  occ. eigenvalues --   -0.36172  -0.35933  -0.34441  -0.34062  -0.33668
 Alpha  occ. eigenvalues --   -0.33418  -0.33299  -0.32961  -0.31589  -0.31176
 Alpha  occ. eigenvalues --   -0.31144  -0.30780  -0.30072  -0.29695  -0.29635
 Alpha  occ. eigenvalues --   -0.29489  -0.29158  -0.29013  -0.24240  -0.23846
 Alpha  occ. eigenvalues --   -0.21305  -0.20940
 Alpha virt. eigenvalues --   -0.08950  -0.08610  -0.01946  -0.01513  -0.00236
 Alpha virt. eigenvalues --    0.00136   0.02014   0.02064   0.02450   0.03452
 Alpha virt. eigenvalues --    0.04601   0.05070   0.05223   0.05589   0.06014

 Mulliken charges:
               1
     1  Mg   0.823011
     2  C   -0.000508
     3  C   -0.093027
     4  C   -0.048603
     5  C   -0.066699
     6  N   -0.256140
     7  C   -0.051780
     8  C   -0.014152
     9  C   -0.087160
    10  C    0.046391
    11  C    0.104748
    12  C    0.053300
    13  C   -0.072233
    14  H    0.037969
    15  N   -0.432800
    16  C    0.168745
    17  C   -0.177087
    18  C   -0.004565
    19  C    0.149120
    20  C    0.110050
    21  C    0.010685
    22  O   -0.250680
    23  C    0.062909
    24  N   -0.340834
    25  C    0.042946
    26  C   -0.028523
    27  C   -0.024668
    28  C    0.074828
    29  C    0.076490
    30  C    0.068186
    31  C   -0.045606
    32  N   -0.309329
    33  C    0.076166
    34  C   -0.176363
    35  C    0.010050
    36  C    0.084291
    37  C    0.125859
    38  C    0.048268
    39  O   -0.185689
    40  C   -0.006264
    41  C    0.212230
    42  O   -0.251944
    43  O   -0.305792
    44  C    0.157055
    45  H   -0.017197
    46  H   -0.017959
    47  H   -0.042532
    48  H    0.001533
    49  H   -0.003639
    50  H    0.025824
    51  H    0.016082
    52  H    0.017011
    53  H    0.010994
    54  H    0.046648
    55  H    0.017602
    56  H    0.017507
    57  H    0.006609
    58  H    0.027053
    59  H    0.039094
    60  H    0.038302
    61  H    0.034831
    62  H    0.030479
    63  H    0.015012
    64  H    0.010120
    65  H    0.022817
    66  H    0.012995
    67  H    0.005246
    68  H    0.003013
    69  H    0.001473
    70  H    0.008199
    71  H    0.025963
    72  H    0.030405
    73  H    0.047912
    74  H    0.008207
    75  H    0.047595
    76  H    0.035315
    77  H    0.042912
    78  H    0.045757
    79  H    0.056292
    80  Mg   0.838007
    81  C   -0.015361
    82  C   -0.087879
    83  C   -0.045908
    84  C   -0.065362
    85  N   -0.254529
    86  C   -0.048654
    87  C   -0.019081
    88  C   -0.091412
    89  C    0.045718
    90  C    0.114405
    91  C    0.090258
    92  C   -0.134128
    93  H    0.068115
    94  N   -0.423311
    95  C    0.162416
    96  C   -0.175058
    97  C   -0.008378
    98  C    0.151994
    99  C    0.099382
   100  C    0.015106
   101  O   -0.253738
   102  C    0.061504
   103  N   -0.350158
   104  C    0.037344
   105  C   -0.019630
   106  C   -0.034866
   107  C    0.089235
   108  C    0.073836
   109  C    0.034806
   110  C   -0.007621
   111  N   -0.324369
   112  C    0.079008
   113  C   -0.162900
   114  C    0.002693
   115  C    0.096728
   116  C    0.131287
   117  C    0.043722
   118  O   -0.186463
   119  C    0.000374
   120  C    0.210613
   121  O   -0.245373
   122  O   -0.308695
   123  C    0.147238
   124  H   -0.019493
   125  H   -0.016182
   126  H   -0.040662
   127  H   -0.000409
   128  H   -0.002816
   129  H    0.021837
   130  H    0.014199
   131  H    0.016419
   132  H    0.008580
   133  H    0.039821
   134  H    0.034529
   135  H    0.027588
   136  H    0.009272
   137  H    0.025748
   138  H    0.038252
   139  H    0.038167
   140  H    0.035693
   141  H    0.033033
   142  H    0.013992
   143  H    0.012173
   144  H    0.024666
   145  H    0.011545
   146  H    0.005374
   147  H    0.005816
   148  H    0.003657
   149  H    0.010511
   150  H    0.017789
   151  H    0.030629
   152  H    0.046977
   153  H    0.008177
   154  H    0.046564
   155  H    0.033747
   156  H    0.039905
   157  H    0.049587
   158  H    0.064080
 Sum of Mulliken charges =  -0.00000

 Dipole moment (field-independent basis, Debye):
    X=             -2.3425    Y=              6.9946    Z=              1.6082  Tot=              7.5497
 Quadrupole moment (field-independent basis, Debye-Ang):
   XX=           -486.2926   YY=           -541.1613   ZZ=           -473.0603
   XY=            -25.9767   XZ=            -20.1285   YZ=             -1.2755

 Normal termination of Gaussian 16 at Fri Sep 10 17:00:56 2021.
