 Gaussian 16, Revision A.03,
 Gaussian 16:  ES64L-G16RevA.03 25-Dec-2016

 -----------------------------------
 #p cam-b3lyp/Def2SVP td=(nstates=5)
 -----------------------------------

 --------------------------------
 TDDFT excited states in gaussian
 --------------------------------
 Symbolic Z-matrix:
 Charge =  0 Multiplicity = 1

                         Standard orientation:
 ---------------------------------------------------------------------
 Center     Atomic      Atomic             Coordinates (Angstroms)
 Number     Number       Type             X           Y           Z
 ---------------------------------------------------------------------
      1         12           0       -6.390869   -1.022815    0.292031
      2          6           0       -6.741123    2.539107    0.339428
      3          6           0       -7.370641   -0.926663   -2.975058
      4          6           0       -6.528282   -4.190466    0.353108
      5          6           0       -6.550103   -0.937024    3.772396
      6          7           0       -6.955235    0.654410   -1.038027
      7          6           0       -6.990464    1.977570   -0.914825
      8          6           0       -7.243325    2.717043   -2.262644
      9          6           0       -7.972464    1.544658   -3.060056
     10          6           0       -7.371434    0.350589   -2.339718
     11          6           0       -9.485227    1.524930   -2.865991
     12          6           0       -5.910965    3.145191   -2.964953
     13          6           0       -6.069468    4.149715   -4.110013
     14          1           0       -5.040485    5.160425   -4.302379
     15          7           0       -6.400926   -2.333504   -1.186092
     16          6           0       -6.818425   -2.117994   -2.456736
     17          6           0       -6.626812   -3.398319   -3.171392
     18          6           0       -6.242338   -4.427548   -2.165927
     19          6           0       -6.402721   -3.688173   -0.939966
     20          6           0       -6.760693   -3.539669   -4.656601
     21          6           0       -5.810598   -5.854584   -2.289628
     22          8           0       -5.747789   -6.636172   -1.279801
     23          6           0       -5.544673   -6.344530   -3.654281
     24          7           0       -6.740557   -2.399786    1.821509
     25          6           0       -6.687150   -3.716123    1.590447
     26          6           0       -6.687206   -4.495856    2.871834
     27          6           0       -6.506122   -3.424041    4.041524
     28          6           0       -6.516060   -2.134695    3.183759
     29          6           0       -7.940916   -5.339196    3.142021
     30          6           0       -5.329028   -3.647344    5.023870
     31          6           0       -4.014247   -3.460736    4.300250
     32          7           0       -6.428642    0.517322    1.820950
     33          6           0       -6.519311    0.326976    3.207392
     34          6           0       -6.620818    1.663749    3.821235
     35          6           0       -6.598690    2.543862    2.741071
     36          6           0       -6.516680    1.802615    1.527761
     37          6           0       -6.775428    1.933661    5.209643
     38          6           0       -6.650075    3.937008    2.328322
     39          8           0       -6.627858    5.017803    2.918982
     40          6           0       -6.867159    3.984745    0.751482
     41          6           0       -5.876963    4.966020    0.185868
     42          8           0       -4.652002    4.729957    0.219235
     43          8           0       -6.532119    5.906586   -0.511733
     44          6           0       -5.605392    6.895466   -1.124471
     45          1           0       -7.890220   -1.042351   -3.928260
     46          1           0       -6.468457   -5.278299    0.427121
     47          1           0       -6.517895   -0.828133    4.858011
     48          1           0       -7.901583    3.582932   -2.189456
     49          1           0       -7.691597    1.532729   -4.113001
     50          1           0       -9.798990    2.242110   -2.107619
     51          1           0       -9.725117    0.508999   -2.551619
     52          1           0       -9.999569    1.674027   -3.815727
     53          1           0       -5.506962    2.296684   -3.517111
     54          1           0       -5.199939    3.537498   -2.237035
     55          1           0       -7.058770    4.608141   -4.103976
     56          1           0       -6.030101    3.602759   -5.052080
     57          1           0       -7.212619   -2.655257   -5.103953
     58          1           0       -7.483774   -4.334885   -4.836863
     59          1           0       -5.812348   -3.790388   -5.132116
     60          1           0       -6.445290   -6.233256   -4.258479
     61          1           0       -5.161526   -7.357999   -3.540580
     62          1           0       -4.786094   -5.711258   -4.115231
     63          1           0       -5.856848   -5.200184    2.901046
     64          1           0       -7.383759   -3.369865    4.686110
     65          1           0       -7.731471   -6.397913    3.296800
     66          1           0       -8.630120   -5.194372    2.310568
     67          1           0       -8.544599   -5.003654    3.984870
     68          1           0       -5.342676   -4.667372    5.406364
     69          1           0       -5.348406   -2.972060    5.879362
     70          1           0       -3.850630   -4.433523    3.837922
     71          1           0       -3.219556   -3.226922    5.009481
     72          1           0       -4.102281   -2.728895    3.497041
     73          1           0       -6.103746    2.761637    5.436067
     74          1           0       -6.540157    1.056590    5.812136
     75          1           0       -7.832775    2.195204    5.247988
     76          1           0       -7.896699    4.300751    0.586223
     77          1           0       -5.916791    7.882332   -0.781893
     78          1           0       -5.615666    6.705989   -2.197969
     79          1           0       -4.573486    6.871559   -0.772425
     80         12           0        6.825205   -0.466370   -0.118648
     81          6           0        5.689039    2.931735    0.084030
     82          6           0        5.171097   -0.684836   -3.093677
     83          6           0        7.428094   -3.581484   -0.111668
     84          6           0        7.397093   -0.333916    3.316632
     85          7           0        5.622117    1.001899   -1.253997
     86          6           0        5.310489    2.281018   -1.108745
     87          6           0        4.620390    2.919184   -2.344083
     88          6           0        4.015787    1.583200   -2.998652
     89          6           0        5.014489    0.567470   -2.447679
     90          6           0        2.634535    1.227852   -2.474030
     91          6           0        5.644256    3.617699   -3.306276
     92          6           0        5.014969    4.523847   -4.366769
     93          1           0        5.726984    5.737832   -4.756316
     94          7           0        6.795932   -1.783449   -1.602899
     95          6           0        6.085674   -1.703733   -2.747647
     96          6           0        6.394242   -2.930389   -3.498818
     97          6           0        7.216062   -3.817426   -2.631356
     98          6           0        7.159855   -3.088252   -1.380260
     99          6           0        5.986787   -3.132722   -4.929370
    100          6           0        7.923455   -5.114637   -2.882416
    101          8           0        8.378932   -5.830179   -1.921490
    102          6           0        7.984911   -5.568144   -4.279573
    103          7           0        7.137925   -1.838561    1.411602
    104          6           0        7.432905   -3.121918    1.139768
    105          6           0        7.885239   -3.852482    2.381561
    106          6           0        8.064749   -2.725311    3.501761
    107          6           0        7.578033   -1.495759    2.703818
    108          6           0        6.938964   -4.936306    2.897595
    109          6           0        9.446061   -2.648649    4.208007
    110          6           0       10.503727   -2.199387    3.225715
    111          7           0        6.772276    1.060358    1.409219
    112          6           0        7.021136    0.894922    2.789351
    113          6           0        6.751718    2.194026    3.439114
    114          6           0        6.339386    3.025472    2.386899
    115          6           0        6.331621    2.290542    1.170626
    116          6           0        6.850958    2.463276    4.833302
    117          6           0        5.898733    4.354874    2.030230
    118          8           0        5.794760    5.425180    2.628045
    119          6           0        5.336670    4.319173    0.543892
    120          6           0        5.933105    5.478530   -0.206225
    121          8           0        7.155884    5.526017   -0.427968
    122          8           0        4.941044    6.225623   -0.723926
    123          6           0        5.482817    7.381780   -1.486568
    124          1           0        4.502011   -0.930191   -3.918914
    125          1           0        7.749133   -4.624854   -0.069601
    126          1           0        7.645795   -0.184273    4.369448
    127          1           0        3.821802    3.613005   -2.110346
    128          1           0        4.066092    1.617340   -4.083853
    129          1           0        2.336134    1.869315   -1.658177
    130          1           0        2.701342    0.199995   -2.142224
    131          1           0        1.907761    1.234051   -3.291401
    132          1           0        6.101301    2.859052   -3.954585
    133          1           0        6.376402    4.168628   -2.748543
    134          1           0        3.964363    4.748552   -4.146138
    135          1           0        4.979373    3.978049   -5.312740
    136          1           0        5.252461   -2.382802   -5.248385
    137          1           0        5.442844   -4.082380   -4.975666
    138          1           0        6.841189   -3.181387   -5.607830
    139          1           0        6.975403   -5.673925   -4.669652
    140          1           0        8.605787   -6.466069   -4.268311
    141          1           0        8.473880   -4.791573   -4.878275
    142          1           0        8.838401   -4.340092    2.217773
    143          1           0        7.357272   -2.860647    4.333017
    144          1           0        7.417068   -5.930764    2.978495
    145          1           0        6.079661   -4.979737    2.241667
    146          1           0        6.481957   -4.728644    3.863625
    147          1           0        9.747992   -3.638894    4.557877
    148          1           0        9.455583   -1.986695    5.067489
    149          1           0       10.775642   -3.127562    2.714200
    150          1           0       11.356762   -1.772972    3.749676
    151          1           0       10.081240   -1.521075    2.475352
    152          1           0        7.344612    3.421009    4.931075
    153          1           0        7.397795    1.678516    5.351854
    154          1           0        5.792196    2.474553    5.105612
    155          1           0        4.249623    4.385539    0.603042
    156          1           0        5.032390    8.284129   -1.061629
    157          1           0        5.268839    7.164860   -2.550008
    158          1           0        6.538542    7.602073   -1.379995
 ---------------------------------------------------------------------

 SCF Done:  E(RCAM-B3LYP) =  -4069.81158741     A.U. after   19 cycles

 Excitation energies and oscillator strengths:

 Excited State   1:      Singlet-A      1.6651 eV  744.61 nm  f=0.0059  <S**2>=0.000
     309 -> 315       -0.11107
     310 -> 316        0.13031
     311 -> 313       -0.44359
     312 -> 314        0.52413
 This state for optimization and/or second-order correction.
 Total Energy, E(TD-HF/TD-DFT) =  -4069.75039622
 Copying the excited state density for this state as the 1-particle RhoCI density.

 Excited State   2:      Singlet-A      1.6894 eV  733.91 nm  f=0.7364  <S**2>=0.000
     309 -> 315        0.13596
     310 -> 316        0.11426
     311 -> 313        0.52290
     312 -> 314        0.44264

 Excited State   3:      Singlet-A      2.1845 eV  567.55 nm  f=0.0459  <S**2>=0.000
     309 -> 313       -0.19348
     310 -> 314        0.61330
     312 -> 316       -0.25933

 Excited State   4:      Singlet-A      2.1933 eV  565.29 nm  f=0.1445  <S**2>=0.000
     309 -> 313        0.61086
     310 -> 314        0.19180
     311 -> 315       -0.26619

 Excited State   5:      Singlet-A      2.6322 eV  471.03 nm  f=0.0000  <S**2>=0.000
     312 -> 313        0.70706

 The electronic state is 1-A.
 Alpha  occ. eigenvalues --  -46.87892 -46.87540 -19.26362 -19.26192 -19.19101
 Alpha  occ. eigenvalues --  -19.19014 -19.18913 -19.18621 -19.18239 -19.17900
 Alpha  occ. eigenvalues --  -14.42548 -14.42375 -14.41540 -14.41241 -14.39499
 Alpha  occ. eigenvalues --  -14.39235 -14.38677 -14.38476 -10.39161 -10.38940
 Alpha  occ. eigenvalues --  -10.35548 -10.35301 -10.34460 -10.34074 -10.31754
 Alpha  occ. eigenvalues --  -10.31613 -10.31498 -10.31178 -10.31013 -10.30901
 Alpha  occ. eigenvalues --  -10.30659 -10.30595 -10.30298 -10.30277 -10.30236
 Alpha  occ. eigenvalues --  -10.30035 -10.30002 -10.29774 -10.29720 -10.29349
 Alpha  occ. eigenvalues --  -10.29325 -10.29284 -10.28865 -10.28694 -10.28579
 Alpha  occ. eigenvalues --  -10.28559 -10.28459 -10.28280 -10.28225 -10.28000
 Alpha  occ. eigenvalues --  -10.27880 -10.27879 -10.27824 -10.27678 -10.27600
 Alpha  occ. eigenvalues --  -10.27574 -10.27552 -10.27521 -10.27497 -10.27421
 Alpha  occ. eigenvalues --  -10.27394 -10.27356 -10.27353 -10.27276 -10.27238
 Alpha  occ. eigenvalues --  -10.26883 -10.26853 -10.26581 -10.26527 -10.26347
 Alpha  occ. eigenvalues --  -10.26328 -10.26248 -10.26106 -10.26052 -10.25895
 Alpha  occ. eigenvalues --  -10.25842 -10.25820 -10.25717 -10.25499 -10.25302
 Alpha  occ. eigenvalues --  -10.24917 -10.24876 -10.24753 -10.24745 -10.24650
 Alpha  occ. eigenvalues --  -10.24572  -3.16635  -3.16290  -1.91517  -1.91173
 Alpha  occ. eigenvalues --   -1.91103  -1.90945  -1.90761  -1.90598  -1.16712
 Alpha  occ. eigenvalues --   -1.16489  -1.08695  -1.08502  -1.07314  -1.06875
 Alpha  occ. eigenvalues --   -1.06797  -1.06723  -1.04678  -1.04371  -1.03852
 Alpha  occ. eigenvalues --   -1.03543  -1.03325  -1.02921  -1.02502  -1.01991
 Alpha  occ. eigenvalues --   -0.92060  -0.91852  -0.89600  -0.89384  -0.89299
 Alpha  occ. eigenvalues --   -0.89016  -0.88366  -0.88115  -0.87948  -0.87772
 Alpha  occ. eigenvalues --   -0.87667  -0.87566  -0.87376  -0.87023  -0.85090
 Alpha  occ. eigenvalues --   -0.84876  -0.84011  -0.83771  -0.83067  -0.82842
 Alpha  occ. eigenvalues --   -0.82750  -0.82533  -0.81671  -0.81463  -0.80688
 Alpha  occ. eigenvalues --   -0.80319  -0.78892  -0.78527  -0.77312  -0.77030
 Alpha  occ. eigenvalues --   -0.77028  -0.76774  -0.76015  -0.75703  -0.74977
 Alpha  occ. eigenvalues --   -0.74691  -0.72861  -0.72579  -0.71761  -0.71455
 Alpha  occ. eigenvalues --   -0.69982  -0.69659  -0.68977  -0.68706  -0.67732
 Alpha  occ. eigenvalues --   -0.67484  -0.67339  -0.67092  -0.65391  -0.65142
 Alpha  occ. eigenvalues --   -0.64941  -0.64712  -0.64648  -0.64528  -0.64351
 Alpha  occ. eigenvalues --   -0.64094  -0.62379  -0.62143  -0.60537  -0.60236
 Alpha  occ. eigenvalues --   -0.59907  -0.59666  -0.59075  -0.58871  -0.58591
 Alpha  occ. eigenvalues --   -0.58301  -0.57665  -0.57407  -0.57393  -0.57121
 Alpha  occ. eigenvalues --   -0.56398  -0.56086  -0.56067  -0.55754  -0.55614
 Alpha  occ. eigenvalues --   -0.55415  -0.55336  -0.55129  -0.54601  -0.54366
 Alpha  occ. eigenvalues --   -0.54006  -0.53782  -0.53390  -0.53323  -0.53115
 Alpha  occ. eigenvalues --   -0.53021  -0.53003  -0.52864  -0.52779  -0.52568
 Alpha  occ. eigenvalues --   -0.52511  -0.52304  -0.51983  -0.51753  -0.51726
 Alpha  occ. eigenvalues --   -0.51541  -0.51279  -0.51074  -0.50683  -0.50390
 Alpha  occ. eigenvalues --   -0.50115  -0.50018  -0.49865  -0.49763  -0.49616
 Alpha  occ. eigenvalues --   -0.49374  -0.49304  -0.49193  -0.49075  -0.48966
 Alpha  occ. eigenvalues --   -0.48678  -0.48550  -0.48528  -0.48427  -0.48267
 Alpha  occ. eigenvalues --   -0.48230  -0.47790  -0.47479  -0.47388  -0.47012
 Alpha  occ. eigenvalues --   -0.46886  -0.46664  -0.46593  -0.46446  -0.46433
 Alpha  occ. eigenvalues --   -0.46242  -0.46158  -0.45964  -0.45899  -0.45687
 Alpha  occ. eigenvalues --   -0.45280  -0.45099  -0.44660  -0.44607  -0.44385
 Alpha  occ. eigenvalues --   -0.44358  -0.44232  -0.44191  -0.44107  -0.43998
 Alpha  occ. eigenvalues --   -0.43972  -0.43823  -0.43576  -0.43483  -0.43423
 Alpha  occ. eigenvalues --   -0.43262  -0.43113  -0.42799  -0.42779  -0.42764
 Alpha  occ. eigenvalues --   -0.42731  -0.42451  -0.42095  -0.41854  -0.41790
 Alpha  occ. eigenvalues --   -0.41641  -0.41536  -0.41341  -0.41232  -0.40972
 Alpha  occ. eigenvalues --   -0.40929  -0.40863  -0.40653  -0.40622  -0.40586
 Alpha  occ. eigenvalues --   -0.40381  -0.40365  -0.40114  -0.39516  -0.39330
 Alpha  occ. eigenvalues --   -0.38555  -0.38244  -0.37869  -0.37541  -0.37406
 Alpha  occ. eigenvalues --   -0.37371  -0.37154  -0.37077  -0.36793  -0.36633
 Alpha  occ. eigenvalues --   -0.36278  -0.36096  -0.34377  -0.34131  -0.33854
 Alpha  occ. eigenvalues --   -0.33720  -0.33276  -0.33055  -0.31442  -0.31179
 Alpha  occ. eigenvalues --   -0.31127  -0.30851  -0.30098  -0.29801  -0.29543
 Alpha  occ. eigenvalues --   -0.29406  -0.29214  -0.29084  -0.24173  -0.23913
 Alpha  occ. eigenvalues --   -0.21219  -0.20998
 Alpha virt. eigenvalues --   -0.08866  -0.08672  -0.01842  -0.01567  -0.00155
 Alpha virt. eigenvalues --    0.00083   0.02121   0.02341   0.03001   0.03332
 Alpha virt. eigenvalues --    0.04613   0.04851   0.05017   0.05315   0.06051

 Mulliken charges:
               1
     1  Mg   0.838183
     2  C   -0.003163
     3  C   -0.094602
     4  C   -0.045785
     5  C   -0.063767
     6  N   -0.256739
     7  C   -0.052619
     8  C   -0.013881
     9  C   -0.086914
    10  C    0.046051
    11  C    0.104789
    12  C    0.053654
    13  C   -0.071559
    14  H    0.035426
    15  N   -0.433105
    16  C    0.168130
    17  C   -0.177533
    18  C   -0.004134
    19  C    0.148542
    20  C    0.110234
    21  C    0.012113
    22  O   -0.249389
    23  C    0.062648
    24  N   -0.341119
    25  C    0.041186
    26  C   -0.028198
    27  C   -0.024071
    28  C    0.074899
    29  C    0.076109
    30  C    0.035059
    31  C   -0.004520
    32  N   -0.310563
    33  C    0.080512
    34  C   -0.169313
    35  C    0.008622
    36  C    0.083002
    37  C    0.127200
    38  C    0.046423
    39  O   -0.187651
    40  C   -0.005440
    41  C    0.213104
    42  O   -0.257289
    43  O   -0.304756
    44  C    0.157514
    45  H   -0.017683
    46  H   -0.016700
    47  H   -0.041105
    48  H    0.001220
    49  H   -0.004427
    50  H    0.025668
    51  H    0.016609
    52  H    0.016680
    53  H    0.010320
    54  H    0.043865
    55  H    0.018427
    56  H    0.017553
    57  H    0.005703
    58  H    0.027010
    59  H    0.038662
    60  H    0.037462
    61  H    0.035770
    62  H    0.030675
    63  H    0.016624
    64  H    0.009689
    65  H    0.023355
    66  H    0.012550
    67  H    0.004924
    68  H    0.006556
    69  H    0.004986
    70  H    0.008786
    71  H    0.018365
    72  H    0.028742
    73  H    0.048215
    74  H    0.009325
    75  H    0.046212
    76  H    0.035331
    77  H    0.043482
    78  H    0.045945
    79  H    0.053913
    80  Mg   0.837841
    81  C   -0.016695
    82  C   -0.087830
    83  C   -0.045582
    84  C   -0.064954
    85  N   -0.254570
    86  C   -0.049345
    87  C   -0.015248
    88  C   -0.090667
    89  C    0.045906
    90  C    0.114301
    91  C    0.062587
    92  C   -0.077624
    93  H    0.034349
    94  N   -0.423443
    95  C    0.162842
    96  C   -0.174865
    97  C   -0.008022
    98  C    0.152045
    99  C    0.099542
   100  C    0.015418
   101  O   -0.253397
   102  C    0.061287
   103  N   -0.350014
   104  C    0.037484
   105  C   -0.019782
   106  C   -0.034839
   107  C    0.089054
   108  C    0.073710
   109  C    0.034772
   110  C   -0.007617
   111  N   -0.324224
   112  C    0.078664
   113  C   -0.163026
   114  C    0.002727
   115  C    0.096146
   116  C    0.131398
   117  C    0.042865
   118  O   -0.187154
   119  C    0.000661
   120  C    0.211088
   121  O   -0.251524
   122  O   -0.304956
   123  C    0.152230
   124  H   -0.020263
   125  H   -0.015834
   126  H   -0.040554
   127  H    0.000621
   128  H   -0.005163
   129  H    0.024979
   130  H    0.014159
   131  H    0.015516
   132  H    0.013522
   133  H    0.037622
   134  H    0.021181
   135  H    0.018951
   136  H    0.008255
   137  H    0.025644
   138  H    0.039354
   139  H    0.037996
   140  H    0.036105
   141  H    0.033692
   142  H    0.014162
   143  H    0.012377
   144  H    0.024864
   145  H    0.011839
   146  H    0.005524
   147  H    0.006042
   148  H    0.003598
   149  H    0.010802
   150  H    0.017749
   151  H    0.030214
   152  H    0.045968
   153  H    0.008181
   154  H    0.047746
   155  H    0.037176
   156  H    0.044176
   157  H    0.049077
   158  H    0.053183
 Sum of Mulliken charges =  -0.00000

 Dipole moment (field-independent basis, Debye):
    X=             -4.6017    Y=             -3.3147    Z=             -6.7645  Tot=              8.8273
 Quadrupole moment (field-independent basis, Debye-Ang):
   XX=           -517.4184   YY=           -558.1418   ZZ=           -446.7959
   XY=             -6.9070   XZ=             19.7825   YZ=            -40.1514

 Normal termination of Gaussian 16 at Sat Sep 11 14:30:40 2021.
