 Gaussian 16, Revision A.03,
 Gaussian 16:  ES64L-G16RevA.03 25-Dec-2016

 -----------------------------------
 #p cam-b3lyp/Def2SVP td=(nstates=5)
 -----------------------------------

 --------------------------------
 TDDFT excited states in gaussian
 --------------------------------
 Symbolic Z-matrix:
 Charge =  0 Multiplicity = 1

                         Standard orientation:
 ---------------------------------------------------------------------
 Center     Atomic      Atomic             Coordinates (Angstroms)
 Number     Number       Type             X           Y           Z
 ---------------------------------------------------------------------
      1         12           0       -7.832287    0.511292   -0.673597
      2          6           0       -8.178529   -2.363320    1.430907
      3          6           0       -8.941424    2.384077    1.954246
      4          6           0       -7.968797    2.994360   -2.641428
      5          6           0       -7.852657   -1.663160   -3.397015
      6          7           0       -8.448338   -0.035221    1.381263
      7          6           0       -8.477945   -1.164520    2.081962
      8          6           0       -8.783932   -0.945666    3.593865
      9          6           0       -9.544876    0.452035    3.496940
     10          6           0       -8.916236    0.982849    2.220628
     11          6           0      -11.048714    0.313465    3.282995
     12          6           0       -7.480396   -0.829871    4.453584
     13          6           0       -7.683884   -0.942312    5.967289
     14          1           0       -6.662860   -1.606032    6.763740
     15          7           0       -7.901918    2.447945   -0.289700
     16          6           0       -8.369609    3.033536    0.838854
     17          6           0       -8.207290    4.489795    0.639746
     18          6           0       -7.783586    4.711771   -0.770678
     19          6           0       -7.894605    3.378356   -1.304585
     20          6           0       -8.400323    5.496208    1.732275
     21          6           0       -7.357858    5.933833   -1.521311
     22          8           0       -7.255262    5.948024   -2.795613
     23          6           0       -7.146778    7.154914   -0.722906
     24          7           0       -8.121460    0.675773   -2.734412
     25          6           0       -8.077985    1.865232   -3.344561
     26          6           0       -8.027382    1.712378   -4.835873
     27          6           0       -7.799275    0.156499   -5.113292
     28          6           0       -7.842719   -0.352721   -3.651418
     29          6           0       -9.269765    2.190259   -5.600153
     30          6           0       -6.584085   -0.230135   -5.993206
     31          6           0       -5.299088    0.090511   -5.263091
     32          7           0       -7.808305   -1.639993   -0.960725
     33          6           0       -7.843751   -2.328025   -2.182211
     34          6           0       -7.920023   -3.766149   -1.865903
     35          6           0       -7.940502   -3.814258   -0.473383
     36          6           0       -7.907291   -2.488914    0.046860
     37          6           0       -8.019043   -4.823573   -2.812731
     38          6           0       -8.007573   -4.675978    0.695718
     39          8           0       -7.961276   -5.893158    0.879625
     40          6           0       -8.287297   -3.766882    1.972873
     41          6           0       -7.319918   -4.182655    3.047406
     42          8           0       -6.094724   -3.984749    2.916646
     43          8           0       -8.001866   -4.526591    4.150672
     44          6           0       -7.099781   -4.921513    5.265317
     45          1           0       -9.498635    3.039255    2.626702
     46          1           0       -7.906634    3.817680   -3.356073
     47          1           0       -7.777157   -2.404845   -4.194296
     48          1           0       -9.438302   -1.695762    4.038363
     49          1           0       -9.306198    1.104418    4.336672
     50          1           0      -11.331635   -0.723594    3.103037
     51          1           0      -11.276412    0.926984    2.411077
     52          1           0      -11.600417    0.755753    4.112924
     53          1           0       -7.099157    0.189457    4.392849
     54          1           0       -6.740725   -1.564635    4.133686
     55          1           0       -8.671922   -1.335378    6.208515
     56          1           0       -7.682372    0.063380    6.387743
     57          1           0       -8.869259    5.050828    2.608792
     58          1           0       -9.130425    6.220836    1.372310
     59          1           0       -7.471810    6.006385    1.989016
     60          1           0       -8.070700    7.409154   -0.203022
     61          1           0       -6.759930    7.902946   -1.414025
     62          1           0       -6.406843    6.947464    0.050663
     63          1           0       -7.196884    2.276141   -5.258803
     64          1           0       -8.650500   -0.297505   -5.621201
     65          1           0       -9.054868    2.945268   -6.356781
     66          1           0       -9.991481    2.560221   -4.872454
     67          1           0       -9.839208    1.399080   -6.087172
     68          1           0       -6.583008    0.351044   -6.914713
     69          1           0       -6.569007   -1.285270   -6.266543
     70          1           0       -5.154529    1.148690   -5.478014
     71          1           0       -4.476645   -0.504662   -5.661298
     72          1           0       -5.418681   -0.009472   -4.184116
     73          1           0       -7.338443   -5.603440   -2.471322
     74          1           0       -7.760404   -4.483058   -3.815107
     75          1           0       -9.073886   -5.080984   -2.718379
     76          1           0       -9.322440   -3.944016    2.263086
     77          1           0       -7.396770   -5.922197    5.579424
     78          1           0       -7.152923   -4.122414    6.004927
     79          1           0       -6.054678   -5.089828    5.003080
     80         12           0        7.997381    0.656090    0.613097
     81          6           0        8.027298   -1.784058   -2.018230
     82          6           0        6.971445   -1.833366    2.707065
     83          6           0        7.527288    2.862274    2.844501
     84          6           0        7.905838    3.113954   -1.855950
     85          7           0        7.588380   -1.490515    0.270929
     86          6           0        7.693568   -2.319494   -0.756728
     87          6           0        7.504619   -3.817547   -0.396623
     88          6           0        6.632280   -3.635547    0.939328
     89          6           0        7.114345   -2.248385    1.358936
     90          6           0        5.137300   -3.562427    0.676614
     91          6           0        8.866848   -4.537315   -0.099535
     92          6           0        8.788582   -6.064590   -0.044344
     93          1           0        9.921731   -6.838127   -0.544435
     94          7           0        7.823308    0.474891    2.581710
     95          6           0        7.414306   -0.614260    3.265628
     96          6           0        7.440627   -0.230966    4.685676
     97          6           0        7.740431    1.224081    4.773316
     98          6           0        7.686914    1.589126    3.371897
     99          6           0        7.273805   -1.223326    5.799585
    100          6           0        8.015502    2.138505    5.928458
    101          8           0        8.015154    3.413083    5.793202
    102          6           0        8.192879    1.501110    7.241376
    103          7           0        7.538831    2.681713    0.518643
    104          6           0        7.441297    3.421347    1.637284
    105          6           0        7.378838    4.894926    1.313186
    106          6           0        7.699550    5.005042   -0.249697
    107          6           0        7.808821    3.502968   -0.592059
    108          6           0        6.047608    5.585306    1.609148
    109          6           0        8.864991    5.944382   -0.664509
    110          6           0       10.180262    5.381812   -0.175679
    111          7           0        8.156088    0.703387   -1.541115
    112          6           0        8.064955    1.836819   -2.378438
    113          6           0        8.118273    1.353084   -3.773277
    114          6           0        8.214316   -0.041209   -3.649938
    115          6           0        8.200084   -0.402516   -2.275621
    116          6           0        8.029309    2.164737   -4.939217
    117          6           0        8.313793   -1.290295   -4.370064
    118          8           0        8.454693   -1.602962   -5.551634
    119          6           0        8.069729   -2.483344   -3.348567
    120          6           0        9.147732   -3.509438   -3.566666
    121          8           0       10.336341   -3.239752   -3.319524
    122          8           0        8.576909   -4.700895   -3.821560
    123          6           0        9.605756   -5.753578   -4.034055
    124          1           0        6.431697   -2.483949    3.395755
    125          1           0        7.472252    3.672057    3.575740
    126          1           0        7.981571    3.824978   -2.681404
    127          1           0        6.949883   -4.393910   -1.127273
    128          1           0        6.899686   -4.375209    1.689497
    129          1           0        4.915137   -3.526237   -0.379546
    130          1           0        4.796422   -2.659512    1.166089
    131          1           0        4.625554   -4.388766    1.178228
    132          1           0        9.164670   -4.326913    0.935734
    133          1           0        9.617227   -4.239218   -0.805735
    134          1           0        7.848964   -6.444582   -0.463466
    135          1           0        8.758694   -6.372894    1.003547
    136          1           0        6.903731   -2.186815    5.427904
    137          1           0        6.467247   -0.851654    6.440836
    138          1           0        8.178510   -1.338175    6.400401
    139          1           0        7.300391    0.931786    7.489945
    140          1           0        8.468806    2.307983    7.923066
    141          1           0        9.016240    0.781417    7.172501
    142          1           0        8.130822    5.444652    1.865822
    143          1           0        6.840496    5.394619   -0.815470
    144          1           0        6.146322    6.448199    2.294529
    145          1           0        5.365831    4.851261    2.017676
    146          1           0        5.506965    5.940644    0.733567
    147          1           0        8.750320    6.922261   -0.190402
    148          1           0        8.925739    6.110579   -1.734867
    149          1           0       10.224717    5.724588    0.862402
    150          1           0       11.007869    5.780624   -0.758814
    151          1           0       10.158164    4.285935   -0.160291
    152          1           0        8.782085    1.804333   -5.627647
    153          1           0        8.176059    3.216715   -4.703482
    154          1           0        7.001862    1.952432   -5.246725
    155          1           0        7.075472   -2.885734   -3.546350
    156          1           0        9.404550   -6.204452   -5.010735
    157          1           0        9.542020   -6.416271   -3.150580
    158          1           0       10.633454   -5.432408   -4.157055
 ---------------------------------------------------------------------

 SCF Done:  E(RCAM-B3LYP) =  -4069.81190914     A.U. after   19 cycles

 Excitation energies and oscillator strengths:

 Excited State   1:      Singlet-A      1.6751 eV  740.17 nm  f=0.3601  <S**2>=0.000
     310 -> 316        0.17090
     311 -> 313       -0.11195
     312 -> 314        0.67686
     310 <- 316        0.10301
 This state for optimization and/or second-order correction.
 Total Energy, E(TD-HF/TD-DFT) =  -4069.75035151
 Copying the excited state density for this state as the 1-particle RhoCI density.

 Excited State   2:      Singlet-A      1.6797 eV  738.14 nm  f=0.3892  <S**2>=0.000
     309 -> 315        0.17325
     311 -> 313        0.67650
     312 -> 314        0.11185
     309 <- 315        0.10378

 Excited State   3:      Singlet-A      2.1856 eV  567.27 nm  f=0.1004  <S**2>=0.000
     310 -> 314        0.64172
     312 -> 316       -0.27215

 Excited State   4:      Singlet-A      2.1928 eV  565.43 nm  f=0.0991  <S**2>=0.000
     309 -> 313        0.63982
     311 -> 315       -0.27802

 Excited State   5:      Singlet-A      2.7631 eV  448.71 nm  f=0.0000  <S**2>=0.000
     312 -> 313        0.70710

 The electronic state is 1-A.
 Alpha  occ. eigenvalues --  -46.87839 -46.87586 -19.26371 -19.26268 -19.19106
 Alpha  occ. eigenvalues --  -19.19083 -19.18850 -19.18662 -19.18226 -19.17979
 Alpha  occ. eigenvalues --  -14.42494 -14.42416 -14.41489 -14.41288 -14.39445
 Alpha  occ. eigenvalues --  -14.39279 -14.38631 -14.38527 -10.39162 -10.39012
 Alpha  occ. eigenvalues --  -10.35482 -10.35340 -10.34447 -10.34155 -10.31778
 Alpha  occ. eigenvalues --  -10.31675 -10.31452 -10.31221 -10.30955 -10.30940
 Alpha  occ. eigenvalues --  -10.30615 -10.30550 -10.30329 -10.30285 -10.30241
 Alpha  occ. eigenvalues --  -10.30074 -10.29960 -10.29829 -10.29673 -10.29365
 Alpha  occ. eigenvalues --  -10.29332 -10.29294 -10.28804 -10.28614 -10.28611
 Alpha  occ. eigenvalues --  -10.28552 -10.28410 -10.28330 -10.28166 -10.28022
 Alpha  occ. eigenvalues --  -10.27929 -10.27837 -10.27770 -10.27626 -10.27584
 Alpha  occ. eigenvalues --  -10.27524 -10.27516 -10.27474 -10.27466 -10.27450
 Alpha  occ. eigenvalues --  -10.27407 -10.27399 -10.27394 -10.27327 -10.27219
 Alpha  occ. eigenvalues --  -10.26970 -10.26771 -10.26596 -10.26440 -10.26372
 Alpha  occ. eigenvalues --  -10.26279 -10.26197 -10.26095 -10.26057 -10.25887
 Alpha  occ. eigenvalues --  -10.25865 -10.25865 -10.25788 -10.25455 -10.25359
 Alpha  occ. eigenvalues --  -10.24879 -10.24827 -10.24801 -10.24700 -10.24691
 Alpha  occ. eigenvalues --  -10.24622  -3.16582  -3.16336  -1.91464  -1.91218
 Alpha  occ. eigenvalues --   -1.91050  -1.90893  -1.90807  -1.90644  -1.16719
 Alpha  occ. eigenvalues --   -1.16563  -1.08687  -1.08586  -1.07250  -1.06915
 Alpha  occ. eigenvalues --   -1.06868  -1.06727  -1.04626  -1.04414  -1.03801
 Alpha  occ. eigenvalues --   -1.03589  -1.03276  -1.02969  -1.02453  -1.02039
 Alpha  occ. eigenvalues --   -0.92022  -0.91910  -0.89553  -0.89432  -0.89239
 Alpha  occ. eigenvalues --   -0.89045  -0.88318  -0.88163  -0.87915  -0.87723
 Alpha  occ. eigenvalues --   -0.87717  -0.87604  -0.87312  -0.87056  -0.85032
 Alpha  occ. eigenvalues --   -0.84908  -0.83968  -0.83822  -0.83000  -0.82876
 Alpha  occ. eigenvalues --   -0.82698  -0.82569  -0.81648  -0.81520  -0.80647
 Alpha  occ. eigenvalues --   -0.80368  -0.78838  -0.78566  -0.77260  -0.77065
 Alpha  occ. eigenvalues --   -0.76987  -0.76817  -0.75977  -0.75747  -0.74934
 Alpha  occ. eigenvalues --   -0.74741  -0.72816  -0.72626  -0.71715  -0.71501
 Alpha  occ. eigenvalues --   -0.69932  -0.69704  -0.68922  -0.68740  -0.67686
 Alpha  occ. eigenvalues --   -0.67531  -0.67272  -0.67118  -0.65339  -0.65182
 Alpha  occ. eigenvalues --   -0.64903  -0.64696  -0.64669  -0.64575  -0.64304
 Alpha  occ. eigenvalues --   -0.64142  -0.62362  -0.62203  -0.60479  -0.60276
 Alpha  occ. eigenvalues --   -0.59853  -0.59702  -0.59031  -0.58920  -0.58549
 Alpha  occ. eigenvalues --   -0.58353  -0.57645  -0.57478  -0.57351  -0.57172
 Alpha  occ. eigenvalues --   -0.56355  -0.56131  -0.56048  -0.55807  -0.55564
 Alpha  occ. eigenvalues --   -0.55383  -0.55381  -0.55185  -0.54575  -0.54423
 Alpha  occ. eigenvalues --   -0.53947  -0.53811  -0.53340  -0.53271  -0.53160
 Alpha  occ. eigenvalues --   -0.53064  -0.52969  -0.52824  -0.52798  -0.52595
 Alpha  occ. eigenvalues --   -0.52464  -0.52350  -0.51961  -0.51818  -0.51668
 Alpha  occ. eigenvalues --   -0.51573  -0.51244  -0.51129  -0.50606  -0.50414
 Alpha  occ. eigenvalues --   -0.50061  -0.49958  -0.49900  -0.49806  -0.49562
 Alpha  occ. eigenvalues --   -0.49411  -0.49263  -0.49147  -0.49122  -0.49011
 Alpha  occ. eigenvalues --   -0.48647  -0.48498  -0.48490  -0.48475  -0.48318
 Alpha  occ. eigenvalues --   -0.48275  -0.47739  -0.47518  -0.47339  -0.47049
 Alpha  occ. eigenvalues --   -0.46838  -0.46635  -0.46608  -0.46461  -0.46402
 Alpha  occ. eigenvalues --   -0.46208  -0.46202  -0.46019  -0.45878  -0.45746
 Alpha  occ. eigenvalues --   -0.45234  -0.45149  -0.44631  -0.44547  -0.44440
 Alpha  occ. eigenvalues --   -0.44389  -0.44185  -0.44135  -0.44068  -0.44041
 Alpha  occ. eigenvalues --   -0.44015  -0.43868  -0.43554  -0.43478  -0.43429
 Alpha  occ. eigenvalues --   -0.43305  -0.43072  -0.42855  -0.42827  -0.42768
 Alpha  occ. eigenvalues --   -0.42692  -0.42495  -0.42049  -0.41895  -0.41751
 Alpha  occ. eigenvalues --   -0.41594  -0.41583  -0.41374  -0.41185  -0.40914
 Alpha  occ. eigenvalues --   -0.40905  -0.40862  -0.40653  -0.40618  -0.40606
 Alpha  occ. eigenvalues --   -0.40426  -0.40292  -0.40136  -0.39464  -0.39374
 Alpha  occ. eigenvalues --   -0.38503  -0.38287  -0.37805  -0.37565  -0.37356
 Alpha  occ. eigenvalues --   -0.37316  -0.37198  -0.37113  -0.36781  -0.36697
 Alpha  occ. eigenvalues --   -0.36244  -0.36147  -0.34330  -0.34179  -0.33849
 Alpha  occ. eigenvalues --   -0.33786  -0.33232  -0.33102  -0.31380  -0.31220
 Alpha  occ. eigenvalues --   -0.31079  -0.30898  -0.30087  -0.29883  -0.29491
 Alpha  occ. eigenvalues --   -0.29367  -0.29259  -0.29140  -0.24124  -0.23961
 Alpha  occ. eigenvalues --   -0.21170  -0.21043
 Alpha virt. eigenvalues --   -0.08817  -0.08720  -0.01790  -0.01613  -0.00100
 Alpha virt. eigenvalues --    0.00041   0.02152   0.02277   0.03073   0.03292
 Alpha virt. eigenvalues --    0.04670   0.04817   0.05020   0.05243   0.06114

 Mulliken charges:
               1
     1  Mg   0.838614
     2  C   -0.003139
     3  C   -0.094142
     4  C   -0.045777
     5  C   -0.063879
     6  N   -0.256794
     7  C   -0.052531
     8  C   -0.013998
     9  C   -0.087019
    10  C    0.046298
    11  C    0.104788
    12  C    0.053476
    13  C   -0.071681
    14  H    0.035592
    15  N   -0.433150
    16  C    0.168447
    17  C   -0.177097
    18  C   -0.003923
    19  C    0.148705
    20  C    0.110150
    21  C    0.012320
    22  O   -0.249474
    23  C    0.062453
    24  N   -0.341140
    25  C    0.041286
    26  C   -0.028224
    27  C   -0.024022
    28  C    0.074846
    29  C    0.076129
    30  C    0.035107
    31  C   -0.004571
    32  N   -0.310424
    33  C    0.080325
    34  C   -0.169776
    35  C    0.008254
    36  C    0.082899
    37  C    0.127345
    38  C    0.045950
    39  O   -0.188731
    40  C   -0.005280
    41  C    0.212860
    42  O   -0.257524
    43  O   -0.304633
    44  C    0.157867
    45  H   -0.017524
    46  H   -0.016679
    47  H   -0.041358
    48  H    0.000896
    49  H   -0.004019
    50  H    0.025474
    51  H    0.016555
    52  H    0.016730
    53  H    0.011255
    54  H    0.043799
    55  H    0.017981
    56  H    0.018107
    57  H    0.005900
    58  H    0.026950
    59  H    0.039649
    60  H    0.037418
    61  H    0.035752
    62  H    0.031500
    63  H    0.016693
    64  H    0.009553
    65  H    0.023377
    66  H    0.012519
    67  H    0.004858
    68  H    0.006626
    69  H    0.004817
    70  H    0.008881
    71  H    0.018437
    72  H    0.028689
    73  H    0.047336
    74  H    0.009275
    75  H    0.046067
    76  H    0.035215
    77  H    0.042898
    78  H    0.046459
    79  H    0.053135
    80  Mg   0.837858
    81  C   -0.016810
    82  C   -0.087581
    83  C   -0.045644
    84  C   -0.064931
    85  N   -0.254610
    86  C   -0.049599
    87  C   -0.015146
    88  C   -0.090496
    89  C    0.045736
    90  C    0.114219
    91  C    0.062476
    92  C   -0.077900
    93  H    0.034600
    94  N   -0.423483
    95  C    0.162868
    96  C   -0.174470
    97  C   -0.008014
    98  C    0.152241
    99  C    0.099314
   100  C    0.015462
   101  O   -0.253516
   102  C    0.061240
   103  N   -0.350024
   104  C    0.037569
   105  C   -0.019806
   106  C   -0.034809
   107  C    0.088946
   108  C    0.073712
   109  C    0.034788
   110  C   -0.007632
   111  N   -0.324099
   112  C    0.078453
   113  C   -0.163206
   114  C    0.002274
   115  C    0.096198
   116  C    0.131488
   117  C    0.042338
   118  O   -0.187982
   119  C    0.000941
   120  C    0.211246
   121  O   -0.251170
   122  O   -0.305489
   123  C    0.152089
   124  H   -0.019125
   125  H   -0.015878
   126  H   -0.040620
   127  H   -0.000323
   128  H   -0.004261
   129  H    0.022718
   130  H    0.014704
   131  H    0.017354
   132  H    0.013774
   133  H    0.037471
   134  H    0.021210
   135  H    0.019669
   136  H    0.009103
   137  H    0.026121
   138  H    0.039608
   139  H    0.038232
   140  H    0.036076
   141  H    0.033909
   142  H    0.014194
   143  H    0.012403
   144  H    0.024730
   145  H    0.011706
   146  H    0.005621
   147  H    0.006017
   148  H    0.003606
   149  H    0.010801
   150  H    0.017791
   151  H    0.030239
   152  H    0.045859
   153  H    0.008367
   154  H    0.047012
   155  H    0.035366
   156  H    0.043857
   157  H    0.049650
   158  H    0.053399
 Sum of Mulliken charges =  -0.00000

 Dipole moment (field-independent basis, Debye):
    X=             -4.5268    Y=              1.6465    Z=              5.3500  Tot=              7.1990
 Quadrupole moment (field-independent basis, Debye-Ang):
   XX=           -518.4610   YY=           -505.3214   ZZ=           -493.8916
   XY=            -38.7506   XZ=              9.6921   YZ=             -6.2719

 Normal termination of Gaussian 16 at Sun Sep 12 08:44:25 2021.
