 Gaussian 16, Revision A.03,
 Gaussian 16:  ES64L-G16RevA.03 25-Dec-2016

 -----------------------------------
 #p cam-b3lyp/Def2SVP td=(nstates=5)
 -----------------------------------

 --------------------------------
 TDDFT excited states in gaussian
 --------------------------------
 Symbolic Z-matrix:
 Charge =  0 Multiplicity = 1

                         Standard orientation:
 ---------------------------------------------------------------------
 Center     Atomic      Atomic             Coordinates (Angstroms)
 Number     Number       Type             X           Y           Z
 ---------------------------------------------------------------------
      1         12           0       -6.362042   -1.067671    0.332729
      2          6           0       -6.745167    2.491088    0.306897
      3          6           0       -7.355583   -1.049173   -2.931562
      4          6           0       -6.469793   -4.234470    0.460771
      5          6           0       -6.508296   -0.910274    3.811163
      6          7           0       -6.947216    0.575987   -1.029843
      7          6           0       -6.994243    1.901063   -0.934263
      8          6           0       -7.259290    2.609708   -2.296227
      9          6           0       -7.980660    1.414176   -3.065853
     10          6           0       -7.365723    0.241080   -2.323141
     11          6           0       -9.492395    1.384611   -2.865140
     12          6           0       -5.933752    3.035253   -3.012881
     13          6           0       -6.106106    4.014006   -4.178081
     14          1           0       -5.087321    5.029879   -4.395862
     15          7           0       -6.365776   -2.409150   -1.117536
     16          6           0       -6.790283   -2.224224   -2.390675
     17          6           0       -6.589617   -3.517458   -3.079123
     18          6           0       -6.191627   -4.521763   -2.053906
     19          6           0       -6.354018   -3.758310   -0.843060
     20          6           0       -6.728055   -3.691195   -4.560474
     21          6           0       -5.747148   -5.947049   -2.149454
     22          8           0       -5.673090   -6.706645   -1.123733
     23          6           0       -5.482085   -6.463079   -3.504628
     24          7           0       -6.692875   -2.415376    1.892177
     25          6           0       -6.628162   -3.735727    1.688541
     26          6           0       -6.615908   -4.488345    2.985983
     27          6           0       -6.440158   -3.390580    4.132184
     28          6           0       -6.465462   -2.119679    3.247627
     29          6           0       -7.860654   -5.337324    3.278991
     30          6           0       -5.257164   -3.582363    5.114102
     31          6           0       -3.947046   -3.398905    4.381279
     32          7           0       -6.408066    0.503824    1.829169
     33          6           0       -6.491479    0.341811    3.219661
     34          6           0       -6.602965    1.690190    3.805761
     35          6           0       -6.593284    2.547591    2.707300
     36          6           0       -6.509195    1.781812    1.509467
     37          6           0       -6.754581    1.987768    5.188835
     38          6           0       -6.659236    3.931229    2.265652
     39          8           0       -6.644720    5.024350    2.833428
     40          6           0       -6.882991    3.943840    0.689073
     41          6           0       -5.904194    4.922089    0.098908
     42          8           0       -4.676972    4.698059    0.132131
     43          8           0       -6.570811    5.841729   -0.615534
     44          6           0       -5.655738    6.826007   -1.252709
     45          1           0       -7.877833   -1.189630   -3.879965
     46          1           0       -6.399577   -5.319912    0.557324
     47          1           0       -6.472806   -0.778316    4.894112
     48          1           0       -7.925265    3.470850   -2.238476
     49          1           0       -7.703862    1.382721   -4.119473
     50          1           0       -9.809801    2.114642   -2.120675
     51          1           0       -9.721595    0.373342   -2.528547
     52          1           0      -10.011853    1.508989   -3.815651
     53          1           0       -5.524075    2.179091   -3.548802
     54          1           0       -5.223526    3.449286   -2.296305
     55          1           0       -7.099590    4.463336   -4.177550
     56          1           0       -6.065388    3.447772   -5.108629
     57          1           0       -7.189940   -2.820569   -5.024388
     58          1           0       -7.444428   -4.496641   -4.721022
     59          1           0       -5.779311   -3.943109   -5.034559
     60          1           0       -6.386081   -6.372810   -4.107283
     61          1           0       -5.089098   -7.470369   -3.371296
     62          1           0       -4.731249   -5.832676   -3.981897
     63          1           0       -5.778936   -5.184234    3.026507
     64          1           0       -7.315704   -3.330956    4.779130
     65          1           0       -7.640776   -6.390585    3.455061
     66          1           0       -8.554457   -5.216341    2.447553
     67          1           0       -8.464088   -4.989724    4.117119
     68          1           0       -5.259826   -4.594216    5.517949
     69          1           0       -5.279427   -2.889468    5.955323
     70          1           0       -3.776234   -4.379640    3.938771
     71          1           0       -3.151761   -3.142946    5.082148
     72          1           0       -4.045049   -2.684934    3.563277
     73          1           0       -6.089725    2.826461    5.395062
     74          1           0       -6.508794    1.125746    5.808601
     75          1           0       -7.814150    2.240319    5.226076
     76          1           0       -7.916066    4.246820    0.521500
     77          1           0       -5.974930    7.816943   -0.929606
     78          1           0       -5.668499    6.613940   -2.321947
     79          1           0       -4.622269    6.818994   -0.904524
     80         12           0        6.845990   -0.398224   -0.144551
     81          6           0        5.534550    2.936947    0.044675
     82          6           0        5.066863   -0.773951   -3.030406
     83          6           0        7.619887   -3.475057   -0.104133
     84          6           0        7.572405   -0.156590    3.255400
     85          7           0        5.510900    0.976300   -1.249294
     86          6           0        5.136263    2.239601   -1.114854
     87          6           0        4.353955    2.811028   -2.327713
     88          6           0        3.793712    1.429618   -2.924954
     89          6           0        4.872142    0.482421   -2.402941
     90          6           0        2.460750    1.011900   -2.326572
     91          6           0        5.290687    3.541953   -3.352554
     92          6           0        4.562526    4.388185   -4.399172
     93          1           0        5.186973    5.629817   -4.847375
     94          7           0        6.819033   -1.748471   -1.598734
     95          6           0        6.051812   -1.733550   -2.708893
     96          6           0        6.391686   -2.958473   -3.449314
     97          6           0        7.301618   -3.779581   -2.605216
     98          6           0        7.264736   -3.026180   -1.367834
     99          6           0        5.928468   -3.215200   -4.853925
    100          6           0        8.066934   -5.041876   -2.864240
    101          8           0        8.606478   -5.709545   -1.912426
    102          6           0        8.086860   -5.523138   -4.253303
    103          7           0        7.306544   -1.716151    1.396004
    104          6           0        7.658782   -2.987484    1.136061
    105          6           0        8.209388   -3.663905    2.368815
    106          6           0        8.379361   -2.503381    3.455962
    107          6           0        7.787984   -1.320589    2.658057
    108          6           0        7.350119   -4.785426    2.952107
    109          6           0        9.786338   -2.335788    4.092354
    110          6           0       10.769621   -1.852316    3.050820
    111          7           0        6.781427    1.157833    1.352976
    112          6           0        7.104414    1.037673    2.722398
    113          6           0        6.794780    2.334725    3.358177
    114          6           0        6.287514    3.118357    2.310763
    115          6           0        6.262560    2.356526    1.111383
    116          6           0        6.945171    2.640700    4.740164
    117          6           0        5.757539    4.413398    1.949247
    118          8           0        5.623077    5.489835    2.529708
    119          6           0        5.128253    4.313347    0.493097
    120          6           0        5.623306    5.485953   -0.308426
    121          8           0        6.829652    5.594660   -0.590419
    122          8           0        4.567944    6.166106   -0.792131
    123          6           0        5.008054    7.332259   -1.603425
    124          1           0        4.373886   -1.074014   -3.816935
    125          1           0        7.999782   -4.498245   -0.056731
    126          1           0        7.862244    0.030298    4.291611
    127          1           0        3.530231    3.465636   -2.069365
    128          1           0        3.790383    1.441675   -4.011783
    129          1           0        2.166468    1.654666   -1.510242
    130          1           0        2.600006   -0.002976   -1.977750
    131          1           0        1.696687    0.960003   -3.107505
    132          1           0        5.757645    2.794642   -4.006937
    133          1           0        6.016946    4.144386   -2.842398
    134          1           0        3.512790    4.560516   -4.132180
    135          1           0        4.512229    3.819829   -5.331082
    136          1           0        5.139439   -2.513711   -5.151830
    137          1           0        5.436290   -4.193786   -4.854488
    138          1           0        6.751006   -3.232886   -5.572108
    139          1           0        7.067336   -5.692416   -4.591497
    140          1           0        8.756275   -6.385550   -4.254208
    141          1           0        8.503102   -4.735024   -4.890672
    142          1           0        9.179178   -4.102678    2.168628
    143          1           0        7.720784   -2.657915    4.323273
    144          1           0        7.885788   -5.750369    3.029647
    145          1           0        6.464304   -4.890380    2.339854
    146          1           0        6.928789   -4.580887    3.934879
    147          1           0       10.158873   -3.299942    4.446984
    148          1           0        9.800099   -1.654855    4.936828
    149          1           0       11.067813   -2.775791    2.545490
    150          1           0       11.621717   -1.368395    3.523872
    151          1           0       10.275056   -1.215220    2.308406
    152          1           0        7.389183    3.625795    4.794420
    153          1           0        7.558615    1.898799    5.247165
    154          1           0        5.901557    2.600707    5.063475
    155          1           0        4.043242    4.321954    0.603811
    156          1           0        4.529133    8.218287   -1.175333
    157          1           0        4.756064    7.079836   -2.650582
    158          1           0        6.053857    7.611892   -1.552909
 ---------------------------------------------------------------------

 SCF Done:  E(RCAM-B3LYP) =  -4069.81158887     A.U. after   19 cycles

 Excitation energies and oscillator strengths:

 Excited State   1:      Singlet-A      1.6650 eV  744.64 nm  f=0.0058  <S**2>=0.000
     309 -> 315       -0.11125
     310 -> 316        0.13012
     311 -> 313       -0.44435
     312 -> 314        0.52349
 This state for optimization and/or second-order correction.
 Total Energy, E(TD-HF/TD-DFT) =  -4069.75040084
 Copying the excited state density for this state as the 1-particle RhoCI density.

 Excited State   2:      Singlet-A      1.6894 eV  733.89 nm  f=0.7362  <S**2>=0.000
     309 -> 315        0.13581
     310 -> 316        0.11445
     311 -> 313        0.52225
     312 -> 314        0.44340

 Excited State   3:      Singlet-A      2.1845 eV  567.55 nm  f=0.0485  <S**2>=0.000
     309 -> 313       -0.18964
     310 -> 314        0.61449
     312 -> 316       -0.25982

 Excited State   4:      Singlet-A      2.1932 eV  565.30 nm  f=0.1425  <S**2>=0.000
     309 -> 313        0.61206
     310 -> 314        0.18800
     311 -> 315       -0.26669

 Excited State   5:      Singlet-A      2.6278 eV  471.82 nm  f=0.0000  <S**2>=0.000
     312 -> 313        0.70704

 The electronic state is 1-A.
 Alpha  occ. eigenvalues --  -46.87902 -46.87538 -19.26371 -19.26180 -19.19110
 Alpha  occ. eigenvalues --  -19.19005 -19.18924 -19.18619 -19.18247 -19.17895
 Alpha  occ. eigenvalues --  -14.42558 -14.42372 -14.41549 -14.41239 -14.39509
 Alpha  occ. eigenvalues --  -14.39233 -14.38687 -14.38473 -10.39170 -10.38931
 Alpha  occ. eigenvalues --  -10.35559 -10.35299 -10.34469 -10.34069 -10.31762
 Alpha  occ. eigenvalues --  -10.31601 -10.31507 -10.31174 -10.31023 -10.30896
 Alpha  occ. eigenvalues --  -10.30669 -10.30604 -10.30308 -10.30275 -10.30233
 Alpha  occ. eigenvalues --  -10.30034 -10.30010 -10.29772 -10.29729 -10.29359
 Alpha  occ. eigenvalues --  -10.29323 -10.29282 -10.28875 -10.28704 -10.28571
 Alpha  occ. eigenvalues --  -10.28552 -10.28469 -10.28277 -10.28234 -10.27994
 Alpha  occ. eigenvalues --  -10.27889 -10.27876 -10.27833 -10.27688 -10.27610
 Alpha  occ. eigenvalues --  -10.27581 -10.27549 -10.27529 -10.27506 -10.27420
 Alpha  occ. eigenvalues --  -10.27392 -10.27353 -10.27351 -10.27275 -10.27247
 Alpha  occ. eigenvalues --  -10.26876 -10.26865 -10.26574 -10.26539 -10.26346
 Alpha  occ. eigenvalues --  -10.26337 -10.26254 -10.26115 -10.26052 -10.25901
 Alpha  occ. eigenvalues --  -10.25833 -10.25818 -10.25717 -10.25506 -10.25302
 Alpha  occ. eigenvalues --  -10.24926 -10.24885 -10.24760 -10.24743 -10.24649
 Alpha  occ. eigenvalues --  -10.24570  -3.16645  -3.16288  -1.91527  -1.91170
 Alpha  occ. eigenvalues --   -1.91113  -1.90955  -1.90759  -1.90596  -1.16720
 Alpha  occ. eigenvalues --   -1.16478  -1.08703  -1.08497  -1.07325  -1.06873
 Alpha  occ. eigenvalues --   -1.06788  -1.06732  -1.04688  -1.04367  -1.03861
 Alpha  occ. eigenvalues --   -1.03540  -1.03334  -1.02918  -1.02511  -1.01988
 Alpha  occ. eigenvalues --   -0.92069  -0.91848  -0.89609  -0.89381  -0.89308
 Alpha  occ. eigenvalues --   -0.89010  -0.88374  -0.88113  -0.87956  -0.87781
 Alpha  occ. eigenvalues --   -0.87665  -0.87563  -0.87386  -0.87021  -0.85100
 Alpha  occ. eigenvalues --   -0.84871  -0.84019  -0.83769  -0.83077  -0.82840
 Alpha  occ. eigenvalues --   -0.82759  -0.82529  -0.81679  -0.81457  -0.80697
 Alpha  occ. eigenvalues --   -0.80314  -0.78902  -0.78525  -0.77321  -0.77039
 Alpha  occ. eigenvalues --   -0.77025  -0.76769  -0.76024  -0.75698  -0.74985
 Alpha  occ. eigenvalues --   -0.74689  -0.72870  -0.72576  -0.71769  -0.71451
 Alpha  occ. eigenvalues --   -0.69989  -0.69658  -0.68986  -0.68702  -0.67741
 Alpha  occ. eigenvalues --   -0.67481  -0.67349  -0.67088  -0.65400  -0.65137
 Alpha  occ. eigenvalues --   -0.64950  -0.64721  -0.64645  -0.64523  -0.64359
 Alpha  occ. eigenvalues --   -0.64091  -0.62388  -0.62136  -0.60546  -0.60234
 Alpha  occ. eigenvalues --   -0.59917  -0.59661  -0.59084  -0.58868  -0.58600
 Alpha  occ. eigenvalues --   -0.58298  -0.57674  -0.57402  -0.57401  -0.57118
 Alpha  occ. eigenvalues --   -0.56407  -0.56083  -0.56076  -0.55746  -0.55624
 Alpha  occ. eigenvalues --   -0.55423  -0.55332  -0.55125  -0.54609  -0.54361
 Alpha  occ. eigenvalues --   -0.54016  -0.53776  -0.53400  -0.53333  -0.53112
 Alpha  occ. eigenvalues --   -0.53017  -0.53013  -0.52874  -0.52773  -0.52564
 Alpha  occ. eigenvalues --   -0.52518  -0.52303  -0.51990  -0.51752  -0.51736
 Alpha  occ. eigenvalues --   -0.51537  -0.51288  -0.51071  -0.50693  -0.50388
 Alpha  occ. eigenvalues --   -0.50123  -0.50028  -0.49862  -0.49762  -0.49626
 Alpha  occ. eigenvalues --   -0.49370  -0.49313  -0.49201  -0.49071  -0.48961
 Alpha  occ. eigenvalues --   -0.48686  -0.48560  -0.48536  -0.48422  -0.48265
 Alpha  occ. eigenvalues --   -0.48226  -0.47799  -0.47475  -0.47397  -0.47009
 Alpha  occ. eigenvalues --   -0.46895  -0.46674  -0.46590  -0.46455  -0.46428
 Alpha  occ. eigenvalues --   -0.46250  -0.46155  -0.45961  -0.45907  -0.45682
 Alpha  occ. eigenvalues --   -0.45288  -0.45097  -0.44669  -0.44616  -0.44381
 Alpha  occ. eigenvalues --   -0.44354  -0.44240  -0.44200  -0.44116  -0.43994
 Alpha  occ. eigenvalues --   -0.43969  -0.43819  -0.43584  -0.43492  -0.43417
 Alpha  occ. eigenvalues --   -0.43257  -0.43122  -0.42794  -0.42787  -0.42757
 Alpha  occ. eigenvalues --   -0.42739  -0.42449  -0.42104  -0.41851  -0.41799
 Alpha  occ. eigenvalues --   -0.41651  -0.41532  -0.41337  -0.41241  -0.40981
 Alpha  occ. eigenvalues --   -0.40940  -0.40859  -0.40661  -0.40618  -0.40582
 Alpha  occ. eigenvalues --   -0.40379  -0.40376  -0.40108  -0.39523  -0.39329
 Alpha  occ. eigenvalues --   -0.38563  -0.38242  -0.37880  -0.37536  -0.37414
 Alpha  occ. eigenvalues --   -0.37381  -0.37152  -0.37073  -0.36802  -0.36625
 Alpha  occ. eigenvalues --   -0.36287  -0.36092  -0.34386  -0.34128  -0.33863
 Alpha  occ. eigenvalues --   -0.33712  -0.33286  -0.33052  -0.31453  -0.31177
 Alpha  occ. eigenvalues --   -0.31136  -0.30848  -0.30106  -0.29797  -0.29553
 Alpha  occ. eigenvalues --   -0.29415  -0.29212  -0.29082  -0.24182  -0.23910
 Alpha  occ. eigenvalues --   -0.21229  -0.20995
 Alpha virt. eigenvalues --   -0.08875  -0.08670  -0.01852  -0.01565  -0.00165
 Alpha virt. eigenvalues --    0.00086   0.02112   0.02344   0.02985   0.03334
 Alpha virt. eigenvalues --    0.04603   0.04854   0.05008   0.05323   0.06041

 Mulliken charges:
               1
     1  Mg   0.838080
     2  C   -0.003191
     3  C   -0.094626
     4  C   -0.045791
     5  C   -0.063742
     6  N   -0.256748
     7  C   -0.052642
     8  C   -0.013861
     9  C   -0.086908
    10  C    0.046020
    11  C    0.104785
    12  C    0.053654
    13  C   -0.071561
    14  H    0.035417
    15  N   -0.433107
    16  C    0.168085
    17  C   -0.177553
    18  C   -0.004160
    19  C    0.148529
    20  C    0.110228
    21  C    0.012075
    22  O   -0.249385
    23  C    0.062669
    24  N   -0.341106
    25  C    0.041177
    26  C   -0.028190
    27  C   -0.024093
    28  C    0.074898
    29  C    0.076107
    30  C    0.035060
    31  C   -0.004526
    32  N   -0.310569
    33  C    0.080510
    34  C   -0.169280
    35  C    0.008646
    36  C    0.083007
    37  C    0.127189
    38  C    0.046439
    39  O   -0.187598
    40  C   -0.005448
    41  C    0.213123
    42  O   -0.257320
    43  O   -0.304744
    44  C    0.157505
    45  H   -0.017669
    46  H   -0.016693
    47  H   -0.041065
    48  H    0.001246
    49  H   -0.004432
    50  H    0.025680
    51  H    0.016618
    52  H    0.016699
    53  H    0.010253
    54  H    0.043820
    55  H    0.018467
    56  H    0.017560
    57  H    0.005713
    58  H    0.027033
    59  H    0.038608
    60  H    0.037493
    61  H    0.035764
    62  H    0.030603
    63  H    0.016620
    64  H    0.009713
    65  H    0.023365
    66  H    0.012552
    67  H    0.004943
    68  H    0.006579
    69  H    0.005022
    70  H    0.008770
    71  H    0.018431
    72  H    0.028691
    73  H    0.048263
    74  H    0.009354
    75  H    0.046230
    76  H    0.035353
    77  H    0.043511
    78  H    0.045937
    79  H    0.053910
    80  Mg   0.837816
    81  C   -0.016704
    82  C   -0.087819
    83  C   -0.045620
    84  C   -0.065022
    85  N   -0.254594
    86  C   -0.049362
    87  C   -0.015280
    88  C   -0.090674
    89  C    0.045933
    90  C    0.114297
    91  C    0.062578
    92  C   -0.077617
    93  H    0.034282
    94  N   -0.423455
    95  C    0.162846
    96  C   -0.174862
    97  C   -0.008018
    98  C    0.152049
    99  C    0.099545
   100  C    0.015410
   101  O   -0.253411
   102  C    0.061283
   103  N   -0.350046
   104  C    0.037482
   105  C   -0.019786
   106  C   -0.034836
   107  C    0.089060
   108  C    0.073726
   109  C    0.034797
   110  C   -0.007624
   111  N   -0.324237
   112  C    0.078689
   113  C   -0.163076
   114  C    0.002714
   115  C    0.096132
   116  C    0.131413
   117  C    0.042833
   118  O   -0.187105
   119  C    0.000669
   120  C    0.211078
   121  O   -0.251574
   122  O   -0.304842
   123  C    0.152251
   124  H   -0.020267
   125  H   -0.015842
   126  H   -0.040574
   127  H    0.000870
   128  H   -0.005200
   129  H    0.025082
   130  H    0.014073
   131  H    0.015569
   132  H    0.013473
   133  H    0.037615
   134  H    0.021331
   135  H    0.018875
   136  H    0.008241
   137  H    0.025659
   138  H    0.039332
   139  H    0.038003
   140  H    0.036095
   141  H    0.033687
   142  H    0.014158
   143  H    0.012360
   144  H    0.024856
   145  H    0.011813
   146  H    0.005512
   147  H    0.006033
   148  H    0.003593
   149  H    0.010800
   150  H    0.017746
   151  H    0.030221
   152  H    0.045981
   153  H    0.008178
   154  H    0.047665
   155  H    0.037328
   156  H    0.044234
   157  H    0.049055
   158  H    0.053126
 Sum of Mulliken charges =  -0.00000

 Dipole moment (field-independent basis, Debye):
    X=             -4.6561    Y=             -3.5977    Z=             -6.5546  Tot=              8.8083
 Quadrupole moment (field-independent basis, Debye-Ang):
   XX=           -516.2419   YY=           -560.0814   ZZ=           -446.7154
   XY=             -6.5009   XZ=             23.2436   YZ=            -36.7332

 Normal termination of Gaussian 16 at Sat Sep 11 14:25:50 2021.
