 Gaussian 16, Revision A.03,
 Gaussian 16:  ES64L-G16RevA.03 25-Dec-2016

 -----------------------------------
 #p cam-b3lyp/Def2SVP td=(nstates=5)
 -----------------------------------

 --------------------------------
 TDDFT excited states in gaussian
 --------------------------------
 Symbolic Z-matrix:
 Charge =  0 Multiplicity = 1

                         Standard orientation:
 ---------------------------------------------------------------------
 Center     Atomic      Atomic             Coordinates (Angstroms)
 Number     Number       Type             X           Y           Z
 ---------------------------------------------------------------------
      1         12           0       -6.383634   -0.864403    0.036393
      2          6           0       -6.681561    2.048692    2.094871
      3          6           0       -7.328709    1.084340   -2.600328
      4          6           0       -6.568556   -3.505505   -1.709175
      5          6           0       -6.576849   -2.763751    2.952007
      6          7           0       -6.909588    1.281075   -0.108325
      7          6           0       -6.926465    2.301652    0.743324
      8          6           0       -7.154672    3.679255    0.052306
      9          6           0       -7.892974    3.178756   -1.269212
     10          6           0       -7.317026    1.776182   -1.352830
     11          6           0       -9.407753    3.079650   -1.120464
     12          6           0       -5.809068    4.406084   -0.283550
     13          6           0       -5.941063    5.885360   -0.657281
     14          1           0       -4.895327    6.808381   -0.242772
     15          7           0       -6.398118   -1.105852   -1.924307
     16          6           0       -6.799479   -0.200590   -2.848804
     17          6           0       -6.619614   -0.853424   -4.163390
     18          6           0       -6.260636   -2.277973   -3.918668
     19          6           0       -6.422470   -2.361072   -2.489584
     20          6           0       -6.740513   -0.125542   -5.466970
     21          6           0       -5.848846   -3.390938   -4.829641
     22          8           0       -5.807858   -4.608224   -4.440912
     23          6           0       -5.576386   -3.025679   -6.231566
     24          7           0       -6.769161   -2.859224    0.515656
     25          6           0       -6.732915   -3.813367   -0.420977
     26          6           0       -6.757507   -5.181933    0.192505
     27          6           0       -6.572435   -4.965457    1.763696
     28          6           0       -6.554582   -3.417117    1.788098
     29          6           0       -8.026243   -6.007184   -0.062997
     30          6           0       -5.408794   -5.727347    2.446252
     31          6           0       -4.084127   -5.187060    1.955902
     32          7           0       -6.414089   -0.461912    2.169024
     33          6           0       -6.521616   -1.402970    3.203201
     34          6           0       -6.609531   -0.648113    4.466740
     35          6           0       -6.563424    0.688668    4.075925
     36          6           0       -6.480107    0.764460    2.656205
     37          6           0       -6.774192   -1.210060    5.763481
     38          6           0       -6.589985    2.070984    4.525762
     39          8           0       -6.557753    2.625933    5.625073
     40          6           0       -6.790345    3.008037    3.253908
     41          6           0       -5.780042    4.119088    3.344265
     42          8           0       -4.559113    3.883764    3.237858
     43          8           0       -6.414092    5.300955    3.302893
     44          6           0       -5.466659    6.446121    3.358745
     45          1           0       -7.840256    1.538710   -3.451098
     46          1           0       -6.525601   -4.444496   -2.264952
     47          1           0       -6.554037   -3.290030    3.908021
     48          1           0       -7.800743    4.362746    0.603537
     49          1           0       -7.601656    3.760759   -2.143356
     50          1           0       -9.718531    3.246078   -0.089134
     51          1           0       -9.665836    2.069008   -1.437466
     52          1           0       -9.910178    3.750042   -1.818260
     53          1           0       -5.412099    4.012980   -1.219470
     54          1           0       -5.099725    4.303812    0.538459
     55          1           0       -6.923477    6.277262   -0.392359
     56          1           0       -5.900253    5.968185   -1.743409
     57          1           0       -7.174733    0.864573   -5.334043
     58          1           0       -7.473427   -0.665340   -6.066272
     59          1           0       -5.791214   -0.079510   -6.000865
     60          1           0       -6.469087   -2.575376   -6.666148
     61          1           0       -5.209463   -3.931723   -6.712504
     62          1           0       -4.803879   -2.256425   -6.252280
     63          1           0       -5.938009   -5.793493   -0.182787
     64          1           0       -7.455662   -5.270474    2.325433
     65          1           0       -7.834080   -6.970662   -0.535743
     66          1           0       -8.704764   -5.404221   -0.665771
     67          1           0       -8.633403   -6.197764    0.821566
     68          1           0       -5.441423   -6.784038    2.183033
     69          1           0       -5.426840   -5.655761    3.533819
     70          1           0       -3.930257   -5.729131    1.023532
     71          1           0       -3.293290   -5.410779    2.672657
     72          1           0       -4.153167   -4.127416    1.709174
     73          1           0       -6.092651   -0.668525    6.419385
     74          1           0       -6.558055   -2.278183    5.762524
     75          1           0       -7.827884   -0.997408    5.943397
     76          1           0       -7.813363    3.380461    3.296981
     77          1           0       -5.766865    7.070322    4.200460
     78          1           0       -5.468856    6.898766    2.367023
     79          1           0       -4.438841    6.208352    3.635143
     80         12           0        6.837006   -0.410834    0.024821
     81          6           0        4.810014    1.853492   -1.883901
     82          6           0        9.167084    2.072800    0.216940
     83          6           0        8.829521   -2.515880    1.315580
     84          6           0        4.908728   -3.009109   -1.269958
     85          7           0        6.868921    1.652832   -0.770496
     86          6           0        6.016522    2.424439   -1.428043
     87          6           0        6.447702    3.911609   -1.537451
     88          6           0        8.032174    3.715955   -1.364123
     89          6           0        8.031552    2.418436   -0.558442
     90          6           0        8.754457    3.462645   -2.676945
     91          6           0        5.848586    4.793882   -0.386515
     92          6           0        5.972834    6.303738   -0.602512
     93          1           0        4.893162    7.165706   -0.129455
     94          7           0        8.490343   -0.130793    1.086234
     95          6           0        9.303196    0.946116    1.057411
     96          6           0       10.390490    0.654951    2.004603
     97          6           0       10.241848   -0.750145    2.471847
     98          6           0        9.170180   -1.203245    1.607944
     99          6           0       11.387362    1.688643    2.441810
    100          6           0       10.955815   -1.556862    3.513793
    101          8           0       10.823110   -2.829543    3.587894
    102          6           0       11.886952   -0.825285    4.385157
    103          7           0        7.005218   -2.476642   -0.137934
    104          6           0        7.925971   -3.153253    0.570812
    105          6           0        7.679819   -4.641674    0.504521
    106          6           0        6.254467   -4.810415   -0.200791
    107          6           0        5.950337   -3.329016   -0.514386
    108          6           0        8.724603   -5.455386   -0.258830
    109          6           0        5.185169   -5.638968    0.562608
    110          6           0        4.762021   -4.906171    1.815348
    111          7           0        5.050739   -0.571005   -1.180033
    112          6           0        4.427807   -1.756296   -1.628514
    113          6           0        3.312869   -1.355190   -2.510805
    114          6           0        3.379285    0.046093   -2.532940
    115          6           0        4.471774    0.486372   -1.737899
    116          6           0        2.438125   -2.240970   -3.200995
    117          6           0        2.780115    1.252511   -3.056637
    118          8           0        1.774057    1.506513   -3.717744
    119          6           0        3.756907    2.471157   -2.761445
    120          6           0        2.937655    3.594709   -2.187878
    121          8           0        2.386404    3.473221   -1.079740
    122          8           0        3.118263    4.698280   -2.936126
    123          6           0        2.334530    5.843145   -2.400513
    124          1           0       10.055663    2.700492    0.144105
    125          1           0        9.419076   -3.280911    1.826105
    126          1           0        4.200294   -3.756233   -1.634108
    127          1           0        6.232798    4.377879   -2.491483
    128          1           0        8.468924    4.524754   -0.784068
    129          1           0        8.064928    3.338138   -3.498645
    130          1           0        9.330485    2.559034   -2.526192
    131          1           0        9.482882    4.256430   -2.865697
    132          1           0        6.469487    4.680828    0.511510
    133          1           0        4.822819    4.538035   -0.204929
    134          1           0        6.236982    6.551665   -1.637742
    135          1           0        6.818378    6.669884   -0.015126
    136          1           0       11.346889    2.581096    1.805189
    137          1           0       12.383004    1.269913    2.259542
    138          1           0       11.297677    1.938801    3.501077
    139          1           0       12.648551   -0.343808    3.776380
    140          1           0       12.232000   -1.553944    5.121276
    141          1           0       11.336364   -0.024722    4.891660
    142          1           0        7.633286   -5.070578    1.497990
    143          1           0        6.337375   -5.325953   -1.168885
    144          1           0        9.181527   -6.258928    0.349126
    145          1           0        9.483916   -4.777548   -0.625610
    146          1           0        8.367696   -5.920649   -1.176078
    147          1           0        5.606913   -6.592925    0.888550
    148          1           0        4.305853   -5.862106   -0.032388
    149          1           0        5.539857   -5.178325    2.535070
    150          1           0        3.782444   -5.245961    2.145507
    151          1           0        4.811043   -3.820526    1.671784
    152          1           0        1.438744   -1.842208   -3.088233
    153          1           0        2.509148   -3.254088   -2.810728
    154          1           0        2.840704   -2.162295   -4.214416
    155          1           0        4.228776    2.748721   -3.704774
    156          1           0        1.704531    6.208961   -3.217187
    157          1           0        3.079898    6.547154   -1.985145
    158          1           0        1.592435    5.630364   -1.639934
 ---------------------------------------------------------------------

 SCF Done:  E(RCAM-B3LYP) =  -4069.81159960     A.U. after   19 cycles

 Excitation energies and oscillator strengths:

 Excited State   1:      Singlet-A      1.6681 eV  743.25 nm  f=0.1966  <S**2>=0.000
     309 -> 315        0.13759
     310 -> 316       -0.10288
     311 -> 313        0.54978
     312 -> 314       -0.41110
 This state for optimization and/or second-order correction.
 Total Energy, E(TD-HF/TD-DFT) =  -4069.75029634
 Copying the excited state density for this state as the 1-particle RhoCI density.

 Excited State   2:      Singlet-A      1.6868 eV  735.02 nm  f=0.5740  <S**2>=0.000
     309 -> 315        0.10558
     310 -> 316        0.14182
     311 -> 313        0.41041
     312 -> 314        0.54881

 Excited State   3:      Singlet-A      2.1842 eV  567.63 nm  f=0.0316  <S**2>=0.000
     309 -> 313        0.59744
     310 -> 314        0.23886
     311 -> 315       -0.25231
     312 -> 316       -0.10018

 Excited State   4:      Singlet-A      2.1930 eV  565.36 nm  f=0.1554  <S**2>=0.000
     309 -> 313       -0.23705
     310 -> 314        0.59480
     311 -> 315        0.10323
     312 -> 316       -0.25881

 Excited State   5:      Singlet-A      2.6105 eV  474.94 nm  f=0.0000  <S**2>=0.000
     312 -> 313        0.70672

 The electronic state is 1-A.
 Alpha  occ. eigenvalues --  -46.87580 -46.87443 -19.26290 -19.25959 -19.19068
 Alpha  occ. eigenvalues --  -19.18660 -19.18641 -19.18491 -19.18005 -19.17847
 Alpha  occ. eigenvalues --  -14.42421 -14.42102 -14.41283 -14.41119 -14.39274
 Alpha  occ. eigenvalues --  -14.39050 -14.38521 -14.38240 -10.39004 -10.38726
 Alpha  occ. eigenvalues --  -10.35318 -10.35124 -10.34180 -10.34066 -10.31720
 Alpha  occ. eigenvalues --  -10.31385 -10.31237 -10.31065 -10.30949 -10.30555
 Alpha  occ. eigenvalues --  -10.30322 -10.30286 -10.30227 -10.30175 -10.30065
 Alpha  occ. eigenvalues --  -10.29885 -10.29820 -10.29610 -10.29360 -10.29326
 Alpha  occ. eigenvalues --  -10.29296 -10.28912 -10.28650 -10.28583 -10.28398
 Alpha  occ. eigenvalues --  -10.28330 -10.28199 -10.28077 -10.28016 -10.27929
 Alpha  occ. eigenvalues --  -10.27781 -10.27596 -10.27456 -10.27443 -10.27409
 Alpha  occ. eigenvalues --  -10.27396 -10.27391 -10.27386 -10.27305 -10.27241
 Alpha  occ. eigenvalues --  -10.27238 -10.27191 -10.27109 -10.27063 -10.26991
 Alpha  occ. eigenvalues --  -10.26829 -10.26606 -10.26342 -10.26301 -10.26066
 Alpha  occ. eigenvalues --  -10.26054 -10.25979 -10.25954 -10.25939 -10.25856
 Alpha  occ. eigenvalues --  -10.25782 -10.25696 -10.25558 -10.25338 -10.25205
 Alpha  occ. eigenvalues --  -10.24801 -10.24635 -10.24616 -10.24497 -10.24464
 Alpha  occ. eigenvalues --  -10.24458  -3.16330  -3.16184  -1.91212  -1.91065
 Alpha  occ. eigenvalues --   -1.90801  -1.90652  -1.90638  -1.90494  -1.16578
 Alpha  occ. eigenvalues --   -1.16301  -1.08611  -1.08306  -1.06895  -1.06893
 Alpha  occ. eigenvalues --   -1.06860  -1.06289  -1.04420  -1.04234  -1.03587
 Alpha  occ. eigenvalues --   -1.03428  -1.02963  -1.02893  -1.02074  -1.02036
 Alpha  occ. eigenvalues --   -0.91916  -0.91636  -0.89418  -0.89224  -0.89083
 Alpha  occ. eigenvalues --   -0.88845  -0.88146  -0.87999  -0.87722  -0.87610
 Alpha  occ. eigenvalues --   -0.87548  -0.87333  -0.87046  -0.86926  -0.84928
 Alpha  occ. eigenvalues --   -0.84643  -0.83801  -0.83662  -0.82858  -0.82642
 Alpha  occ. eigenvalues --   -0.82583  -0.82318  -0.81533  -0.81265  -0.80374
 Alpha  occ. eigenvalues --   -0.80266  -0.78563  -0.78457  -0.77073  -0.76904
 Alpha  occ. eigenvalues --   -0.76832  -0.76617  -0.75776  -0.75601  -0.74735
 Alpha  occ. eigenvalues --   -0.74612  -0.72626  -0.72450  -0.71513  -0.71357
 Alpha  occ. eigenvalues --   -0.69679  -0.69641  -0.68757  -0.68540  -0.67531
 Alpha  occ. eigenvalues --   -0.67312  -0.67125  -0.66867  -0.65202  -0.64946
 Alpha  occ. eigenvalues --   -0.64698  -0.64584  -0.64529  -0.64302  -0.64130
 Alpha  occ. eigenvalues --   -0.63969  -0.62213  -0.61979  -0.60266  -0.60112
 Alpha  occ. eigenvalues --   -0.59727  -0.59463  -0.58921  -0.58664  -0.58355
 Alpha  occ. eigenvalues --   -0.58179  -0.57487  -0.57254  -0.57165  -0.56995
 Alpha  occ. eigenvalues --   -0.56133  -0.55981  -0.55823  -0.55653  -0.55384
 Alpha  occ. eigenvalues --   -0.55194  -0.55177  -0.55048  -0.54417  -0.54223
 Alpha  occ. eigenvalues --   -0.53842  -0.53551  -0.53157  -0.53071  -0.52978
 Alpha  occ. eigenvalues --   -0.52883  -0.52826  -0.52597  -0.52587  -0.52415
 Alpha  occ. eigenvalues --   -0.52320  -0.52171  -0.51814  -0.51607  -0.51587
 Alpha  occ. eigenvalues --   -0.51269  -0.51135  -0.50880  -0.50402  -0.50225
 Alpha  occ. eigenvalues --   -0.49909  -0.49796  -0.49747  -0.49583  -0.49416
 Alpha  occ. eigenvalues --   -0.49182  -0.49133  -0.49045  -0.48884  -0.48775
 Alpha  occ. eigenvalues --   -0.48492  -0.48311  -0.48278  -0.48270  -0.48166
 Alpha  occ. eigenvalues --   -0.48118  -0.47526  -0.47372  -0.47048  -0.46976
 Alpha  occ. eigenvalues --   -0.46636  -0.46483  -0.46483  -0.46216  -0.46197
 Alpha  occ. eigenvalues --   -0.46036  -0.46014  -0.45853  -0.45758  -0.45512
 Alpha  occ. eigenvalues --   -0.45138  -0.44917  -0.44449  -0.44407  -0.44261
 Alpha  occ. eigenvalues --   -0.44185  -0.44065  -0.44004  -0.43872  -0.43837
 Alpha  occ. eigenvalues --   -0.43767  -0.43691  -0.43489  -0.43317  -0.43179
 Alpha  occ. eigenvalues --   -0.43063  -0.42864  -0.42835  -0.42710  -0.42477
 Alpha  occ. eigenvalues --   -0.42399  -0.42354  -0.41888  -0.41710  -0.41606
 Alpha  occ. eigenvalues --   -0.41386  -0.41382  -0.41203  -0.40923  -0.40824
 Alpha  occ. eigenvalues --   -0.40649  -0.40625  -0.40553  -0.40490  -0.40420
 Alpha  occ. eigenvalues --   -0.40279  -0.40151  -0.39867  -0.39344  -0.39180
 Alpha  occ. eigenvalues --   -0.38277  -0.38178  -0.37579  -0.37401  -0.37191
 Alpha  occ. eigenvalues --   -0.37125  -0.37015  -0.36914  -0.36697  -0.36389
 Alpha  occ. eigenvalues --   -0.36141  -0.35871  -0.34177  -0.33948  -0.33769
 Alpha  occ. eigenvalues --   -0.33411  -0.33099  -0.32848  -0.31200  -0.31023
 Alpha  occ. eigenvalues --   -0.30898  -0.30702  -0.29909  -0.29707  -0.29253
 Alpha  occ. eigenvalues --   -0.29139  -0.29103  -0.28982  -0.23960  -0.23740
 Alpha  occ. eigenvalues --   -0.21042  -0.20791
 Alpha virt. eigenvalues --   -0.08718  -0.08434  -0.01608  -0.01415   0.00043
 Alpha virt. eigenvalues --    0.00283   0.02272   0.02525   0.03348   0.03593
 Alpha virt. eigenvalues --    0.04803   0.05053   0.05243   0.05446   0.06253

 Mulliken charges:
               1
     1  Mg   0.841287
     2  C   -0.001993
     3  C   -0.092981
     4  C   -0.046312
     5  C   -0.064417
     6  N   -0.256694
     7  C   -0.051977
     8  C   -0.014440
     9  C   -0.087267
    10  C    0.047071
    11  C    0.104972
    12  C    0.053196
    13  C   -0.071186
    14  H    0.034998
    15  N   -0.433040
    16  C    0.169540
    17  C   -0.176105
    18  C   -0.003699
    19  C    0.149118
    20  C    0.110165
    21  C    0.012574
    22  O   -0.250758
    23  C    0.061913
    24  N   -0.341161
    25  C    0.041315
    26  C   -0.027999
    27  C   -0.023793
    28  C    0.074811
    29  C    0.076441
    30  C    0.035349
    31  C   -0.004443
    32  N   -0.310400
    33  C    0.080539
    34  C   -0.170007
    35  C    0.008080
    36  C    0.083506
    37  C    0.127342
    38  C    0.046256
    39  O   -0.189295
    40  C   -0.005551
    41  C    0.212335
    42  O   -0.255207
    43  O   -0.305255
    44  C    0.157934
    45  H   -0.018041
    46  H   -0.017634
    47  H   -0.042322
    48  H    0.000138
    49  H   -0.003828
    50  H    0.025045
    51  H    0.016123
    52  H    0.016036
    53  H    0.013601
    54  H    0.045666
    55  H    0.016765
    56  H    0.017874
    57  H    0.005743
    58  H    0.025798
    59  H    0.041745
    60  H    0.036793
    61  H    0.034690
    62  H    0.033875
    63  H    0.015902
    64  H    0.008870
    65  H    0.022483
    66  H    0.012497
    67  H    0.004237
    68  H    0.005380
    69  H    0.004401
    70  H    0.007912
    71  H    0.017274
    72  H    0.030518
    73  H    0.047317
    74  H    0.008575
    75  H    0.045308
    76  H    0.034401
    77  H    0.041884
    78  H    0.046068
    79  H    0.054143
    80  Mg   0.838677
    81  C   -0.016474
    82  C   -0.087795
    83  C   -0.045506
    84  C   -0.064853
    85  N   -0.254560
    86  C   -0.049740
    87  C   -0.015202
    88  C   -0.090525
    89  C    0.045904
    90  C    0.114456
    91  C    0.062457
    92  C   -0.077877
    93  H    0.035106
    94  N   -0.423462
    95  C    0.163103
    96  C   -0.174649
    97  C   -0.007762
    98  C    0.152214
    99  C    0.099418
   100  C    0.015671
   101  O   -0.253240
   102  C    0.061141
   103  N   -0.350101
   104  C    0.037553
   105  C   -0.019809
   106  C   -0.034820
   107  C    0.088938
   108  C    0.073730
   109  C    0.034687
   110  C   -0.007644
   111  N   -0.324177
   112  C    0.078656
   113  C   -0.162721
   114  C    0.001922
   115  C    0.096793
   116  C    0.131298
   117  C    0.042945
   118  O   -0.189272
   119  C    0.000788
   120  C    0.210562
   121  O   -0.249051
   122  O   -0.306145
   123  C    0.152027
   124  H   -0.019860
   125  H   -0.015648
   126  H   -0.040318
   127  H   -0.001091
   128  H   -0.004326
   129  H    0.022153
   130  H    0.014358
   131  H    0.016042
   132  H    0.014278
   133  H    0.038483
   134  H    0.020217
   135  H    0.019559
   136  H    0.008667
   137  H    0.025944
   138  H    0.039966
   139  H    0.038090
   140  H    0.036345
   141  H    0.034138
   142  H    0.014455
   143  H    0.012274
   144  H    0.025032
   145  H    0.011487
   146  H    0.005529
   147  H    0.006009
   148  H    0.003813
   149  H    0.010823
   150  H    0.018008
   151  H    0.030574
   152  H    0.046043
   153  H    0.009190
   154  H    0.046239
   155  H    0.034320
   156  H    0.042372
   157  H    0.049478
   158  H    0.054695
 Sum of Mulliken charges =  -0.00000

 Dipole moment (field-independent basis, Debye):
    X=              2.1292    Y=              2.7755    Z=             -3.9696  Tot=              5.2910
 Quadrupole moment (field-independent basis, Debye-Ang):
   XX=           -450.8802   YY=           -465.7199   ZZ=           -527.5517
   XY=             26.5773   XZ=             17.3726   YZ=            -24.3404

 Normal termination of Gaussian 16 at Sat Sep 11 09:29:09 2021.
