 Gaussian 16, Revision A.03,
 Gaussian 16:  ES64L-G16RevA.03 25-Dec-2016

 -----------------------------------
 #p cam-b3lyp/Def2SVP td=(nstates=5)
 -----------------------------------

 --------------------------------
 TDDFT excited states in gaussian
 --------------------------------
 Symbolic Z-matrix:
 Charge =  0 Multiplicity = 1

                         Standard orientation:
 ---------------------------------------------------------------------
 Center     Atomic      Atomic             Coordinates (Angstroms)
 Number     Number       Type             X           Y           Z
 ---------------------------------------------------------------------
      1         12           0        5.264632   -0.628529    0.578700
      2          6           0        5.725445    1.966460   -1.843262
      3          6           0        5.873628    1.713297    2.984535
      4          6           0        5.312274   -2.981886    2.703803
      5          6           0        5.816365   -2.919832   -1.988630
      6          7           0        5.726418    1.533286    0.460575
      7          6           0        5.815223    2.420396   -0.525488
      8          6           0        5.937293    3.890656   -0.024683
      9          6           0        6.536479    3.613335    1.426546
     10          6           0        5.984379    2.217227    1.654565
     11          6           0        8.060177    3.549611    1.454620
     12          6           0        4.548016    4.608308    0.056667
     13          6           0        4.607154    6.129846    0.220313
     14          1           0        3.594082    6.944397   -0.433552
     15          7           0        5.068969   -0.584189    2.544050
     16          6           0        5.347399    0.459002    3.362288
     17          6           0        5.038121   -0.003733    4.732290
     18          6           0        4.738117   -1.460909    4.663519
     19          6           0        5.057476   -1.743086    3.287378
     20          6           0        4.999972    0.908368    5.919878
     21          6           0        4.252299   -2.445355    5.679875
     22          8           0        4.279749   -3.706630    5.472499
     23          6           0        3.820070   -1.892139    6.976090
     24          7           0        5.742169   -2.656050    0.441765
     25          6           0        5.623398   -3.465929    1.499581
     26          6           0        5.743849   -4.906781    1.100362
     27          6           0        5.727780   -4.925955   -0.496236
     28          6           0        5.680242   -3.399012   -0.750112
     29          6           0        6.993921   -5.639362    1.606975
     30          6           0        4.662290   -5.820540   -1.178047
     31          6           0        3.280781   -5.264321   -0.915082
     32          7           0        5.520439   -0.536743   -1.574712
     33          6           0        5.760497   -1.612421   -2.441870
     34          6           0        5.970661   -1.044824   -3.786390
     35          6           0        5.853926    0.331714   -3.603744
     36          6           0        5.613774    0.608205   -2.227455
     37          6           0        6.288351   -1.781346   -4.961568
     38          6           0        5.900682    1.634803   -4.246886
     39          8           0        5.977625    2.023964   -5.413131
     40          6           0        5.940591    2.752099   -3.112918
     41          6           0        4.923222    3.800607   -3.471943
     42          8           0        3.703195    3.538327   -3.461421
     43          8           0        5.523976    4.998613   -3.538411
     44          6           0        4.564582    6.088142   -3.861895
     45          1           0        6.279101    2.304038    3.808280
     46          1           0        5.228305   -3.831915    3.384124
     47          1           0        5.909625   -3.578875   -2.853742
     48          1           0        6.625463    4.510868   -0.599298
     49          1           0        6.138870    4.304128    2.169806
     50          1           0        8.478672    3.576988    0.448622
     51          1           0        8.303062    2.605390    1.942418
     52          1           0        8.468837    4.331592    2.095152
     53          1           0        4.059091    4.339857    0.993121
     54          1           0        3.935445    4.362617   -0.811503
     55          1           0        5.604267    6.515345    0.005684
     56          1           0        4.445697    6.366778    1.271976
     57          1           0        5.425293    1.884285    5.689153
     58          1           0        5.673868    0.487902    6.666056
     59          1           0        3.997072    0.995913    6.338038
     60          1           0        4.650058   -1.351378    7.431333
     61          1           0        3.421680   -2.732290    7.543789
     62          1           0        3.033990   -1.156871    6.801709
     63          1           0        4.901131   -5.487596    1.473064
     64          1           0        6.673509   -5.276048   -0.910611
     65          1           0        6.771301   -6.531061    2.193506
     66          1           0        7.589415   -4.931279    2.182558
     67          1           0        7.698330   -5.932970    0.829145
     68          1           0        4.687998   -6.826344   -0.760141
     69          1           0        4.798045   -5.905824   -2.256263
     70          1           0        3.036948   -5.671652    0.065458
     71          1           0        2.578226   -5.617937   -1.670451
     72          1           0        3.300094   -4.178366   -0.821186
     73          1           0        5.671681   -1.365430   -5.758249
     74          1           0        6.095865   -2.845400   -4.826142
     75          1           0        7.350728   -1.558230   -5.058685
     76          1           0        6.954122    3.151802   -3.102218
     77          1           0        4.942167    6.595137   -4.749938
     78          1           0        4.448463    6.678757   -2.952997
     79          1           0        3.578509    5.775379   -4.207117
     80         12           0       -5.248120   -0.656037   -0.577425
     81          6           0       -5.809687    1.920982    1.856229
     82          6           0       -5.800363    1.700512   -2.980809
     83          6           0       -5.205055   -2.985658   -2.731131
     84          6           0       -5.868621   -2.980071    1.944391
     85          7           0       -5.732818    1.498484   -0.453449
     86          6           0       -5.860309    2.382694    0.524426
     87          6           0       -5.972715    3.856016    0.048746
     88          6           0       -6.528878    3.588285   -1.433775
     89          6           0       -5.959569    2.189129   -1.659444
     90          6           0       -8.044656    3.503871   -1.501785
     91          6           0       -4.582011    4.581979    0.018133
     92          6           0       -4.653659    6.102602   -0.137881
     93          1           0       -3.662058    6.920833    0.554734
     94          7           0       -4.985723   -0.582976   -2.543220
     95          6           0       -5.239553    0.461088   -3.359796
     96          6           0       -4.899605    0.003177   -4.715858
     97          6           0       -4.580785   -1.449169   -4.654389
     98          6           0       -4.939521   -1.739882   -3.280744
     99          6           0       -4.822115    0.931803   -5.892749
    100          6           0       -4.053886   -2.419028   -5.668262
    101          8           0       -4.077781   -3.684404   -5.465576
    102          6           0       -3.595126   -1.849562   -6.943699
    103          7           0       -5.706352   -2.681251   -0.473174
    104          6           0       -5.551792   -3.480984   -1.542961
    105          6           0       -5.676856   -4.936061   -1.158884
    106          6           0       -5.707291   -4.957290    0.439933
    107          6           0       -5.683318   -3.437458    0.713691
    108          6           0       -6.906983   -5.663758   -1.700756
    109          6           0       -4.657092   -5.853242    1.151986
    110          6           0       -3.269261   -5.295235    0.933060
    111          7           0       -5.566979   -0.585795    1.558331
    112          6           0       -5.834563   -1.674393    2.417081
    113          6           0       -6.091759   -1.116188    3.760467
    114          6           0       -5.977725    0.270981    3.583712
    115          6           0       -5.691033    0.558266    2.221820
    116          6           0       -6.431097   -1.865964    4.921850
    117          6           0       -6.045188    1.558176    4.237390
    118          8           0       -6.169201    1.935705    5.401788
    119          6           0       -6.064359    2.690785    3.122396
    120          6           0       -5.065757    3.745211    3.514170
    121          8           0       -3.850592    3.482983    3.549222
    122          8           0       -5.684453    4.938676    3.570827
    123          6           0       -4.732699    6.018527    3.944875
    124          1           0       -6.178543    2.304209   -3.806287
    125          1           0       -5.093943   -3.834059   -3.410345
    126          1           0       -5.972882   -3.644719    2.804655
    127          1           0       -6.677391    4.460977    0.606623
    128          1           0       -6.106593    4.291374   -2.147015
    129          1           0       -8.493545    3.520231   -0.519759
    130          1           0       -8.265110    2.570494   -2.003044
    131          1           0       -8.437534    4.293495   -2.148690
    132          1           0       -4.062717    4.321810   -0.913209
    133          1           0       -4.003942    4.334732    0.887230
    134          1           0       -5.664302    6.488351    0.043040
    135          1           0       -4.453776    6.354076   -1.182307
    136          1           0       -5.269586    1.907290   -5.665583
    137          1           0       -5.466028    0.512830   -6.673590
    138          1           0       -3.807968    1.029839   -6.285888
    139          1           0       -4.413822   -1.309547   -7.413335
    140          1           0       -3.172067   -2.686810   -7.502197
    141          1           0       -2.810601   -1.113334   -6.736064
    142          1           0       -4.819048   -5.501592   -1.501567
    143          1           0       -6.667853   -5.330715    0.824258
    144          1           0       -6.655704   -6.560136   -2.298613
    145          1           0       -7.485741   -4.964215   -2.289155
    146          1           0       -7.625259   -5.981079   -0.946716
    147          1           0       -4.659896   -6.856792    0.719517
    148          1           0       -4.832492   -5.961120    2.217167
    149          1           0       -2.995860   -5.692035   -0.049222
    150          1           0       -2.588279   -5.648299    1.704854
    151          1           0       -3.292760   -4.202276    0.852181
    152          1           0       -5.849970   -1.456652    5.737480
    153          1           0       -6.230963   -2.926361    4.783027
    154          1           0       -7.502041   -1.655076    4.984125
    155          1           0       -7.079712    3.086178    3.074495
    156          1           0       -5.146040    6.517313    4.826952
    157          1           0       -4.603751    6.632025    3.033428
    158          1           0       -3.755692    5.721882    4.308053
 ---------------------------------------------------------------------

 SCF Done:  E(RCAM-B3LYP) =  -4069.81223644     A.U. after   19 cycles

 Excitation energies and oscillator strengths:

 Excited State   1:      Singlet-A      1.6580 eV  747.81 nm  f=0.0055  <S**2>=0.000
     309 -> 315        0.11291
     310 -> 316        0.12655
     311 -> 313        0.51362
     312 -> 314       -0.45642
 This state for optimization and/or second-order correction.
 Total Energy, E(TD-HF/TD-DFT) =  -4069.75130739
 Copying the excited state density for this state as the 1-particle RhoCI density.

 Excited State   2:      Singlet-A      1.6965 eV  730.81 nm  f=0.7178  <S**2>=0.000
     309 -> 315       -0.13447
     310 -> 316        0.11900
     311 -> 313        0.45488
     312 -> 314        0.51178

 Excited State   3:      Singlet-A      2.1851 eV  567.40 nm  f=0.0237  <S**2>=0.000
     309 -> 314       -0.27434
     310 -> 313        0.58209
     311 -> 316       -0.24586
     312 -> 315       -0.11516

 Excited State   4:      Singlet-A      2.1951 eV  564.81 nm  f=0.1592  <S**2>=0.000
     309 -> 314        0.57900
     310 -> 313        0.27182
     311 -> 316       -0.11965
     312 -> 315        0.25357

 Excited State   5:      Singlet-A      2.5819 eV  480.21 nm  f=0.0000  <S**2>=0.000
     312 -> 313        0.70709

 The electronic state is 1-A.
 Alpha  occ. eigenvalues --  -46.87627 -46.87517 -19.26334 -19.26247 -19.19133
 Alpha  occ. eigenvalues --  -19.18971 -19.18614 -19.18537 -19.18056 -19.17960
 Alpha  occ. eigenvalues --  -14.42357 -14.42285 -14.41285 -14.41224 -14.39227
 Alpha  occ. eigenvalues --  -14.39202 -14.38465 -14.38426 -10.39056 -10.39024
 Alpha  occ. eigenvalues --  -10.35243 -10.35209 -10.34278 -10.34140 -10.31778
 Alpha  occ. eigenvalues --  -10.31680 -10.31255 -10.31184 -10.30878 -10.30742
 Alpha  occ. eigenvalues --  -10.30412 -10.30347 -10.30264 -10.30229 -10.30029
 Alpha  occ. eigenvalues --  -10.29991 -10.29775 -10.29771 -10.29464 -10.29282
 Alpha  occ. eigenvalues --  -10.29258 -10.29075 -10.28606 -10.28599 -10.28565
 Alpha  occ. eigenvalues --  -10.28427 -10.28265 -10.28201 -10.28017 -10.27970
 Alpha  occ. eigenvalues --  -10.27864 -10.27631 -10.27560 -10.27526 -10.27406
 Alpha  occ. eigenvalues --  -10.27394 -10.27353 -10.27343 -10.27313 -10.27302
 Alpha  occ. eigenvalues --  -10.27261 -10.27250 -10.27242 -10.27242 -10.27053
 Alpha  occ. eigenvalues --  -10.26969 -10.26564 -10.26556 -10.26171 -10.26150
 Alpha  occ. eigenvalues --  -10.26104 -10.26020 -10.26012 -10.25920 -10.25853
 Alpha  occ. eigenvalues --  -10.25797 -10.25758 -10.25722 -10.25303 -10.25299
 Alpha  occ. eigenvalues --  -10.24744 -10.24680 -10.24627 -10.24590 -10.24558
 Alpha  occ. eigenvalues --  -10.24504  -3.16369  -3.16266  -1.91250  -1.91148
 Alpha  occ. eigenvalues --   -1.90837  -1.90737  -1.90679  -1.90574  -1.16624
 Alpha  occ. eigenvalues --   -1.16592  -1.08578  -1.08523  -1.07014  -1.06916
 Alpha  occ. eigenvalues --   -1.06788  -1.06593  -1.04418  -1.04357  -1.03596
 Alpha  occ. eigenvalues --   -1.03524  -1.03068  -1.02901  -1.02248  -1.01975
 Alpha  occ. eigenvalues --   -0.91869  -0.91829  -0.89365  -0.89360  -0.89042
 Alpha  occ. eigenvalues --   -0.89029  -0.88131  -0.88096  -0.87723  -0.87674
 Alpha  occ. eigenvalues --   -0.87549  -0.87511  -0.87073  -0.86938  -0.84874
 Alpha  occ. eigenvalues --   -0.84832  -0.83787  -0.83758  -0.82766  -0.82758
 Alpha  occ. eigenvalues --   -0.82513  -0.82494  -0.81516  -0.81482  -0.80453
 Alpha  occ. eigenvalues --   -0.80329  -0.78615  -0.78478  -0.77062  -0.77013
 Alpha  occ. eigenvalues --   -0.76808  -0.76798  -0.75795  -0.75732  -0.74754
 Alpha  occ. eigenvalues --   -0.74689  -0.72617  -0.72568  -0.71526  -0.71462
 Alpha  occ. eigenvalues --   -0.69746  -0.69631  -0.68721  -0.68701  -0.67486
 Alpha  occ. eigenvalues --   -0.67474  -0.67057  -0.67057  -0.65155  -0.65144
 Alpha  occ. eigenvalues --   -0.64716  -0.64654  -0.64543  -0.64481  -0.64113
 Alpha  occ. eigenvalues --   -0.64081  -0.62206  -0.62204  -0.60257  -0.60180
 Alpha  occ. eigenvalues --   -0.59669  -0.59653  -0.58870  -0.58838  -0.58357
 Alpha  occ. eigenvalues --   -0.58309  -0.57479  -0.57475  -0.57157  -0.57107
 Alpha  occ. eigenvalues --   -0.56158  -0.56079  -0.55889  -0.55808  -0.55351
 Alpha  occ. eigenvalues --   -0.55321  -0.55212  -0.55145  -0.54410  -0.54398
 Alpha  occ. eigenvalues --   -0.53790  -0.53750  -0.53139  -0.53097  -0.53060
 Alpha  occ. eigenvalues --   -0.53016  -0.52793  -0.52787  -0.52562  -0.52485
 Alpha  occ. eigenvalues --   -0.52278  -0.52275  -0.51783  -0.51783  -0.51521
 Alpha  occ. eigenvalues --   -0.51459  -0.51093  -0.51060  -0.50346  -0.50276
 Alpha  occ. eigenvalues --   -0.49864  -0.49832  -0.49738  -0.49731  -0.49354
 Alpha  occ. eigenvalues --   -0.49341  -0.49075  -0.49066  -0.48996  -0.48961
 Alpha  occ. eigenvalues --   -0.48472  -0.48458  -0.48326  -0.48272  -0.48265
 Alpha  occ. eigenvalues --   -0.48177  -0.47538  -0.47463  -0.47135  -0.46978
 Alpha  occ. eigenvalues --   -0.46644  -0.46586  -0.46428  -0.46412  -0.46204
 Alpha  occ. eigenvalues --   -0.46141  -0.46028  -0.45979  -0.45737  -0.45712
 Alpha  occ. eigenvalues --   -0.45090  -0.45050  -0.44455  -0.44413  -0.44348
 Alpha  occ. eigenvalues --   -0.44332  -0.44014  -0.43991  -0.43951  -0.43946
 Alpha  occ. eigenvalues --   -0.43859  -0.43786  -0.43480  -0.43387  -0.43269
 Alpha  occ. eigenvalues --   -0.43233  -0.42883  -0.42868  -0.42791  -0.42626
 Alpha  occ. eigenvalues --   -0.42503  -0.42417  -0.41862  -0.41842  -0.41562
 Alpha  occ. eigenvalues --   -0.41557  -0.41388  -0.41336  -0.40994  -0.40869
 Alpha  occ. eigenvalues --   -0.40718  -0.40628  -0.40590  -0.40539  -0.40421
 Alpha  occ. eigenvalues --   -0.40374  -0.40088  -0.40080  -0.39296  -0.39276
 Alpha  occ. eigenvalues --   -0.38316  -0.38229  -0.37608  -0.37539  -0.37163
 Alpha  occ. eigenvalues --   -0.37140  -0.37113  -0.37071  -0.36723  -0.36633
 Alpha  occ. eigenvalues --   -0.36111  -0.36068  -0.34128  -0.34125  -0.33814
 Alpha  occ. eigenvalues --   -0.33701  -0.33043  -0.33030  -0.31148  -0.31101
 Alpha  occ. eigenvalues --   -0.30877  -0.30839  -0.29920  -0.29870  -0.29274
 Alpha  occ. eigenvalues --   -0.29176  -0.29162  -0.29077  -0.23919  -0.23902
 Alpha  occ. eigenvalues --   -0.20977  -0.20962
 Alpha virt. eigenvalues --   -0.08650  -0.08606  -0.01581  -0.01542   0.00122
 Alpha virt. eigenvalues --    0.00128   0.02322   0.02341   0.03278   0.03471
 Alpha virt. eigenvalues --    0.04853   0.04868   0.05164   0.05209   0.06274

 Mulliken charges:
               1
     1  Mg   0.839672
     2  C   -0.003065
     3  C   -0.093261
     4  C   -0.045894
     5  C   -0.063894
     6  N   -0.256800
     7  C   -0.052523
     8  C   -0.014191
     9  C   -0.087178
    10  C    0.046701
    11  C    0.104846
    12  C    0.053196
    13  C   -0.071335
    14  H    0.034656
    15  N   -0.433251
    16  C    0.169193
    17  C   -0.176116
    18  C   -0.003417
    19  C    0.149070
    20  C    0.110005
    21  C    0.012894
    22  O   -0.250115
    23  C    0.061875
    24  N   -0.341201
    25  C    0.041452
    26  C   -0.028142
    27  C   -0.023835
    28  C    0.074691
    29  C    0.076300
    30  C    0.035176
    31  C   -0.004588
    32  N   -0.310257
    33  C    0.080094
    34  C   -0.170151
    35  C    0.007801
    36  C    0.082771
    37  C    0.127486
    38  C    0.045472
    39  O   -0.189866
    40  C   -0.005198
    41  C    0.212693
    42  O   -0.257707
    43  O   -0.304577
    44  C    0.158220
    45  H   -0.017581
    46  H   -0.016986
    47  H   -0.041773
    48  H    0.000331
    49  H   -0.003664
    50  H    0.025166
    51  H    0.016459
    52  H    0.016479
    53  H    0.013010
    54  H    0.043701
    55  H    0.017389
    56  H    0.018536
    57  H    0.005839
    58  H    0.026434
    59  H    0.042132
    60  H    0.036965
    61  H    0.035515
    62  H    0.034043
    63  H    0.016448
    64  H    0.009085
    65  H    0.022944
    66  H    0.012469
    67  H    0.004521
    68  H    0.005872
    69  H    0.004715
    70  H    0.008291
    71  H    0.019044
    72  H    0.029257
    73  H    0.046639
    74  H    0.009189
    75  H    0.045586
    76  H    0.034862
    77  H    0.042360
    78  H    0.046588
    79  H    0.052432
    80  Mg   0.838727
    81  C   -0.016950
    82  C   -0.086897
    83  C   -0.045530
    84  C   -0.064855
    85  N   -0.254578
    86  C   -0.049911
    87  C   -0.015299
    88  C   -0.090694
    89  C    0.046156
    90  C    0.114409
    91  C    0.062200
    92  C   -0.077408
    93  H    0.033394
    94  N   -0.423642
    95  C    0.163910
    96  C   -0.173595
    97  C   -0.007113
    98  C    0.152482
    99  C    0.099198
   100  C    0.016219
   101  O   -0.253755
   102  C    0.060500
   103  N   -0.350079
   104  C    0.037718
   105  C   -0.019817
   106  C   -0.034648
   107  C    0.088718
   108  C    0.073806
   109  C    0.034804
   110  C   -0.007737
   111  N   -0.323890
   112  C    0.078059
   113  C   -0.163623
   114  C    0.001703
   115  C    0.095980
   116  C    0.131652
   117  C    0.041749
   118  O   -0.189277
   119  C    0.001063
   120  C    0.211101
   121  O   -0.251595
   122  O   -0.305427
   123  C    0.152524
   124  H   -0.019594
   125  H   -0.015744
   126  H   -0.040797
   127  H   -0.001264
   128  H   -0.003901
   129  H    0.022140
   130  H    0.014419
   131  H    0.016112
   132  H    0.015872
   133  H    0.037266
   134  H    0.020271
   135  H    0.020202
   136  H    0.008727
   137  H    0.025720
   138  H    0.042726
   139  H    0.037871
   140  H    0.036229
   141  H    0.036763
   142  H    0.014256
   143  H    0.012026
   144  H    0.024856
   145  H    0.011583
   146  H    0.005432
   147  H    0.005757
   148  H    0.003583
   149  H    0.010448
   150  H    0.018654
   151  H    0.030411
   152  H    0.045118
   153  H    0.008501
   154  H    0.046501
   155  H    0.034715
   156  H    0.043323
   157  H    0.049672
   158  H    0.052392
 Sum of Mulliken charges =  -0.00000

 Dipole moment (field-independent basis, Debye):
    X=              0.1731    Y=              3.0998    Z=              0.1270  Tot=              3.1072
 Quadrupole moment (field-independent basis, Debye-Ang):
   XX=           -486.6268   YY=           -461.2413   ZZ=           -536.7692
   XY=              0.5172   XZ=             44.8284   YZ=              0.3448

 Normal termination of Gaussian 16 at Fri Sep 10 13:13:41 2021.
