 Gaussian 16, Revision A.03,
 Gaussian 16:  ES64L-G16RevA.03 25-Dec-2016

 -----------------------------------
 #p cam-b3lyp/Def2SVP td=(nstates=5)
 -----------------------------------

 --------------------------------
 TDDFT excited states in gaussian
 --------------------------------
 Symbolic Z-matrix:
 Charge =  0 Multiplicity = 1

                         Standard orientation:
 ---------------------------------------------------------------------
 Center     Atomic      Atomic             Coordinates (Angstroms)
 Number     Number       Type             X           Y           Z
 ---------------------------------------------------------------------
      1         12           0      -15.794411   -0.762486    0.040687
      2          6           0      -15.994420    2.784173    0.480487
      3          6           0      -16.661363   -0.257295   -3.220638
      4          6           0      -16.068182   -3.907483   -0.260414
      5          6           0      -16.064099   -1.058596    3.502659
      6          7           0      -16.243029    1.076879   -1.106538
      7          6           0      -16.226052    2.378224   -0.835643
      8          6           0      -16.402862    3.274380   -2.097791
      9          6           0      -17.154554    2.233066   -3.042579
     10          6           0      -16.628773    0.939718   -2.445313
     11          6           0      -18.672347    2.261251   -2.894218
     12          6           0      -15.031169    3.716655   -2.709820
     13          6           0      -15.109160    4.848954   -3.738008
     14          1           0      -14.032411    5.826521   -3.786185
     15          7           0      -15.811571   -1.898095   -1.575775
     16          6           0      -16.177574   -1.523131   -2.825066
     17          6           0      -16.017144   -2.723096   -3.674199
     18          6           0      -15.709971   -3.874706   -2.781152
     19          6           0      -15.878990   -3.270255   -1.484445
     20          6           0      -16.108048   -2.691444   -5.169019
     21          6           0      -15.335406   -5.297311   -3.053231
     22          8           0      -15.339059   -6.188813   -2.136834
     23          6           0      -15.045847   -5.643516   -4.456563
     24          7           0      -16.252326   -2.284102    1.394434
     25          6           0      -16.247318   -3.567466    1.017688
     26          6           0      -16.322587   -4.484562    2.202260
     27          6           0      -16.134662   -3.559492    3.490158
     28          6           0      -16.061642   -2.183350    2.783638
     29          6           0      -17.619185   -5.294356    2.340379
     30          6           0      -15.001020   -3.944868    4.473398
     31          6           0      -13.656439   -3.739181    3.812420
     32          7           0      -15.816935    0.597418    1.732195
     33          6           0      -15.961103    0.257830    3.085180
     34          6           0      -16.025846    1.520950    3.843074
     35          6           0      -15.930883    2.514212    2.870316
     36          6           0      -15.840621    1.910088    1.583778
     37          6           0      -16.214377    1.640970    5.248238
     38          6           0      -15.909460    3.945612    2.616361
     39          8           0      -15.860771    4.951537    3.325752
     40          6           0      -16.072406    4.179018    1.049581
     41          6           0      -15.023376    5.170818    0.626286
     42          8           0      -13.811307    4.876532    0.666887
     43          8           0      -15.614720    6.212465    0.021448
     44          6           0      -14.627198    7.219989   -0.449561
     45          1           0      -17.153795   -0.241864   -4.194914
     46          1           0      -16.057082   -4.998370   -0.308158
     47          1           0      -16.062975   -1.073188    4.594097
     48          1           0      -17.025796    4.155979   -1.945601
     49          1           0      -16.840010    2.325895   -4.081890
     50          1           0      -18.980106    2.902915   -2.068704
     51          1           0      -18.965371    1.228660   -2.703464
     52          1           0      -19.148416    2.538903   -3.834986
     53          1           0      -14.645651    2.917459   -3.342846
     54          1           0      -14.328417    3.992185   -1.922705
     55          1           0      -16.077761    5.348762   -3.707780
     56          1           0      -15.062136    4.409373   -4.734380
     57          1           0      -16.507060   -1.742810   -5.525988
     58          1           0      -16.857942   -3.427530   -5.458062
     59          1           0      -15.156100   -2.930766   -5.643205
     60          1           0      -15.920591   -5.424260   -5.069179
     61          1           0      -14.710037   -6.679855   -4.447476
     62          1           0      -14.246322   -4.998230   -4.821684
     63          1           0      -15.524303   -5.225113    2.174825
     64          1           0      -17.029906   -3.537397    4.112029
     65          1           0      -17.460098   -6.372225    2.380311
     66          1           0      -18.273931   -5.026125    1.511735
     67          1           0      -18.235433   -5.027663    3.198593
     68          1           0      -15.070540   -4.999517    4.737653
     69          1           0      -15.019789   -3.369149    5.398842
     70          1           0      -13.519192   -4.660745    3.247872
     71          1           0      -12.876261   -3.622739    4.565398
     72          1           0      -13.686876   -2.918972    3.094912
     73          1           0      -15.515932    2.406781    5.585399
     74          1           0      -16.036492    0.692246    5.754086
     75          1           0      -17.260348    1.944850    5.286410
     76          1           0      -17.081608    4.558420    0.892462
     77          1           0      -14.907483    8.175682   -0.006476
     78          1           0      -14.610241    7.152225   -1.537460
     79          1           0      -13.609360    7.109587   -0.073852
     80         12           0       15.963318   -0.791815    0.108754
     81          6           0       15.760782    2.791175    0.094457
     82          6           0       15.094119   -0.705065   -3.188447
     83          6           0       15.692822   -3.951887    0.199262
     84          6           0       15.687945   -0.654930    3.580224
     85          7           0       15.512425    0.887019   -1.258892
     86          6           0       15.527413    2.208369   -1.168604
     87          6           0       15.357814    2.947576   -2.522996
     88          6           0       14.598843    1.789073   -3.335837
     89          6           0       15.123456    0.572927   -2.575277
     90          6           0       13.087955    1.834949   -3.179459
     91          6           0       16.734595    3.306132   -3.184755
     92          6           0       16.650200    4.295661   -4.348996
     93          1           0       17.733159    5.259708   -4.522979
     94          7           0       15.949349   -2.122272   -1.363741
     95          6           0       15.589811   -1.911646   -2.647347
     96          6           0       15.734779   -3.209844   -3.323973
     97          6           0       16.051111   -4.240667   -2.298273
     98          6           0       15.885911   -3.465021   -1.085347
     99          6           0       15.652427   -3.364064   -4.814896
    100          6           0       16.426142   -5.688635   -2.392832
    101          8           0       16.423839   -6.453357   -1.364228
    102          6           0       16.705615   -6.206840   -3.739997
    103          7           0       15.513054   -2.125140    1.639064
    104          6           0       15.512509   -3.452090    1.421964
    105          6           0       15.434289   -4.217387    2.721423
    106          6           0       15.627045   -3.126443    3.874792
    107          6           0       15.697268   -1.850627    3.007179
    108          6           0       14.136644   -4.988422    2.962296
    109          6           0       16.761383   -3.383568    4.904271
    110          6           0       18.108145   -3.275020    4.226156
    111          7           0       15.945862    0.764334    1.607472
    112          6           0       15.794732    0.603613    3.002252
    113          6           0       15.730485    1.956575    3.591975
    114          6           0       15.826328    2.817375    2.488194
    115          6           0       15.921824    2.054658    1.292931
    116          6           0       15.552366    2.254774    4.972369
    117          6           0       15.857734    4.197799    2.061430
    118          8           0       15.899414    5.284317    2.637187
    119          6           0       15.689413    4.242277    0.481537
    120          6           0       16.738650    5.167350   -0.071506
    121          8           0       17.945373    4.880679    0.019334
    122          8           0       16.140436    6.124463   -0.803936
    123          6           0       17.140947    7.060264   -1.382793
    124          1           0       14.607797   -0.803636   -4.159355
    125          1           0       15.703482   -5.039858    0.297709
    126          1           0       15.701067   -0.527250    4.664754
    127          1           0       14.741145    3.837356   -2.480782
    128          1           0       14.921351    1.758211   -4.373335
    129          1           0       12.780525    2.569625   -2.450148
    130          1           0       12.794646    0.842401   -2.863458
    131          1           0       12.613006    1.994335   -4.151750
    132          1           0       17.117472    2.424558   -3.714826
    133          1           0       17.426878    3.670074   -2.450642
    134          1           0       15.676796    4.799203   -4.392243
    135          1           0       16.703814    3.735100   -5.285430
    136          1           0       15.246354   -2.462878   -5.290683
    137          1           0       14.903614   -4.137982   -5.015433
    138          1           0       16.602340   -3.667608   -5.260069
    139          1           0       15.832378   -6.060988   -4.371372
    140          1           0       17.042052   -7.235062   -3.593596
    141          1           0       17.515443   -5.615233   -4.181356
    142          1           0       16.232810   -4.945938    2.789828
    143          1           0       14.727456   -3.031780    4.500577
    144          1           0       14.297176   -6.068812    3.138508
    145          1           0       13.485302   -4.834438    2.112250
    146          1           0       13.528843   -4.622971    3.788263
    147          1           0       16.692805   -4.400979    5.297132
    148          1           0       16.735691   -2.708232    5.752961
    149          1           0       18.239680   -4.264804    3.778821
    150          1           0       18.888176   -3.064472    4.955029
    151          1           0       18.079563   -2.545056    3.408854
    152          1           0       16.243806    3.052123    5.210388
    153          1           0       15.725384    1.378701    5.593913
    154          1           0       14.501746    2.557227    4.972579
    155          1           0       14.679486    4.595331    0.269484
    156          1           0       16.857411    8.068165   -1.064293
    157          1           0       17.144853    6.858113   -2.470389
    158          1           0       18.157421    6.999391   -1.011971
 ---------------------------------------------------------------------

 SCF Done:  E(RCAM-B3LYP) =  -4069.81176021     A.U. after   19 cycles

 Excitation energies and oscillator strengths:

 Excited State   1:      Singlet-A      1.6753 eV  740.07 nm  f=0.2144  <S**2>=0.000
     310 -> 316        0.16861
     311 -> 314       -0.16230
     312 -> 313        0.66658
     310 <- 316        0.10165
 This state for optimization and/or second-order correction.
 Total Energy, E(TD-HF/TD-DFT) =  -4069.75019364
 Copying the excited state density for this state as the 1-particle RhoCI density.

 Excited State   2:      Singlet-A      1.6801 eV  737.96 nm  f=0.5630  <S**2>=0.000
     309 -> 315        0.17062
     311 -> 314        0.66621
     312 -> 313        0.16225
     309 <- 315        0.10215

 Excited State   3:      Singlet-A      2.1861 eV  567.15 nm  f=0.0952  <S**2>=0.000
     310 -> 313        0.64211
     312 -> 316       -0.27295

 Excited State   4:      Singlet-A      2.1925 eV  565.49 nm  f=0.1049  <S**2>=0.000
     309 -> 314        0.64033
     311 -> 315       -0.27814

 Excited State   5:      Singlet-A      3.0658 eV  404.41 nm  f=0.0000  <S**2>=0.000
     311 -> 313        0.70711

 The electronic state is 1-A.
 Alpha  occ. eigenvalues --  -46.87796 -46.87660 -19.26348 -19.26282 -19.19160
 Alpha  occ. eigenvalues --  -19.19018 -19.18816 -19.18715 -19.18168 -19.18050
 Alpha  occ. eigenvalues --  -14.42497 -14.42449 -14.41449 -14.41359 -14.39402
 Alpha  occ. eigenvalues --  -14.39352 -14.38600 -14.38586 -10.39090 -10.39077
 Alpha  occ. eigenvalues --  -10.35449 -10.35393 -10.34388 -10.34227 -10.31755
 Alpha  occ. eigenvalues --  -10.31676 -10.31404 -10.31309 -10.31023 -10.30908
 Alpha  occ. eigenvalues --  -10.30569 -10.30507 -10.30397 -10.30360 -10.30207
 Alpha  occ. eigenvalues --  -10.30141 -10.29920 -10.29894 -10.29630 -10.29437
 Alpha  occ. eigenvalues --  -10.29401 -10.29254 -10.28749 -10.28719 -10.28655
 Alpha  occ. eigenvalues --  -10.28539 -10.28405 -10.28364 -10.28140 -10.28116
 Alpha  occ. eigenvalues --  -10.28001 -10.27792 -10.27727 -10.27669 -10.27584
 Alpha  occ. eigenvalues --  -10.27517 -10.27500 -10.27483 -10.27483 -10.27469
 Alpha  occ. eigenvalues --  -10.27466 -10.27449 -10.27403 -10.27375 -10.27157
 Alpha  occ. eigenvalues --  -10.27049 -10.26705 -10.26693 -10.26417 -10.26413
 Alpha  occ. eigenvalues --  -10.26234 -10.26182 -10.26137 -10.26024 -10.26019
 Alpha  occ. eigenvalues --  -10.25934 -10.25848 -10.25841 -10.25435 -10.25396
 Alpha  occ. eigenvalues --  -10.24872 -10.24832 -10.24787 -10.24731 -10.24690
 Alpha  occ. eigenvalues --  -10.24686  -3.16539  -3.16410  -1.91421  -1.91293
 Alpha  occ. eigenvalues --   -1.91007  -1.90881  -1.90849  -1.90718  -1.16642
 Alpha  occ. eigenvalues --   -1.16630  -1.08656  -1.08625  -1.07217  -1.06967
 Alpha  occ. eigenvalues --   -1.06944  -1.06640  -1.04580  -1.04495  -1.03760
 Alpha  occ. eigenvalues --   -1.03663  -1.03233  -1.03039  -1.02410  -1.02111
 Alpha  occ. eigenvalues --   -0.91987  -0.91971  -0.89519  -0.89494  -0.89187
 Alpha  occ. eigenvalues --   -0.89151  -0.88286  -0.88220  -0.87869  -0.87793
 Alpha  occ. eigenvalues --   -0.87684  -0.87672  -0.87274  -0.87121  -0.85000
 Alpha  occ. eigenvalues --   -0.84982  -0.83935  -0.83876  -0.82968  -0.82932
 Alpha  occ. eigenvalues --   -0.82653  -0.82648  -0.81596  -0.81584  -0.80596
 Alpha  occ. eigenvalues --   -0.80442  -0.78797  -0.78636  -0.77218  -0.77145
 Alpha  occ. eigenvalues --   -0.76933  -0.76898  -0.75922  -0.75838  -0.74897
 Alpha  occ. eigenvalues --   -0.74802  -0.72773  -0.72699  -0.71671  -0.71581
 Alpha  occ. eigenvalues --   -0.69906  -0.69757  -0.68873  -0.68827  -0.67641
 Alpha  occ. eigenvalues --   -0.67602  -0.67220  -0.67201  -0.65286  -0.65272
 Alpha  occ. eigenvalues --   -0.64853  -0.64770  -0.64654  -0.64620  -0.64269
 Alpha  occ. eigenvalues --   -0.64203  -0.62296  -0.62278  -0.60442  -0.60340
 Alpha  occ. eigenvalues --   -0.59804  -0.59796  -0.58993  -0.58987  -0.58503
 Alpha  occ. eigenvalues --   -0.58425  -0.57583  -0.57554  -0.57308  -0.57236
 Alpha  occ. eigenvalues --   -0.56309  -0.56204  -0.55977  -0.55886  -0.55520
 Alpha  occ. eigenvalues --   -0.55452  -0.55338  -0.55247  -0.54522  -0.54487
 Alpha  occ. eigenvalues --   -0.53913  -0.53894  -0.53298  -0.53228  -0.53222
 Alpha  occ. eigenvalues --   -0.53142  -0.52914  -0.52902  -0.52756  -0.52669
 Alpha  occ. eigenvalues --   -0.52437  -0.52401  -0.51913  -0.51883  -0.51659
 Alpha  occ. eigenvalues --   -0.51616  -0.51201  -0.51195  -0.50574  -0.50476
 Alpha  occ. eigenvalues --   -0.50031  -0.49980  -0.49919  -0.49867  -0.49514
 Alpha  occ. eigenvalues --   -0.49488  -0.49214  -0.49202  -0.49104  -0.49095
 Alpha  occ. eigenvalues --   -0.48592  -0.48558  -0.48461  -0.48445  -0.48375
 Alpha  occ. eigenvalues --   -0.48339  -0.47694  -0.47595  -0.47296  -0.47118
 Alpha  occ. eigenvalues --   -0.46796  -0.46709  -0.46555  -0.46554  -0.46358
 Alpha  occ. eigenvalues --   -0.46270  -0.46161  -0.46085  -0.45821  -0.45820
 Alpha  occ. eigenvalues --   -0.45208  -0.45201  -0.44576  -0.44514  -0.44507
 Alpha  occ. eigenvalues --   -0.44476  -0.44144  -0.44127  -0.44088  -0.44078
 Alpha  occ. eigenvalues --   -0.44019  -0.43939  -0.43553  -0.43493  -0.43385
 Alpha  occ. eigenvalues --   -0.43385  -0.43026  -0.42930  -0.42900  -0.42697
 Alpha  occ. eigenvalues --   -0.42653  -0.42553  -0.42008  -0.41964  -0.41703
 Alpha  occ. eigenvalues --   -0.41669  -0.41533  -0.41459  -0.41140  -0.40989
 Alpha  occ. eigenvalues --   -0.40869  -0.40824  -0.40723  -0.40699  -0.40570
 Alpha  occ. eigenvalues --   -0.40493  -0.40234  -0.40228  -0.39440  -0.39425
 Alpha  occ. eigenvalues --   -0.38468  -0.38350  -0.37748  -0.37654  -0.37319
 Alpha  occ. eigenvalues --   -0.37266  -0.37263  -0.37200  -0.36770  -0.36711
 Alpha  occ. eigenvalues --   -0.36217  -0.36191  -0.34285  -0.34253  -0.33861
 Alpha  occ. eigenvalues --   -0.33768  -0.33186  -0.33175  -0.31346  -0.31274
 Alpha  occ. eigenvalues --   -0.31035  -0.30973  -0.30027  -0.29954  -0.29449
 Alpha  occ. eigenvalues --   -0.29327  -0.29321  -0.29211  -0.24080  -0.24036
 Alpha  occ. eigenvalues --   -0.21127  -0.21117
 Alpha virt. eigenvalues --   -0.08792  -0.08774  -0.01749  -0.01684  -0.00058
 Alpha virt. eigenvalues --   -0.00029   0.02201   0.02208   0.03123   0.03227
 Alpha virt. eigenvalues --    0.04719   0.04729   0.05100   0.05166   0.06178

 Mulliken charges:
               1
     1  Mg   0.838798
     2  C   -0.002951
     3  C   -0.094128
     4  C   -0.045890
     5  C   -0.063951
     6  N   -0.256804
     7  C   -0.052462
     8  C   -0.014009
     9  C   -0.087004
    10  C    0.046324
    11  C    0.104813
    12  C    0.053472
    13  C   -0.071798
    14  H    0.036128
    15  N   -0.433148
    16  C    0.168411
    17  C   -0.177166
    18  C   -0.004024
    19  C    0.148720
    20  C    0.110183
    21  C    0.012284
    22  O   -0.249631
    23  C    0.062478
    24  N   -0.341146
    25  C    0.041251
    26  C   -0.028193
    27  C   -0.023950
    28  C    0.074822
    29  C    0.076176
    30  C    0.035132
    31  C   -0.004504
    32  N   -0.310481
    33  C    0.080413
    34  C   -0.169697
    35  C    0.008365
    36  C    0.082992
    37  C    0.127310
    38  C    0.046136
    39  O   -0.188405
    40  C   -0.005360
    41  C    0.212890
    42  O   -0.257107
    43  O   -0.304796
    44  C    0.157688
    45  H   -0.017614
    46  H   -0.016842
    47  H   -0.041475
    48  H    0.000948
    49  H   -0.004048
    50  H    0.025482
    51  H    0.016445
    52  H    0.016651
    53  H    0.011187
    54  H    0.044132
    55  H    0.017879
    56  H    0.017929
    57  H    0.005867
    58  H    0.026815
    59  H    0.039520
    60  H    0.037344
    61  H    0.035632
    62  H    0.031481
    63  H    0.016549
    64  H    0.009467
    65  H    0.023208
    66  H    0.012542
    67  H    0.004759
    68  H    0.006365
    69  H    0.004744
    70  H    0.008769
    71  H    0.018159
    72  H    0.028975
    73  H    0.047596
    74  H    0.009121
    75  H    0.046017
    76  H    0.035158
    77  H    0.042968
    78  H    0.046387
    79  H    0.053700
    80  Mg   0.837862
    81  C   -0.016845
    82  C   -0.087790
    83  C   -0.045514
    84  C   -0.064878
    85  N   -0.254559
    86  C   -0.049823
    87  C   -0.015106
    88  C   -0.090499
    89  C    0.045749
    90  C    0.114366
    91  C    0.062533
    92  C   -0.077900
    93  H    0.034897
    94  N   -0.423492
    95  C    0.162930
    96  C   -0.174630
    97  C   -0.007805
    98  C    0.152111
    99  C    0.099367
   100  C    0.015566
   101  O   -0.253175
   102  C    0.061200
   103  N   -0.350093
   104  C    0.037545
   105  C   -0.019836
   106  C   -0.034851
   107  C    0.088964
   108  C    0.073644
   109  C    0.034724
   110  C   -0.007679
   111  N   -0.324111
   112  C    0.078451
   113  C   -0.163116
   114  C    0.002269
   115  C    0.096202
   116  C    0.131487
   117  C    0.042398
   118  O   -0.187839
   119  C    0.000943
   120  C    0.211245
   121  O   -0.251025
   122  O   -0.305617
   123  C    0.152024
   124  H   -0.019664
   125  H   -0.015561
   126  H   -0.040422
   127  H   -0.000623
   128  H   -0.004341
   129  H    0.022504
   130  H    0.014446
   131  H    0.016279
   132  H    0.013906
   133  H    0.037679
   134  H    0.020802
   135  H    0.019577
   136  H    0.008753
   137  H    0.026143
   138  H    0.039780
   139  H    0.038248
   140  H    0.036392
   141  H    0.033889
   142  H    0.014396
   143  H    0.012469
   144  H    0.025143
   145  H    0.011656
   146  H    0.005723
   147  H    0.006281
   148  H    0.003675
   149  H    0.010927
   150  H    0.017936
   151  H    0.030090
   152  H    0.046018
   153  H    0.008524
   154  H    0.047016
   155  H    0.035070
   156  H    0.043939
   157  H    0.049482
   158  H    0.053576
 Sum of Mulliken charges =  -0.00000

 Dipole moment (field-independent basis, Debye):
    X=             -3.9844    Y=             -2.4324    Z=             -7.7651  Tot=              9.0603
 Quadrupole moment (field-independent basis, Debye-Ang):
   XX=           -516.2383   YY=           -551.3594   ZZ=           -447.5384
   XY=            -11.3747   XZ=              3.5339   YZ=            -48.2161

 Normal termination of Gaussian 16 at Sat Sep  4 20:10:17 2021.
