 Gaussian 16, Revision A.03,
 Gaussian 16:  ES64L-G16RevA.03 25-Dec-2016

 -----------------------------------
 #p cam-b3lyp/Def2SVP td=(nstates=5)
 -----------------------------------

 --------------------------------
 TDDFT excited states in gaussian
 --------------------------------
 Symbolic Z-matrix:
 Charge =  0 Multiplicity = 1

                         Standard orientation:
 ---------------------------------------------------------------------
 Center     Atomic      Atomic             Coordinates (Angstroms)
 Number     Number       Type             X           Y           Z
 ---------------------------------------------------------------------
      1         12           0       -3.784058    0.600011    0.897785
      2          6           0       -4.552309   -2.123188   -1.294517
      3          6           0       -4.015678   -1.612486    3.485114
      4          6           0       -3.558265    3.063571    2.881849
      5          6           0       -4.723618    2.747805   -1.680949
      6          7           0       -4.231078   -1.567232    0.960040
      7          6           0       -4.448167   -2.506308    0.044519
      8          6           0       -4.479530   -3.948202    0.633868
      9          6           0       -4.869682   -3.596433    2.139204
     10          6           0       -4.308142   -2.187467    2.212757
     11          6           0       -6.374579   -3.538653    2.380964
     12          6           0       -3.084002   -4.653752    0.553658
     13          6           0       -3.100381   -6.164606    0.803469
     14          1           0       -2.180540   -7.008114    0.055316
     15          7           0       -3.310405    0.661962    2.814727
     16          6           0       -3.456694   -0.337231    3.717776
     17          6           0       -2.961532    0.199717    5.003537
     18          6           0       -2.692465    1.652548    4.816511
     19          6           0       -3.207723    1.859056    3.487134
     20          6           0       -2.743596   -0.647262    6.219630
     21          6           0       -2.079330    2.692359    5.700247
     22          8           0       -2.151639    3.940567    5.433187
     23          6           0       -1.460357    2.211468    6.948710
     24          7           0       -4.301342    2.614957    0.724449
     25          6           0       -4.043434    3.480903    1.710657
     26          6           0       -4.237299    4.897702    1.257849
     27          6           0       -4.448645    4.831398   -0.323508
     28          6           0       -4.418738    3.293294   -0.501306
     29          6           0       -5.411633    5.650327    1.898555
     30          6           0       -3.502110    5.693307   -1.196207
     31          6           0       -2.090451    5.158648   -1.104249
     32          7           0       -4.342290    0.391767   -1.189332
     33          6           0       -4.716538    1.418276   -2.068474
     34          6           0       -5.108675    0.778462   -3.337700
     35          6           0       -4.950080   -0.585736   -3.101786
     36          6           0       -4.513267   -0.786941   -1.761262
     37          6           0       -5.599348    1.449430   -4.492462
     38          6           0       -5.071629   -1.921617   -3.662595
     39          8           0       -5.308775   -2.373061   -4.783957
     40          6           0       -4.936028   -2.976743   -2.477627
     41          6           0       -3.967107   -4.038055   -2.922732
     42          8           0       -2.761330   -3.769702   -3.100087
     43          8           0       -4.556292   -5.240787   -2.840038
     44          6           0       -3.639191   -6.341437   -3.239598
     45          1           0       -4.292543   -2.160202    4.388050
     46          1           0       -3.388975    3.949220    3.497808
     47          1           0       -4.947109    3.359100   -2.557204
     48          1           0       -5.234659   -4.601619    0.196546
     49          1           0       -4.361888   -4.244491    2.853269
     50          1           0       -6.931489   -3.621900    1.447774
     51          1           0       -6.557340   -2.570840    2.848328
     52          1           0       -6.678276   -4.287162    3.113275
     53          1           0       -2.470265   -4.333163    1.395449
     54          1           0       -2.604193   -4.451966   -0.404669
     55          1           0       -4.113018   -6.565857    0.753739
     56          1           0       -2.788105   -6.344079    1.832291
     57          1           0       -3.185255   -1.636178    6.103327
     58          1           0       -3.309716   -0.190685    7.031266
     59          1           0       -1.690420   -0.707439    6.494459
     60          1           0       -2.210407    1.691870    7.545360
     61          1           0       -0.995755    3.082736    7.409020
     62          1           0       -0.697992    1.471717    6.702704
     63          1           0       -3.357425    5.501709    1.475618
     64          1           0       -5.447955    5.154221   -0.616492
     65          1           0       -5.118965    6.573230    2.399854
     66          1           0       -5.910403    4.971228    2.589456
     67          1           0       -6.223071    5.898442    1.214870
     68          1           0       -3.480619    6.719917   -0.832124
     69          1           0       -3.790839    5.720053   -2.247002
     70          1           0       -1.714752    5.619093   -0.191193
     71          1           0       -1.506879    5.474679   -1.969570
     72          1           0       -2.082737    4.079202   -0.951856
     73          1           0       -5.097104    0.994416   -5.346091
     74          1           0       -5.402784    2.520128   -4.441752
     75          1           0       -6.661888    1.216308   -4.425234
     76          1           0       -5.932700   -3.380186   -2.301558
     77          1           0       -4.132884   -6.897092   -4.036936
     78          1           0       -3.387699   -6.881948   -2.326907
     79          1           0       -2.716180   -6.042860   -3.737837
     80         12           0        3.910990    0.619868   -1.078878
     81          6           0        4.243643   -2.278395    1.011193
     82          6           0        3.737579    2.475747    1.777731
     83          6           0        3.166927    3.129230   -2.872454
     84          6           0        2.973528   -1.522510   -3.662887
     85          7           0        3.992710    0.056943    1.058564
     86          6           0        4.183264   -1.067542    1.732046
     87          6           0        4.396951   -0.875322    3.257477
     88          6           0        3.653196    0.537652    3.428311
     89          6           0        3.831629    1.080622    2.011967
     90          6           0        2.164848    0.404760    3.704912
     91          6           0        5.915289   -0.775234    3.640403
     92          6           0        6.210449   -0.897037    5.137004
     93          1           0        7.435944   -1.574181    5.551889
     94          7           0        3.995102    2.560248   -0.670937
     95          6           0        3.933058    3.139247    0.546517
     96          6           0        4.017555    4.588361    0.307632
     97          6           0        3.968629    4.825351   -1.160756
     98          6           0        3.681100    3.486302   -1.634437
     99          6           0        4.211763    5.585316    1.412983
    100          6           0        4.138231    6.056112   -1.998995
    101          8           0        3.819062    6.074687   -3.240218
    102          6           0        4.601002    7.265192   -1.302258
    103          7           0        2.974453    0.804913   -2.925768
    104          6           0        2.822300    2.008152   -3.506284
    105          6           0        2.375594    1.868550   -4.942021
    106          6           0        2.493048    0.309596   -5.278853
    107          6           0        2.921041   -0.217486   -3.891620
    108          6           0        0.957123    2.349406   -5.247129
    109          6           0        3.349572   -0.080875   -6.514401
    110          6           0        4.805361    0.231488   -6.252745
    111          7           0        3.824348   -1.518984   -1.371885
    112          6           0        3.376791   -2.204907   -2.522228
    113          6           0        3.395838   -3.647397   -2.203955
    114          6           0        3.834706   -3.699648   -0.872362
    115          6           0        4.053082   -2.381618   -0.388005
    116          6           0        2.992367   -4.697185   -3.076465
    117          6           0        4.152726   -4.569568    0.237063
    118          8           0        4.238073   -5.787474    0.389240
    119          6           0        4.310525   -3.681968    1.546117
    120          6           0        5.573031   -4.105861    2.245339
    121          8           0        6.682116   -3.923129    1.713211
    122          8           0        5.279647   -4.455389    3.511084
    123          6           0        6.501663   -4.873013    4.248715
    124          1           0        3.445074    3.122268    2.605586
    125          1           0        2.997919    3.954095   -3.568517
    126          1           0        2.789205   -2.260412   -4.446593
    127          1           0        3.921680   -1.623422    3.880570
    128          1           0        4.167584    1.170447    4.146873
    129          1           0        1.829719   -0.618565    3.623460
    130          1           0        1.672041    1.024133    2.966966
    131          1           0        1.921514    0.842906    4.677100
    132          1           0        6.262323    0.250914    3.463373
    133          1           0        6.493441   -1.497896    3.098083
    134          1           0        5.349806   -1.282860    5.696808
    135          1           0        6.366425    0.105522    5.542666
    136          1           0        4.045288    5.131559    2.397761
    137          1           0        3.412487    6.328234    1.317614
    138          1           0        5.176194    6.094546    1.356269
    139          1           0        3.901920    7.513787   -0.507305
    140          1           0        4.746897    8.014463   -2.082755
    141          1           0        5.560354    7.045784   -0.820474
    142          1           0        3.028740    2.421666   -5.605763
    143          1           0        1.510770   -0.135721   -5.494867
    144          1           0        0.918978    3.123062   -6.037111
    145          1           0        0.517747    2.719927   -4.330505
    146          1           0        0.257504    1.568177   -5.539373
    147          1           0        3.055570    0.514327   -7.382411
    148          1           0        3.254951   -1.125122   -6.792981
    149          1           0        4.876514    1.296306   -6.493963
    150          1           0        5.447067   -0.363465   -6.899502
    151          1           0        5.047465    0.117418   -5.189718
    152          1           0        3.732047   -5.481193   -2.983118
    153          1           0        2.907718   -4.349707   -4.104012
    154          1           0        2.018747   -4.945538   -2.645607
    155          1           0        3.425980   -3.847098    2.162480
    156          1           0        6.311538   -5.877589    4.639075
    157          1           0        6.692170   -4.072869    4.988463
    158          1           0        7.403859   -5.037716    3.671338
 ---------------------------------------------------------------------

 SCF Done:  E(RCAM-B3LYP) =  -4069.81259879     A.U. after   19 cycles

 Excitation energies and oscillator strengths:

 Excited State   1:      Singlet-A      1.6602 eV  746.79 nm  f=0.2529  <S**2>=0.000
     309 -> 315        0.11528
     310 -> 316       -0.12426
     311 -> 313       -0.46559
     312 -> 314        0.50401
 This state for optimization and/or second-order correction.
 Total Energy, E(TD-HF/TD-DFT) =  -4069.75158673
 Copying the excited state density for this state as the 1-particle RhoCI density.

 Excited State   2:      Singlet-A      1.6801 eV  737.95 nm  f=0.3913  <S**2>=0.000
     309 -> 315       -0.12797
     310 -> 316       -0.11932
     311 -> 313        0.50311
     312 -> 314        0.46518

 Excited State   3:      Singlet-A      2.1842 eV  567.63 nm  f=0.0952  <S**2>=0.000
     310 -> 314        0.63756
     312 -> 316        0.27056

 Excited State   4:      Singlet-A      2.1888 eV  566.46 nm  f=0.1017  <S**2>=0.000
     309 -> 313        0.63641
     311 -> 315        0.27295

 Excited State   5:      Singlet-A      2.2347 eV  554.82 nm  f=0.0000  <S**2>=0.000
     312 -> 313        0.70699

 The electronic state is 1-A.
 Alpha  occ. eigenvalues --  -46.87921 -46.87420 -19.26370 -19.26318 -19.19140
 Alpha  occ. eigenvalues --  -19.19091 -19.19072 -19.18522 -19.18319 -19.17893
 Alpha  occ. eigenvalues --  -14.42562 -14.42275 -14.41569 -14.41095 -14.39544
 Alpha  occ. eigenvalues --  -14.39117 -14.38715 -14.38353 -10.39194 -10.39016
 Alpha  occ. eigenvalues --  -10.35712 -10.35203 -10.34533 -10.34074 -10.31763
 Alpha  occ. eigenvalues --  -10.31728 -10.31503 -10.31090 -10.31026 -10.30840
 Alpha  occ. eigenvalues --  -10.30694 -10.30653 -10.30338 -10.30145 -10.30106
 Alpha  occ. eigenvalues --  -10.30041 -10.29844 -10.29786 -10.29615 -10.29406
 Alpha  occ. eigenvalues --  -10.29176 -10.29149 -10.28789 -10.28641 -10.28625
 Alpha  occ. eigenvalues --  -10.28506 -10.28423 -10.28191 -10.28169 -10.28032
 Alpha  occ. eigenvalues --  -10.27946 -10.27843 -10.27766 -10.27755 -10.27666
 Alpha  occ. eigenvalues --  -10.27583 -10.27558 -10.27526 -10.27426 -10.27277
 Alpha  occ. eigenvalues --  -10.27269 -10.27225 -10.27217 -10.27129 -10.27052
 Alpha  occ. eigenvalues --  -10.26926 -10.26759 -10.26681 -10.26621 -10.26287
 Alpha  occ. eigenvalues --  -10.26255 -10.26205 -10.26138 -10.25989 -10.25988
 Alpha  occ. eigenvalues --  -10.25791 -10.25619 -10.25546 -10.25486 -10.25051
 Alpha  occ. eigenvalues --  -10.24983 -10.24925 -10.24650 -10.24638 -10.24448
 Alpha  occ. eigenvalues --  -10.24444  -3.16663  -3.16171  -1.91544  -1.91130
 Alpha  occ. eigenvalues --   -1.91053  -1.90973  -1.90642  -1.90478  -1.16724
 Alpha  occ. eigenvalues --   -1.16602  -1.08774  -1.08513  -1.07481  -1.06877
 Alpha  occ. eigenvalues --   -1.06779  -1.06757  -1.04695  -1.04282  -1.03883
 Alpha  occ. eigenvalues --   -1.03422  -1.03370  -1.02777  -1.02541  -1.01862
 Alpha  occ. eigenvalues --   -0.92097  -0.91783  -0.89617  -0.89238  -0.89215
 Alpha  occ. eigenvalues --   -0.89022  -0.88385  -0.88011  -0.87925  -0.87774
 Alpha  occ. eigenvalues --   -0.87526  -0.87469  -0.87444  -0.86892  -0.85053
 Alpha  occ. eigenvalues --   -0.84846  -0.84022  -0.83596  -0.83187  -0.82742
 Alpha  occ. eigenvalues --   -0.82710  -0.82492  -0.81683  -0.81443  -0.80718
 Alpha  occ. eigenvalues --   -0.80258  -0.78962  -0.78391  -0.77312  -0.76993
 Alpha  occ. eigenvalues --   -0.76960  -0.76712  -0.76008  -0.75681  -0.74996
 Alpha  occ. eigenvalues --   -0.74539  -0.72898  -0.72446  -0.71781  -0.71363
 Alpha  occ. eigenvalues --   -0.69966  -0.69456  -0.68967  -0.68665  -0.67786
 Alpha  occ. eigenvalues --   -0.67389  -0.67290  -0.67055  -0.65355  -0.65125
 Alpha  occ. eigenvalues --   -0.64964  -0.64711  -0.64552  -0.64468  -0.64366
 Alpha  occ. eigenvalues --   -0.63926  -0.62395  -0.62125  -0.60611  -0.60098
 Alpha  occ. eigenvalues --   -0.59888  -0.59637  -0.59104  -0.58759  -0.58627
 Alpha  occ. eigenvalues --   -0.58210  -0.57706  -0.57439  -0.57407  -0.56993
 Alpha  occ. eigenvalues --   -0.56453  -0.56064  -0.55987  -0.55759  -0.55684
 Alpha  occ. eigenvalues --   -0.55434  -0.55280  -0.55013  -0.54612  -0.54270
 Alpha  occ. eigenvalues --   -0.53952  -0.53797  -0.53466  -0.53338  -0.53050
 Alpha  occ. eigenvalues --   -0.53006  -0.52964  -0.52900  -0.52739  -0.52494
 Alpha  occ. eigenvalues --   -0.52491  -0.52108  -0.52057  -0.51714  -0.51577
 Alpha  occ. eigenvalues --   -0.51510  -0.51296  -0.50996  -0.50797  -0.50261
 Alpha  occ. eigenvalues --   -0.50126  -0.50090  -0.49809  -0.49636  -0.49587
 Alpha  occ. eigenvalues --   -0.49357  -0.49312  -0.49172  -0.49042  -0.48933
 Alpha  occ. eigenvalues --   -0.48703  -0.48651  -0.48564  -0.48397  -0.48165
 Alpha  occ. eigenvalues --   -0.48093  -0.47811  -0.47434  -0.47395  -0.46893
 Alpha  occ. eigenvalues --   -0.46884  -0.46619  -0.46500  -0.46481  -0.46378
 Alpha  occ. eigenvalues --   -0.46277  -0.46023  -0.45925  -0.45828  -0.45631
 Alpha  occ. eigenvalues --   -0.45305  -0.44946  -0.44716  -0.44632  -0.44370
 Alpha  occ. eigenvalues --   -0.44276  -0.44258  -0.44156  -0.44151  -0.43962
 Alpha  occ. eigenvalues --   -0.43845  -0.43763  -0.43606  -0.43467  -0.43403
 Alpha  occ. eigenvalues --   -0.43199  -0.43140  -0.42807  -0.42799  -0.42728
 Alpha  occ. eigenvalues --   -0.42684  -0.42286  -0.42074  -0.41826  -0.41746
 Alpha  occ. eigenvalues --   -0.41589  -0.41477  -0.41281  -0.41246  -0.41048
 Alpha  occ. eigenvalues --   -0.40908  -0.40802  -0.40652  -0.40565  -0.40532
 Alpha  occ. eigenvalues --   -0.40243  -0.40216  -0.40125  -0.39485  -0.39113
 Alpha  occ. eigenvalues --   -0.38547  -0.38088  -0.37785  -0.37532  -0.37417
 Alpha  occ. eigenvalues --   -0.37323  -0.37028  -0.36983  -0.36811  -0.36665
 Alpha  occ. eigenvalues --   -0.36287  -0.35982  -0.34408  -0.34023  -0.33896
 Alpha  occ. eigenvalues --   -0.33758  -0.33316  -0.32925  -0.31597  -0.31162
 Alpha  occ. eigenvalues --   -0.31080  -0.30747  -0.30173  -0.29803  -0.29619
 Alpha  occ. eigenvalues --   -0.29470  -0.29094  -0.28968  -0.24204  -0.23789
 Alpha  occ. eigenvalues --   -0.21257  -0.20869
 Alpha virt. eigenvalues --   -0.08922  -0.08550  -0.01887  -0.01435  -0.00241
 Alpha virt. eigenvalues --    0.00168   0.02049   0.02342   0.02560   0.03583
 Alpha virt. eigenvalues --    0.04645   0.04905   0.04984   0.05254   0.06161

 Mulliken charges:
               1
     1  Mg   0.838945
     2  C   -0.002723
     3  C   -0.093834
     4  C   -0.046290
     5  C   -0.063904
     6  N   -0.256944
     7  C   -0.051672
     8  C   -0.014249
     9  C   -0.087015
    10  C    0.046479
    11  C    0.104759
    12  C    0.053485
    13  C   -0.073223
    14  H    0.039895
    15  N   -0.433074
    16  C    0.168045
    17  C   -0.177399
    18  C   -0.005137
    19  C    0.148468
    20  C    0.110009
    21  C    0.010458
    22  O   -0.250535
    23  C    0.062194
    24  N   -0.341375
    25  C    0.041740
    26  C   -0.027922
    27  C   -0.024080
    28  C    0.075625
    29  C    0.076199
    30  C    0.034923
    31  C   -0.005204
    32  N   -0.310619
    33  C    0.080874
    34  C   -0.170387
    35  C    0.008026
    36  C    0.083297
    37  C    0.127440
    38  C    0.045590
    39  O   -0.188467
    40  C   -0.005176
    41  C    0.213121
    42  O   -0.258303
    43  O   -0.304457
    44  C    0.157793
    45  H   -0.017308
    46  H   -0.017573
    47  H   -0.041041
    48  H    0.001128
    49  H   -0.003285
    50  H    0.025480
    51  H    0.016139
    52  H    0.017112
    53  H    0.011649
    54  H    0.043718
    55  H    0.017251
    56  H    0.018975
    57  H    0.006840
    58  H    0.026943
    59  H    0.037894
    60  H    0.038653
    61  H    0.034371
    62  H    0.029278
    63  H    0.015676
    64  H    0.009608
    65  H    0.022808
    66  H    0.012506
    67  H    0.005129
    68  H    0.006197
    69  H    0.005200
    70  H    0.006667
    71  H    0.023481
    72  H    0.028687
    73  H    0.046702
    74  H    0.009695
    75  H    0.046527
    76  H    0.035644
    77  H    0.043171
    78  H    0.047882
    79  H    0.052549
    80  Mg   0.837271
    81  C   -0.017375
    82  C   -0.088308
    83  C   -0.045656
    84  C   -0.058243
    85  N   -0.254558
    86  C   -0.050269
    87  C   -0.014838
    88  C   -0.091363
    89  C    0.044787
    90  C    0.113814
    91  C    0.062777
    92  C   -0.077382
    93  H    0.034459
    94  N   -0.423438
    95  C    0.162152
    96  C   -0.174363
    97  C   -0.008398
    98  C    0.152169
    99  C    0.099391
   100  C    0.014897
   101  O   -0.254144
   102  C    0.061359
   103  N   -0.350001
   104  C    0.037888
   105  C   -0.020364
   106  C   -0.036073
   107  C    0.088647
   108  C    0.072567
   109  C    0.034472
   110  C   -0.007487
   111  N   -0.324555
   112  C    0.077844
   113  C   -0.160180
   114  C    0.001204
   115  C    0.096803
   116  C    0.131784
   117  C    0.042063
   118  O   -0.189756
   119  C    0.000972
   120  C    0.211086
   121  O   -0.250842
   122  O   -0.306323
   123  C    0.152148
   124  H   -0.018213
   125  H   -0.016396
   126  H   -0.037414
   127  H   -0.002884
   128  H   -0.004715
   129  H    0.021151
   130  H    0.018898
   131  H    0.012558
   132  H    0.014413
   133  H    0.037708
   134  H    0.019005
   135  H    0.019645
   136  H    0.009493
   137  H    0.026403
   138  H    0.038849
   139  H    0.038070
   140  H    0.035543
   141  H    0.033850
   142  H    0.013419
   143  H    0.019190
   144  H    0.022926
   145  H    0.010700
   146  H    0.010533
   147  H    0.006095
   148  H    0.004757
   149  H    0.010197
   150  H    0.017228
   151  H    0.029500
   152  H    0.043693
   153  H    0.009498
   154  H    0.051219
   155  H    0.032893
   156  H    0.042968
   157  H    0.049116
   158  H    0.053737
 Sum of Mulliken charges =  -0.00000

 Dipole moment (field-independent basis, Debye):
    X=             -2.6405    Y=              1.6877    Z=              6.3194  Tot=              7.0538
 Quadrupole moment (field-independent basis, Debye-Ang):
   XX=           -519.8093   YY=           -511.7717   ZZ=           -487.9754
   XY=             20.6138   XZ=              0.8909   YZ=            -13.5551

 Normal termination of Gaussian 16 at Thu Sep  9 02:09:29 2021.
