 Gaussian 16, Revision A.03,
 Gaussian 16:  ES64L-G16RevA.03 25-Dec-2016

 -----------------------------------
 #p cam-b3lyp/Def2SVP td=(nstates=5)
 -----------------------------------

 --------------------------------
 TDDFT excited states in gaussian
 --------------------------------
 Symbolic Z-matrix:
 Charge =  0 Multiplicity = 1

                         Standard orientation:
 ---------------------------------------------------------------------
 Center     Atomic      Atomic             Coordinates (Angstroms)
 Number     Number       Type             X           Y           Z
 ---------------------------------------------------------------------
      1         12           0      -15.747141   -0.713908   -0.240492
      2          6           0      -16.001927    2.072563    1.991744
      3          6           0      -16.586687    1.422401   -2.765252
      4          6           0      -15.973206   -3.234403   -2.151674
      5          6           0      -16.049133   -2.784978    2.546106
      6          7           0      -16.209600    1.450910   -0.258972
      7          6           0      -16.213891    2.416421    0.654779
      8          6           0      -16.390032    3.840547    0.047973
      9          6           0      -17.116906    3.445325   -1.314910
     10          6           0      -16.579216    2.034424   -1.476685
     11          6           0      -18.636427    3.381568   -1.198755
     12          6           0      -15.018349    4.547166   -0.218311
     13          6           0      -15.101494    6.050108   -0.500454
     14          1           0      -14.038232    6.914425   -0.010783
     15          7           0      -15.731177   -0.832031   -2.212456
     16          6           0      -16.089243    0.140519   -3.084936
     17          6           0      -15.902904   -0.434018   -4.434701
     18          6           0      -15.588914   -1.880967   -4.273947
     19          6           0      -15.780140   -2.048285   -2.855915
     20          6           0      -15.978466    0.377006   -5.691793
     21          6           0      -15.191413   -2.946518   -5.245917
     22          8           0      -15.192126   -4.186362   -4.933891
     23          6           0      -14.882193   -2.502648   -6.617195
     24          7           0      -16.197747   -2.722586    0.105629
     25          6           0      -16.170611   -3.617086   -0.888412
     26          6           0      -16.245397   -5.019951   -0.362755
     27          6           0      -16.084177   -4.907439    1.221891
     28          6           0      -16.023178   -3.364828    1.343954
     29          6           0      -17.531797   -5.790115   -0.691441
     30          6           0      -14.955637   -5.744204    1.875069
     31          6           0      -13.607200   -5.213432    1.442524
     32          7           0      -15.806747   -0.444534    1.912397
     33          6           0      -15.960367   -1.444724    2.883321
     34          6           0      -16.050965   -0.767918    4.190147
     35          6           0      -15.959801    0.588714    3.885053
     36          6           0      -15.847431    0.750461    2.474556
     37          6           0      -16.255993   -1.404605    5.445944
     38          6           0      -15.955949    1.940456    4.420437
     39          8           0      -15.928981    2.424556    5.552874
     40          6           0      -16.105636    2.960503    3.206796
     41          6           0      -15.066332    4.033664    3.384225
     42          8           0      -13.850717    3.769758    3.284230
     43          8           0      -15.665935    5.233884    3.406392
     44          6           0      -14.687847    6.345075    3.550456
     45          1           0      -17.068979    1.943761   -3.594420
     46          1           0      -15.946173   -4.137746   -2.764602
     47          1           0      -16.059320   -3.370319    3.467368
     48          1           0      -17.026944    4.506957    0.629923
     49          1           0      -16.792757    4.071943   -2.145572
     50          1           0      -18.961926    3.492364   -0.164494
     51          1           0      -18.916813    2.400671   -1.583098
     52          1           0      -19.106422    4.108625   -1.861528
     53          1           0      -14.614907    4.201754   -1.170144
     54          1           0      -14.327910    4.373064    0.607709
     55          1           0      -16.077332    6.453342   -0.228330
     56          1           0      -15.037744    6.199303   -1.578358
     57          1           0      -16.387068    1.369199   -5.504325
     58          1           0      -16.714782   -0.102639   -6.336377
     59          1           0      -15.018278    0.428416   -6.205336
     60          1           0      -15.753437   -2.000140   -7.037871
     61          1           0      -14.531872   -3.387285   -7.147801
     62          1           0      -14.088066   -1.756571   -6.576191
     63          1           0      -15.436473   -5.630659   -0.761633
     64          1           0      -16.986157   -5.220892    1.748060
     65          1           0      -17.357909   -6.727439   -1.220489
     66          1           0      -18.181490   -5.131095   -1.266664
     67          1           0      -18.160777   -6.017635    0.168812
     68          1           0      -15.013017   -6.781004    1.545372
     69          1           0      -14.992313   -5.740112    2.964513
     70          1           0      -13.450981   -5.700554    0.480682
     71          1           0      -12.836736   -5.504514    2.157275
     72          1           0      -13.641661   -4.138892    1.261797
     73          1           0      -15.572047   -0.925253    6.146237
     74          1           0      -16.070054   -2.476462    5.381510
     75          1           0      -17.306502   -1.172803    5.620741
     76          1           0      -17.118390    3.359336    3.255620
     77          1           0      -14.986283    6.924075    4.424486
     78          1           0      -14.658454    6.858581    2.589283
     79          1           0      -13.672572    6.060505    3.828977
     80         12           0       15.993536   -0.566719    0.334105
     81          6           0       14.932252    1.814728   -2.131957
     82          6           0       17.899637    1.914165    1.693010
     83          6           0       17.290854   -2.744667    2.242228
     84          6           0       14.939390   -3.078733   -1.839421
     85          7           0       16.293034    1.549467   -0.235389
     86          6           0       15.789640    2.360270   -1.153841
     87          6           0       16.166288    3.854711   -0.968542
     88          6           0       17.517245    3.659120   -0.122661
     89          6           0       17.211262    2.306527    0.517296
     90          6           0       18.754713    3.507409   -0.991563
     91          6           0       15.086155    4.646407   -0.150903
     92          6           0       15.233961    6.168872   -0.195682
     93          1           0       14.023627    6.985903   -0.198578
     94          7           0       16.995059   -0.351881    2.033925
     95          6           0       17.694146    0.730471    2.435274
     96          6           0       18.261210    0.379594    3.746559
     97          6           0       17.976397   -1.056846    4.011616
     98          6           0       17.415593   -1.454161    2.735798
     99          6           0       18.920897    1.386384    4.643563
    100          6           0       18.187178   -1.931647    5.210157
    101          8           0       18.085244   -3.207332    5.138969
    102          6           0       18.607858   -1.258203    6.447494
    103          7           0       16.296954   -2.613887    0.135714
    104          6           0       16.835260   -3.333135    1.136132
    105          6           0       16.702151   -4.814645    0.875773
    106          6           0       15.743176   -4.942608   -0.397647
    107          6           0       15.551345   -3.444703   -0.721504
    108          6           0       18.007651   -5.562711    0.606615
    109          6           0       14.479871   -5.832594   -0.240703
    110          6           0       13.518286   -5.196031    0.736811
    111          7           0       14.931610   -0.652598   -1.545523
    112          6           0       14.617938   -1.806903   -2.296040
    113          6           0       13.993103   -1.351301   -3.554778
    114          6           0       14.007637    0.048360   -3.458601
    115          6           0       14.618040    0.438057   -2.235883
    116          6           0       13.548914   -2.191254   -4.614630
    117          6           0       13.655024    1.285015   -4.118181
    118          8           0       13.035745    1.578668   -5.139946
    119          6           0       14.352269    2.486437   -3.345640
    120          6           0       13.320647    3.559039   -3.126983
    121          8           0       12.341569    3.353131   -2.388330
    122          8           0       13.770112    4.715413   -3.647700
    123          6           0       12.786268    5.812291   -3.445892
    124          1           0       18.703599    2.552284    2.060891
    125          1           0       17.623420   -3.540219    2.913026
    126          1           0       14.494697   -3.802828   -2.525436
    127          1           0       16.377179    4.387403   -1.888072
    128          1           0       17.620622    4.426950    0.639643
    129          1           0       18.504870    3.437663   -2.039821
    130          1           0       19.239601    2.599664   -0.656983
    131          1           0       19.459905    4.318371   -0.788122
    132          1           0       15.250044    4.473161    0.920486
    133          1           0       14.096646    4.370197   -0.459476
    134          1           0       15.918585    6.493381   -0.988736
    135          1           0       15.717740    6.497845    0.727219
    136          1           0       19.131153    2.322405    4.111522
    137          1           0       19.910079    0.989640    4.896498
    138          1           0       18.362525    1.558215    5.566251
    139          1           0       19.540648   -0.727942    6.270852
    140          1           0       18.620169   -2.035762    7.213736
    141          1           0       17.859263   -0.500798    6.705463
    142          1           0       16.238073   -5.314944    1.716862
    143          1           0       16.265548   -5.385789   -1.258205
    144          1           0       18.179800   -6.404783    1.303283
    145          1           0       18.823741   -4.854224    0.657434
    146          1           0       18.111452   -5.962821   -0.400527
    147          1           0       14.751034   -6.804464    0.178946
    148          1           0       13.963596   -6.018635   -1.176567
    149          1           0       13.907839   -5.513792    1.708586
    150          1           0       12.507771   -5.566400    0.576392
    151          1           0       13.583237   -4.102471    0.697224
    152          1           0       12.587874   -1.809416   -4.932611
    153          1           0       13.479647   -3.229486   -4.296741
    154          1           0       14.354563   -2.036081   -5.337209
    155          1           0       15.181263    2.835413   -3.962535
    156          1           0       12.568384    6.231653   -4.432984
    157          1           0       13.243109    6.489957   -2.700365
    158          1           0       11.793358    5.539136   -3.108292
 ---------------------------------------------------------------------

 SCF Done:  E(RCAM-B3LYP) =  -4069.81176855     A.U. after   19 cycles

 Excitation energies and oscillator strengths:

 Excited State   1:      Singlet-A      1.6754 eV  740.02 nm  f=0.2610  <S**2>=0.000
     309 -> 316        0.17001
     311 -> 313        0.67198
     312 -> 314        0.13825
     309 <- 316        0.10249
 This state for optimization and/or second-order correction.
 Total Energy, E(TD-HF/TD-DFT) =  -4069.75019832
 Copying the excited state density for this state as the 1-particle RhoCI density.

 Excited State   2:      Singlet-A      1.6801 eV  737.96 nm  f=0.5177  <S**2>=0.000
     310 -> 315        0.17201
     311 -> 313       -0.13821
     312 -> 314        0.67162
     310 <- 315        0.10299

 Excited State   3:      Singlet-A      2.1861 eV  567.15 nm  f=0.0953  <S**2>=0.000
     309 -> 313        0.64211
     311 -> 316       -0.27296

 Excited State   4:      Singlet-A      2.1926 eV  565.47 nm  f=0.1048  <S**2>=0.000
     310 -> 314        0.64033
     312 -> 315       -0.27816

 Excited State   5:      Singlet-A      3.0523 eV  406.20 nm  f=0.0000  <S**2>=0.000
     312 -> 313        0.70710

 The electronic state is 1-A.
 Alpha  occ. eigenvalues --  -46.87735 -46.87662 -19.26351 -19.26225 -19.19162
 Alpha  occ. eigenvalues --  -19.18959 -19.18751 -19.18713 -19.18110 -19.18054
 Alpha  occ. eigenvalues --  -14.42499 -14.42389 -14.41389 -14.41361 -14.39353
 Alpha  occ. eigenvalues --  -14.39341 -14.38601 -14.38526 -10.39092 -10.39019
 Alpha  occ. eigenvalues --  -10.35390 -10.35385 -10.34330 -10.34231 -10.31758
 Alpha  occ. eigenvalues --  -10.31620 -10.31345 -10.31311 -10.31024 -10.30847
 Alpha  occ. eigenvalues --  -10.30509 -10.30447 -10.30399 -10.30362 -10.30146
 Alpha  occ. eigenvalues --  -10.30142 -10.29896 -10.29861 -10.29569 -10.29438
 Alpha  occ. eigenvalues --  -10.29402 -10.29193 -10.28721 -10.28688 -10.28653
 Alpha  occ. eigenvalues --  -10.28475 -10.28406 -10.28304 -10.28143 -10.28057
 Alpha  occ. eigenvalues --  -10.28003 -10.27732 -10.27671 -10.27666 -10.27523
 Alpha  occ. eigenvalues --  -10.27519 -10.27485 -10.27468 -10.27464 -10.27442
 Alpha  occ. eigenvalues --  -10.27418 -10.27390 -10.27377 -10.27343 -10.27099
 Alpha  occ. eigenvalues --  -10.27053 -10.26692 -10.26641 -10.26412 -10.26344
 Alpha  occ. eigenvalues --  -10.26178 -10.26137 -10.26123 -10.26030 -10.25959
 Alpha  occ. eigenvalues --  -10.25936 -10.25855 -10.25787 -10.25401 -10.25379
 Alpha  occ. eigenvalues --  -10.24875 -10.24772 -10.24727 -10.24727 -10.24691
 Alpha  occ. eigenvalues --  -10.24623  -3.16478  -3.16412  -1.91359  -1.91294
 Alpha  occ. eigenvalues --   -1.90946  -1.90882  -1.90788  -1.90719  -1.16645
 Alpha  occ. eigenvalues --   -1.16573  -1.08661  -1.08568  -1.07152  -1.06965
 Alpha  occ. eigenvalues --   -1.06947  -1.06582  -1.04520  -1.04497  -1.03700
 Alpha  occ. eigenvalues --   -1.03664  -1.03173  -1.03040  -1.02350  -1.02113
 Alpha  occ. eigenvalues --   -0.91989  -0.91912  -0.89495  -0.89459  -0.89153
 Alpha  occ. eigenvalues --   -0.89127  -0.88227  -0.88221  -0.87811  -0.87796
 Alpha  occ. eigenvalues --   -0.87685  -0.87612  -0.87211  -0.87120  -0.85001
 Alpha  occ. eigenvalues --   -0.84921  -0.83877  -0.83876  -0.82931  -0.82904
 Alpha  occ. eigenvalues --   -0.82653  -0.82587  -0.81598  -0.81526  -0.80535
 Alpha  occ. eigenvalues --   -0.80444  -0.78736  -0.78636  -0.77158  -0.77146
 Alpha  occ. eigenvalues --   -0.76900  -0.76874  -0.75863  -0.75841  -0.74839
 Alpha  occ. eigenvalues --   -0.74805  -0.72714  -0.72701  -0.71612  -0.71583
 Alpha  occ. eigenvalues --   -0.69846  -0.69758  -0.68828  -0.68812  -0.67603
 Alpha  occ. eigenvalues --   -0.67580  -0.67200  -0.67157  -0.65273  -0.65225
 Alpha  occ. eigenvalues --   -0.64793  -0.64772  -0.64655  -0.64560  -0.64209
 Alpha  occ. eigenvalues --   -0.64205  -0.62280  -0.62238  -0.60380  -0.60340
 Alpha  occ. eigenvalues --   -0.59798  -0.59744  -0.58994  -0.58927  -0.58443
 Alpha  occ. eigenvalues --   -0.58427  -0.57557  -0.57524  -0.57248  -0.57238
 Alpha  occ. eigenvalues --   -0.56249  -0.56206  -0.55918  -0.55888  -0.55459
 Alpha  occ. eigenvalues --   -0.55453  -0.55280  -0.55249  -0.54489  -0.54463
 Alpha  occ. eigenvalues --   -0.53914  -0.53834  -0.53238  -0.53229  -0.53160
 Alpha  occ. eigenvalues --   -0.53143  -0.52903  -0.52854  -0.52693  -0.52668
 Alpha  occ. eigenvalues --   -0.52400  -0.52377  -0.51888  -0.51856  -0.51659
 Alpha  occ. eigenvalues --   -0.51555  -0.51203  -0.51136  -0.50508  -0.50474
 Alpha  occ. eigenvalues --   -0.49981  -0.49971  -0.49868  -0.49856  -0.49488
 Alpha  occ. eigenvalues --   -0.49453  -0.49204  -0.49154  -0.49107  -0.49036
 Alpha  occ. eigenvalues --   -0.48560  -0.48533  -0.48401  -0.48384  -0.48378
 Alpha  occ. eigenvalues --   -0.48339  -0.47634  -0.47596  -0.47236  -0.47119
 Alpha  occ. eigenvalues --   -0.46737  -0.46710  -0.46555  -0.46494  -0.46298
 Alpha  occ. eigenvalues --   -0.46272  -0.46103  -0.46088  -0.45825  -0.45763
 Alpha  occ. eigenvalues --   -0.45210  -0.45142  -0.44518  -0.44516  -0.44477
 Alpha  occ. eigenvalues --   -0.44445  -0.44129  -0.44083  -0.44078  -0.44028
 Alpha  occ. eigenvalues --   -0.43958  -0.43940  -0.43555  -0.43435  -0.43387
 Alpha  occ. eigenvalues --   -0.43325  -0.42967  -0.42932  -0.42903  -0.42639
 Alpha  occ. eigenvalues --   -0.42594  -0.42554  -0.41965  -0.41949  -0.41671
 Alpha  occ. eigenvalues --   -0.41644  -0.41472  -0.41460  -0.41081  -0.40992
 Alpha  occ. eigenvalues --   -0.40808  -0.40760  -0.40722  -0.40699  -0.40511
 Alpha  occ. eigenvalues --   -0.40494  -0.40227  -0.40171  -0.39425  -0.39380
 Alpha  occ. eigenvalues --   -0.38409  -0.38352  -0.37686  -0.37654  -0.37267
 Alpha  occ. eigenvalues --   -0.37260  -0.37202  -0.37201  -0.36773  -0.36653
 Alpha  occ. eigenvalues --   -0.36218  -0.36132  -0.34255  -0.34225  -0.33863
 Alpha  occ. eigenvalues --   -0.33709  -0.33177  -0.33125  -0.31281  -0.31272
 Alpha  occ. eigenvalues --   -0.30975  -0.30974  -0.29970  -0.29958  -0.29387
 Alpha  occ. eigenvalues --   -0.29328  -0.29261  -0.29213  -0.24038  -0.24020
 Alpha  occ. eigenvalues --   -0.21118  -0.21067
 Alpha virt. eigenvalues --   -0.08793  -0.08713  -0.01689  -0.01685  -0.00029
 Alpha virt. eigenvalues --    0.00004   0.02205   0.02260   0.03187   0.03230
 Alpha virt. eigenvalues --    0.04728   0.04779   0.05159   0.05164   0.06182

 Mulliken charges:
               1
     1  Mg   0.838784
     2  C   -0.002940
     3  C   -0.094099
     4  C   -0.045851
     5  C   -0.063957
     6  N   -0.256776
     7  C   -0.052458
     8  C   -0.014058
     9  C   -0.087003
    10  C    0.046342
    11  C    0.104832
    12  C    0.053465
    13  C   -0.071826
    14  H    0.036198
    15  N   -0.433135
    16  C    0.168454
    17  C   -0.177141
    18  C   -0.003971
    19  C    0.148729
    20  C    0.110186
    21  C    0.012325
    22  O   -0.249620
    23  C    0.062451
    24  N   -0.341136
    25  C    0.041244
    26  C   -0.028174
    27  C   -0.023965
    28  C    0.074833
    29  C    0.076200
    30  C    0.035134
    31  C   -0.004510
    32  N   -0.310451
    33  C    0.080406
    34  C   -0.169730
    35  C    0.008340
    36  C    0.083014
    37  C    0.127312
    38  C    0.046105
    39  O   -0.188515
    40  C   -0.005326
    41  C    0.212856
    42  O   -0.257021
    43  O   -0.304833
    44  C    0.157690
    45  H   -0.017625
    46  H   -0.016844
    47  H   -0.041538
    48  H    0.000885
    49  H   -0.004004
    50  H    0.025428
    51  H    0.016420
    52  H    0.016619
    53  H    0.011285
    54  H    0.044170
    55  H    0.017791
    56  H    0.017980
    57  H    0.005866
    58  H    0.026784
    59  H    0.039667
    60  H    0.037298
    61  H    0.035690
    62  H    0.031619
    63  H    0.016593
    64  H    0.009388
    65  H    0.023192
    66  H    0.012513
    67  H    0.004688
    68  H    0.006326
    69  H    0.004687
    70  H    0.008817
    71  H    0.018183
    72  H    0.029035
    73  H    0.047558
    74  H    0.009093
    75  H    0.045927
    76  H    0.035082
    77  H    0.042870
    78  H    0.046415
    79  H    0.053741
    80  Mg   0.837915
    81  C   -0.016856
    82  C   -0.087805
    83  C   -0.045492
    84  C   -0.064887
    85  N   -0.254568
    86  C   -0.049843
    87  C   -0.015095
    88  C   -0.090502
    89  C    0.045784
    90  C    0.114377
    91  C    0.062512
    92  C   -0.077915
    93  H    0.034959
    94  N   -0.423505
    95  C    0.162963
    96  C   -0.174620
    97  C   -0.007781
    98  C    0.152136
    99  C    0.099368
   100  C    0.015605
   101  O   -0.253156
   102  C    0.061178
   103  N   -0.350084
   104  C    0.037526
   105  C   -0.019847
   106  C   -0.034799
   107  C    0.088933
   108  C    0.073664
   109  C    0.034712
   110  C   -0.007685
   111  N   -0.324101
   112  C    0.078454
   113  C   -0.163126
   114  C    0.002232
   115  C    0.096219
   116  C    0.131477
   117  C    0.042376
   118  O   -0.187919
   119  C    0.000933
   120  C    0.211248
   121  O   -0.250944
   122  O   -0.305659
   123  C    0.152017
   124  H   -0.019654
   125  H   -0.015551
   126  H   -0.040459
   127  H   -0.000679
   128  H   -0.004298
   129  H    0.022426
   130  H    0.014414
   131  H    0.016281
   132  H    0.013965
   133  H    0.037715
   134  H    0.020740
   135  H    0.019615
   136  H    0.008766
   137  H    0.026145
   138  H    0.039867
   139  H    0.038241
   140  H    0.036446
   141  H    0.033954
   142  H    0.014447
   143  H    0.012383
   144  H    0.025162
   145  H    0.011610
   146  H    0.005646
   147  H    0.006276
   148  H    0.003647
   149  H    0.010963
   150  H    0.018006
   151  H    0.030109
   152  H    0.046023
   153  H    0.008530
   154  H    0.046884
   155  H    0.034977
   156  H    0.043863
   157  H    0.049509
   158  H    0.053630
 Sum of Mulliken charges =  -0.00000

 Dipole moment (field-independent basis, Debye):
    X=              1.5756    Y=              2.9992    Z=             -1.9498  Tot=              3.9088
 Quadrupole moment (field-independent basis, Debye-Ang):
   XX=           -348.8473   YY=           -461.3725   ZZ=           -534.9589
   XY=             23.6725   XZ=             86.9448   YZ=            -11.1369

 Normal termination of Gaussian 16 at Sun Sep 12 13:54:16 2021.
