 Gaussian 16, Revision A.03,
 Gaussian 16:  ES64L-G16RevA.03 25-Dec-2016

 -----------------------------------
 #p cam-b3lyp/Def2SVP td=(nstates=5)
 -----------------------------------

 --------------------------------
 TDDFT excited states in gaussian
 --------------------------------
 Symbolic Z-matrix:
 Charge =  0 Multiplicity = 1

                         Standard orientation:
 ---------------------------------------------------------------------
 Center     Atomic      Atomic             Coordinates (Angstroms)
 Number     Number       Type             X           Y           Z
 ---------------------------------------------------------------------
      1         12           0       -7.834813    0.611848    0.523413
      2          6           0       -8.247204   -1.917474   -1.975521
      3          6           0       -8.550107   -1.779745    2.849719
      4          6           0       -7.923754    2.913325    2.703302
      5          6           0       -8.274871    2.971669   -2.003098
      6          7           0       -8.318315   -1.540394    0.337066
      7          6           0       -8.385440   -2.402092   -0.672954
      8          6           0       -8.541395   -3.882403   -0.212811
      9          6           0       -9.184347   -3.632780    1.224652
     10          6           0       -8.623336   -2.249779    1.504826
     11          6           0      -10.707276   -3.550323    1.204922
     12          6           0       -7.164204   -4.619486   -0.104244
     13          6           0       -7.246856   -6.143670    0.019792
     14          1           0       -6.222764   -6.954962   -0.620823
     15          7           0       -7.704054    0.517306    2.492376
     16          6           0       -8.021543   -0.541809    3.275166
     17          6           0       -7.751708   -0.116461    4.665471
     18          6           0       -7.432208    1.338009    4.642445
     19          6           0       -7.703007    1.657570    3.264066
     20          6           0       -7.763318   -1.057543    5.830795
     21          6           0       -6.968137    2.291207    5.697994
     22          8           0       -6.973704    3.557393    5.521036
     23          6           0       -6.585165    1.701210    6.993478
     24          7           0       -8.283332    2.648024    0.421173
     25          6           0       -8.189529    3.430396    1.501950
     26          6           0       -8.279622    4.881937    1.134728
     27          6           0       -8.211135    4.939668   -0.459553
     28          6           0       -8.173589    3.418857   -0.749370
     29          6           0       -9.536736    5.617890    1.618513
     30          6           0       -7.113299    5.836879   -1.084204
     31          6           0       -5.747878    5.256857   -0.790439
     32          7           0       -8.021161    0.575650   -1.638764
     33          6           0       -8.219857    1.675042   -2.486426
     34          6           0       -8.392725    1.142989   -3.850648
     35          6           0       -8.298497   -0.238956   -3.698352
     36          6           0       -8.106794   -0.551827   -2.322251
     37          6           0       -8.662993    1.911822   -5.016961
     38          6           0       -8.339786   -1.525341   -4.374641
     39          8           0       -8.383208   -1.885055   -5.552017
     40          6           0       -8.430108   -2.669243   -3.270486
     41          6           0       -7.414159   -3.721618   -3.622142
     42          8           0       -6.192079   -3.475258   -3.565637
     43          8           0       -8.026706   -4.909895   -3.737586
     44          6           0       -7.070349   -6.003400   -4.056621
     45          1           0       -8.989330   -2.385094    3.645066
     46          1           0       -7.851911    3.745444    3.406761
     47          1           0       -8.331908    3.652660   -2.854244
     48          1           0       -9.217781   -4.479648   -0.824550
     49          1           0       -8.819541   -4.346434    1.963121
     50          1           0      -11.092956   -3.547922    0.185527
     51          1           0      -10.954668   -2.615203    1.707755
     52          1           0      -11.145983   -4.342349    1.812382
     53          1           0       -6.702980   -4.380112    0.853896
     54          1           0       -6.520682   -4.360621   -0.945788
     55          1           0       -8.240958   -6.511090   -0.236472
     56          1           0       -7.122713   -6.408109    1.069964
     57          1           0       -8.192511   -2.022063    5.562395
     58          1           0       -8.456171   -0.646756    6.564905
     59          1           0       -6.775744   -1.168004    6.278932
     60          1           0       -7.436002    1.160187    7.408111
     61          1           0       -6.195527    2.522177    7.594349
     62          1           0       -5.802655    0.960424    6.826554
     63          1           0       -7.442652    5.442732    1.548754
     64          1           0       -9.138556    5.311757   -0.895575
     65          1           0       -9.322761    6.492171    2.233779
     66          1           0      -10.159156    4.903694    2.156851
     67          1           0      -10.211776    5.939262    0.825760
     68          1           0       -7.140624    6.832484   -0.642649
     69          1           0       -7.212701    5.950044   -2.163816
     70          1           0       -5.531378    5.637115    0.207240
     71          1           0       -5.016824    5.619719   -1.513696
     72          1           0       -5.783239    4.169278   -0.724053
     73          1           0       -8.025625    1.507540   -5.803273
     74          1           0       -8.462323    2.969732   -4.849146
     75          1           0       -9.724219    1.704703   -5.153916
     76          1           0       -9.448155   -3.056125   -3.302490
     77          1           0       -7.424736   -6.483822   -4.968672
     78          1           0       -6.991080   -6.617344   -3.159295
     79          1           0       -6.069846   -5.694952   -4.361897
     80         12           0        8.001218    0.507185   -0.686611
     81          6           0        7.962833   -2.137791    1.738606
     82          6           0        7.332825    2.661250    1.872267
     83          6           0        7.582590    2.790347   -2.849796
     84          6           0        7.528082   -1.922821   -3.139548
     85          7           0        7.708492    0.183491    1.481748
     86          6           0        7.778127   -0.856613    2.298862
     87          6           0        7.722456   -0.494391    3.807263
     88          6           0        6.960913    0.914418    3.688309
     89          6           0        7.383970    1.302220    2.272931
     90          6           0        5.447070    0.784413    3.715603
     91          6           0        9.150733   -0.324151    4.434201
     92          6           0        9.180191   -0.275621    5.963430
     93          1           0       10.314198   -0.879838    6.657265
     94          7           0        8.013694    2.481829   -0.488591
     95          6           0        7.740418    3.189441    0.627597
     96          6           0        7.865926    4.605004    0.247348
     97          6           0        8.074058    4.678703   -1.224375
     98          6           0        7.873013    3.290609   -1.588862
     99          6           0        7.864719    5.720569    1.251819
    100          6           0        8.387859    5.813212   -2.152065
    101          8           0        8.290154    5.689615   -3.424076
    102          6           0        8.722468    7.099918   -1.524448
    103          7           0        7.401374    0.470949   -2.676888
    104          6           0        7.353365    1.600236   -3.405134
    105          6           0        7.163960    1.295706   -4.872033
    106          6           0        7.337717   -0.288254   -5.007910
    107          6           0        7.516867   -0.651950   -3.517599
    108          6           0        5.820691    1.713227   -5.470092
    109          6           0        8.396514   -0.795425   -6.024969
    110          6           0        9.784461   -0.428697   -5.551157
    111          7           0        7.966107   -1.652147   -0.750524
    112          6           0        7.725837   -2.468349   -1.877535
    113          6           0        7.688431   -3.866666   -1.402388
    114          6           0        7.888213   -3.764368   -0.017431
    115          6           0        8.019286   -2.397297    0.347837
    116          6           0        7.442942   -5.013196   -2.209428
    117          6           0        8.007401   -4.501299    1.220075
    118          8           0        8.064361   -5.693354    1.519223
    119          6           0        7.934748   -3.472776    2.429731
    120          6           0        9.055713   -3.793465    3.380050
    121          8           0       10.240709   -3.649116    3.031386
    122          8           0        8.545824   -4.007716    4.606626
    123          6           0        9.620209   -4.318742    5.586821
    124          1           0        6.900640    3.388907    2.559739
    125          1           0        7.537982    3.530618   -3.651970
    126          1           0        7.483006   -2.745516   -3.856369
    127          1           0        7.145436   -1.178595    4.417738
    128          1           0        7.342306    1.631790    4.410315
    129          1           0        5.130859   -0.247856    3.691557
    130          1           0        5.090857    1.309730    2.839143
    131          1           0        5.038027    1.321731    4.576012
    132          1           0        9.523775    0.682826    4.207045
    133          1           0        9.814332   -1.090778    4.084150
    134          1           0        8.234899   -0.614055    6.404842
    135          1           0        9.263419    0.768135    6.275958
    136          1           0        7.528780    5.374368    2.237049
    137          1           0        7.094667    6.433253    0.937243
    138          1           0        8.824480    6.238733    1.306972
    139          1           0        7.895514    7.420796   -0.895454
    140          1           0        9.002630    7.761795   -2.346217
    141          1           0        9.582947    6.952871   -0.862210
    142          1           0        7.923139    1.785071   -5.469749
    143          1           0        6.408014   -0.773121   -5.340149
    144          1           0        5.921303    2.394812   -6.335776
    145          1           0        5.228277    2.173537   -4.690545
    146          1           0        5.182460    0.891541   -5.790548
    147          1           0        8.258734   -0.304586   -6.991540
    148          1           0        8.351512   -1.865504   -6.197860
    149          1           0        9.897053    0.604435   -5.893264
    150          1           0       10.528908   -1.078640   -6.006578
    151          1           0        9.837315   -0.420980   -4.456255
    152          1           0        8.154656   -5.768082   -1.902604
    153          1           0        7.539040   -4.782076   -3.268255
    154          1           0        6.408967   -5.231294   -1.929075
    155          1           0        6.956166   -3.586139    2.897801
    156          1           0        9.364465   -5.277921    6.047537
    157          1           0        9.679071   -3.438890    6.254768
    158          1           0       10.609238   -4.528555    5.196628
 ---------------------------------------------------------------------

 SCF Done:  E(RCAM-B3LYP) =  -4069.81182845     A.U. after   19 cycles

 Excitation energies and oscillator strengths:

 Excited State   1:      Singlet-A      1.6751 eV  740.17 nm  f=0.3758  <S**2>=0.000
     310 -> 316        0.17280
     312 -> 314        0.68301
     310 <- 316        0.10420
 This state for optimization and/or second-order correction.
 Total Energy, E(TD-HF/TD-DFT) =  -4069.75027041
 Copying the excited state density for this state as the 1-particle RhoCI density.

 Excited State   2:      Singlet-A      1.6795 eV  738.21 nm  f=0.3729  <S**2>=0.000
     309 -> 315        0.17452
     311 -> 313        0.68266
     309 <- 315        0.10452

 Excited State   3:      Singlet-A      2.1858 eV  567.21 nm  f=0.1019  <S**2>=0.000
     310 -> 314        0.64239
     312 -> 316       -0.27294

 Excited State   4:      Singlet-A      2.1922 eV  565.57 nm  f=0.0978  <S**2>=0.000
     309 -> 313        0.64061
     311 -> 315       -0.27792

 Excited State   5:      Singlet-A      2.7658 eV  448.28 nm  f=0.0000  <S**2>=0.000
     312 -> 313        0.70710

 The electronic state is 1-A.
 Alpha  occ. eigenvalues --  -46.87835 -46.87593 -19.26328 -19.26297 -19.19131
 Alpha  occ. eigenvalues --  -19.19038 -19.18873 -19.18651 -19.18201 -19.18001
 Alpha  occ. eigenvalues --  -14.42485 -14.42433 -14.41489 -14.41287 -14.39443
 Alpha  occ. eigenvalues --  -14.39285 -14.38624 -14.38534 -10.39098 -10.39059
 Alpha  occ. eigenvalues --  -10.35507 -10.35329 -10.34420 -10.34179 -10.31746
 Alpha  occ. eigenvalues --  -10.31683 -10.31436 -10.31248 -10.30964 -10.30943
 Alpha  occ. eigenvalues --  -10.30605 -10.30548 -10.30330 -10.30297 -10.30250
 Alpha  occ. eigenvalues --  -10.30064 -10.29961 -10.29819 -10.29671 -10.29367
 Alpha  occ. eigenvalues --  -10.29337 -10.29295 -10.28768 -10.28675 -10.28632
 Alpha  occ. eigenvalues --  -10.28533 -10.28402 -10.28342 -10.28137 -10.28091
 Alpha  occ. eigenvalues --  -10.27937 -10.27831 -10.27762 -10.27627 -10.27604
 Alpha  occ. eigenvalues --  -10.27548 -10.27523 -10.27498 -10.27438 -10.27423
 Alpha  occ. eigenvalues --  -10.27421 -10.27407 -10.27402 -10.27280 -10.27185
 Alpha  occ. eigenvalues --  -10.27005 -10.26714 -10.26658 -10.26479 -10.26358
 Alpha  occ. eigenvalues --  -10.26253 -10.26236 -10.26059 -10.26049 -10.25973
 Alpha  occ. eigenvalues --  -10.25877 -10.25860 -10.25782 -10.25482 -10.25275
 Alpha  occ. eigenvalues --  -10.24870 -10.24829 -10.24810 -10.24746 -10.24654
 Alpha  occ. eigenvalues --  -10.24619  -3.16578  -3.16343  -1.91460  -1.91225
 Alpha  occ. eigenvalues --   -1.91046  -1.90889  -1.90813  -1.90650  -1.16647
 Alpha  occ. eigenvalues --   -1.16620  -1.08657  -1.08611  -1.07275  -1.06916
 Alpha  occ. eigenvalues --   -1.06904  -1.06660  -1.04616  -1.04432  -1.03799
 Alpha  occ. eigenvalues --   -1.03596  -1.03273  -1.02968  -1.02450  -1.02043
 Alpha  occ. eigenvalues --   -0.92006  -0.91928  -0.89563  -0.89419  -0.89209
 Alpha  occ. eigenvalues --   -0.89101  -0.88331  -0.88138  -0.87906  -0.87729
 Alpha  occ. eigenvalues --   -0.87706  -0.87620  -0.87320  -0.87058  -0.85008
 Alpha  occ. eigenvalues --   -0.84946  -0.83981  -0.83795  -0.83020  -0.82866
 Alpha  occ. eigenvalues --   -0.82680  -0.82598  -0.81611  -0.81550  -0.80630
 Alpha  occ. eigenvalues --   -0.80389  -0.78838  -0.78572  -0.77254  -0.77085
 Alpha  occ. eigenvalues --   -0.76959  -0.76842  -0.75949  -0.75788  -0.74938
 Alpha  occ. eigenvalues --   -0.74722  -0.72811  -0.72632  -0.71706  -0.71513
 Alpha  occ. eigenvalues --   -0.69954  -0.69675  -0.68903  -0.68773  -0.67679
 Alpha  occ. eigenvalues --   -0.67540  -0.67246  -0.67151  -0.65312  -0.65221
 Alpha  occ. eigenvalues --   -0.64887  -0.64708  -0.64653  -0.64598  -0.64311
 Alpha  occ. eigenvalues --   -0.64128  -0.62323  -0.62232  -0.60487  -0.60272
 Alpha  occ. eigenvalues --   -0.59832  -0.59742  -0.59023  -0.58927  -0.58540
 Alpha  occ. eigenvalues --   -0.58363  -0.57613  -0.57508  -0.57348  -0.57168
 Alpha  occ. eigenvalues --   -0.56346  -0.56144  -0.55999  -0.55845  -0.55561
 Alpha  occ. eigenvalues --   -0.55399  -0.55377  -0.55179  -0.54556  -0.54425
 Alpha  occ. eigenvalues --   -0.53917  -0.53863  -0.53340  -0.53255  -0.53164
 Alpha  occ. eigenvalues --   -0.53088  -0.52947  -0.52850  -0.52796  -0.52612
 Alpha  occ. eigenvalues --   -0.52486  -0.52323  -0.51949  -0.51820  -0.51645
 Alpha  occ. eigenvalues --   -0.51609  -0.51229  -0.51143  -0.50624  -0.50413
 Alpha  occ. eigenvalues --   -0.50076  -0.49961  -0.49920  -0.49787  -0.49549
 Alpha  occ. eigenvalues --   -0.49431  -0.49249  -0.49148  -0.49121  -0.49051
 Alpha  occ. eigenvalues --   -0.48622  -0.48508  -0.48506  -0.48485  -0.48299
 Alpha  occ. eigenvalues --   -0.48278  -0.47730  -0.47535  -0.47335  -0.47051
 Alpha  occ. eigenvalues --   -0.46833  -0.46644  -0.46579  -0.46501  -0.46397
 Alpha  occ. eigenvalues --   -0.46204  -0.46198  -0.46016  -0.45849  -0.45769
 Alpha  occ. eigenvalues --   -0.45244  -0.45126  -0.44609  -0.44547  -0.44460
 Alpha  occ. eigenvalues --   -0.44420  -0.44186  -0.44115  -0.44072  -0.44054
 Alpha  occ. eigenvalues --   -0.44011  -0.43885  -0.43522  -0.43506  -0.43418
 Alpha  occ. eigenvalues --   -0.43326  -0.43062  -0.42889  -0.42841  -0.42732
 Alpha  occ. eigenvalues --   -0.42687  -0.42478  -0.42047  -0.41899  -0.41739
 Alpha  occ. eigenvalues --   -0.41610  -0.41559  -0.41403  -0.41174  -0.40925
 Alpha  occ. eigenvalues --   -0.40901  -0.40871  -0.40666  -0.40641  -0.40611
 Alpha  occ. eigenvalues --   -0.40417  -0.40251  -0.40184  -0.39490  -0.39343
 Alpha  occ. eigenvalues --   -0.38509  -0.38271  -0.37768  -0.37608  -0.37361
 Alpha  occ. eigenvalues --   -0.37289  -0.37194  -0.37143  -0.36738  -0.36731
 Alpha  occ. eigenvalues --   -0.36223  -0.36152  -0.34323  -0.34188  -0.33825
 Alpha  occ. eigenvalues --   -0.33793  -0.33223  -0.33109  -0.31402  -0.31210
 Alpha  occ. eigenvalues --   -0.31073  -0.30908  -0.30060  -0.29907  -0.29492
 Alpha  occ. eigenvalues --   -0.29360  -0.29263  -0.29148  -0.24118  -0.23969
 Alpha  occ. eigenvalues --   -0.21166  -0.21050
 Alpha virt. eigenvalues --   -0.08814  -0.08727  -0.01790  -0.01614  -0.00102
 Alpha virt. eigenvalues --    0.00032   0.02163   0.02268   0.03077   0.03289
 Alpha virt. eigenvalues --    0.04690   0.04790   0.05078   0.05199   0.06166

 Mulliken charges:
               1
     1  Mg   0.838700
     2  C   -0.002921
     3  C   -0.093988
     4  C   -0.046034
     5  C   -0.063998
     6  N   -0.256810
     7  C   -0.052360
     8  C   -0.014013
     9  C   -0.087006
    10  C    0.046300
    11  C    0.104788
    12  C    0.053420
    13  C   -0.072013
    14  H    0.036606
    15  N   -0.433128
    16  C    0.168330
    17  C   -0.177140
    18  C   -0.004175
    19  C    0.148678
    20  C    0.110135
    21  C    0.012058
    22  O   -0.249897
    23  C    0.062579
    24  N   -0.341153
    25  C    0.041250
    26  C   -0.028140
    27  C   -0.023967
    28  C    0.074820
    29  C    0.076173
    30  C    0.035151
    31  C   -0.004480
    32  N   -0.310512
    33  C    0.080455
    34  C   -0.169694
    35  C    0.008406
    36  C    0.082976
    37  C    0.127309
    38  C    0.046142
    39  O   -0.188295
    40  C   -0.005327
    41  C    0.212902
    42  O   -0.257127
    43  O   -0.304775
    44  C    0.157650
    45  H   -0.017488
    46  H   -0.017026
    47  H   -0.041462
    48  H    0.001041
    49  H   -0.003871
    50  H    0.025507
    51  H    0.016381
    52  H    0.016796
    53  H    0.011218
    54  H    0.044119
    55  H    0.017884
    56  H    0.018095
    57  H    0.006072
    58  H    0.026822
    59  H    0.039413
    60  H    0.037541
    61  H    0.035271
    62  H    0.031284
    63  H    0.016284
    64  H    0.009545
    65  H    0.023073
    66  H    0.012621
    67  H    0.004829
    68  H    0.006280
    69  H    0.004874
    70  H    0.008441
    71  H    0.018178
    72  H    0.029005
    73  H    0.047614
    74  H    0.009120
    75  H    0.046100
    76  H    0.035258
    77  H    0.043020
    78  H    0.046583
    79  H    0.053704
    80  Mg   0.838022
    81  C   -0.016918
    82  C   -0.087855
    83  C   -0.045382
    84  C   -0.064459
    85  N   -0.254578
    86  C   -0.049865
    87  C   -0.015081
    88  C   -0.090530
    89  C    0.045768
    90  C    0.114372
    91  C    0.062554
    92  C   -0.077759
    93  H    0.034641
    94  N   -0.423512
    95  C    0.162964
    96  C   -0.174596
    97  C   -0.007770
    98  C    0.152154
    99  C    0.099361
   100  C    0.015553
   101  O   -0.253095
   102  C    0.061217
   103  N   -0.350030
   104  C    0.037714
   105  C   -0.019993
   106  C   -0.034874
   107  C    0.088918
   108  C    0.073398
   109  C    0.034702
   110  C   -0.007659
   111  N   -0.324105
   112  C    0.078413
   113  C   -0.163002
   114  C    0.002155
   115  C    0.096258
   116  C    0.131479
   117  C    0.042328
   118  O   -0.188259
   119  C    0.000945
   120  C    0.211190
   121  O   -0.251028
   122  O   -0.305715
   123  C    0.152090
   124  H   -0.019677
   125  H   -0.015442
   126  H   -0.040226
   127  H   -0.000943
   128  H   -0.004469
   129  H    0.022299
   130  H    0.014844
   131  H    0.016099
   132  H    0.013953
   133  H    0.037623
   134  H    0.020575
   135  H    0.019578
   136  H    0.008713
   137  H    0.026214
   138  H    0.039648
   139  H    0.038259
   140  H    0.036323
   141  H    0.033784
   142  H    0.014270
   143  H    0.013092
   144  H    0.025122
   145  H    0.011921
   146  H    0.006563
   147  H    0.006440
   148  H    0.003701
   149  H    0.010883
   150  H    0.017781
   151  H    0.029930
   152  H    0.045743
   153  H    0.008661
   154  H    0.047192
   155  H    0.034802
   156  H    0.043630
   157  H    0.049426
   158  H    0.053559
 Sum of Mulliken charges =  -0.00000

 Dipole moment (field-independent basis, Debye):
    X=             -3.5931    Y=              1.9120    Z=              5.8193  Tot=              7.1014
 Quadrupole moment (field-independent basis, Debye-Ang):
   XX=           -519.0407   YY=           -502.0084   ZZ=           -496.7925
   XY=             46.1668   XZ=            -14.0800   YZ=             -2.6613

 Normal termination of Gaussian 16 at Sat Sep  4 14:24:22 2021.
