 Gaussian 16, Revision A.03,
 Gaussian 16:  ES64L-G16RevA.03 25-Dec-2016

 -----------------------------------
 #p cam-b3lyp/Def2SVP td=(nstates=5)
 -----------------------------------

 --------------------------------
 TDDFT excited states in gaussian
 --------------------------------
 Symbolic Z-matrix:
 Charge =  0 Multiplicity = 1

                         Standard orientation:
 ---------------------------------------------------------------------
 Center     Atomic      Atomic             Coordinates (Angstroms)
 Number     Number       Type             X           Y           Z
 ---------------------------------------------------------------------
      1         12           0        6.313143   -0.966197    0.190341
      2          6           0        6.707886    2.071760   -1.660932
      3          6           0        7.200240    0.791517    2.977197
      4          6           0        6.413726   -3.718804    1.761854
      5          6           0        6.572811   -2.671899   -2.837664
      6          7           0        6.859615    1.157666    0.492372
      7          6           0        6.914434    2.231782   -0.288934
      8          6           0        7.137643    3.557625    0.498272
      9          6           0        7.829388    2.961093    1.805038
     10          6           0        7.234718    1.564102    1.778465
     11          6           0        9.346728    2.851197    1.695013
     12          6           0        5.791060    4.279177    0.841502
     13          6           0        5.928974    5.728678    1.316139
     14          1           0        4.907276    6.691270    0.932865
     15          7           0        6.265018   -1.336412    2.130308
     16          6           0        6.648621   -0.499594    3.124225
     17          6           0        6.421111   -1.235046    4.386774
     18          6           0        6.053045   -2.635322    4.037702
     19          6           0        6.257378   -2.626348    2.611678
     20          6           0        6.510762   -0.596316    5.738711
     21          6           0        5.600630   -3.800097    4.860350
     22          8           0        5.557210   -4.988464    4.390805
     23          6           0        5.289875   -3.524241    6.274697
     24          7           0        6.689635   -2.930235   -0.408359
     25          6           0        6.613647   -3.943397    0.461533
     26          6           0        6.640845   -5.268803   -0.240251
     27          6           0        6.506308   -4.946809   -1.798446
     28          6           0        6.507401   -3.400125   -1.720759
     29          6           0        7.891419   -6.126439   -0.002479
     30          6           0        5.355141   -5.646040   -2.564156
     31          6           0        4.022582   -5.121069   -2.078574
     32          7           0        6.413318   -0.424598   -1.909107
     33          6           0        6.541253   -1.296900   -2.999702
     34          6           0        6.676506   -0.461755   -4.207306
     35          6           0        6.634217    0.846895   -3.730346
     36          6           0        6.508560    0.830170   -2.311818
     37          6           0        6.874003   -0.939299   -5.532968
     38          6           0        6.690718    2.255338   -4.086652
     39          8           0        6.698532    2.881864   -5.147264
     40          6           0        6.863213    3.103763   -2.750146
     41          6           0        5.869258    4.232126   -2.796619
     42          8           0        4.642973    4.007102   -2.742266
     43          8           0        6.515596    5.399881   -2.658282
     44          6           0        5.583827    6.559147   -2.666218
     45          1           0        7.690921    1.181806    3.870980
     46          1           0        6.342821   -4.691677    2.252699
     47          1           0        6.572968   -3.133718   -3.826692
     48          1           0        7.808202    4.266992    0.012913
     49          1           0        7.518419    3.488216    2.706792
     50          1           0        9.690732    3.080893    0.686637
     51          1           0        9.583136    1.818424    1.951889
     52          1           0        9.835492    3.467218    2.450265
     53          1           0        5.361156    3.830785    1.737151
     54          1           0        5.105950    4.241012   -0.006138
     55          1           0        6.923544    6.123641    1.106991
     56          1           0        5.856052    5.740353    2.403681
     57          1           0        6.960437    0.394344    5.684585
     58          1           0        7.218675   -1.184426    6.322403
     59          1           0        5.546237   -0.572505    6.246112
     60          1           0        6.174143   -3.115840    6.764419
     61          1           0        4.897842   -4.454863    6.683481
     62          1           0        4.526187   -2.747481    6.323413
     63          1           0        5.803159   -5.892433    0.069256
     64          1           0        7.402602   -5.226278   -2.352728
     65          1           0        7.673628   -7.116226    0.399509
     66          1           0        8.558289   -5.573857    0.658754
     67          1           0        8.522979   -6.266679   -0.879338
     68          1           0        5.367313   -6.718120   -2.370653
     69          1           0        5.407169   -5.503247   -3.643579
     70          1           0        3.834006   -5.721197   -1.189126
     71          1           0        3.251387   -5.286218   -2.831697
     72          1           0        4.096516   -4.081022   -1.760265
     73          1           0        6.219181   -0.346435   -6.171475
     74          1           0        6.645402   -2.002096   -5.609168
     75          1           0        7.935114   -0.729756   -5.667095
     76          1           0        7.891375    3.464125   -2.738117
     77          1           0        5.916864    7.233238   -3.455473
     78          1           0        5.561112    6.945430   -1.647065
     79          1           0        4.562189    6.354238   -2.988100
     80         12           0       -6.899509   -0.332717   -0.159492
     81          6           0       -4.360830    1.992909    0.853242
     82          6           0       -9.201255    1.922833    0.958125
     83          6           0       -9.136061   -2.535152   -0.622725
     84          6           0       -4.447595   -2.809183   -0.128605
     85          7           0       -6.685439    1.664986    0.765491
     86          6           0       -5.673375    2.472558    1.044564
     87          6           0       -6.092613    3.901787    1.481722
     88          6           0       -7.568746    3.566047    2.017612
     89          6           0       -7.859447    2.327108    1.173096
     90          6           0       -7.600058    3.163558    3.482651
     91          6           0       -6.133458    4.907237    0.277807
     92          6           0       -6.232719    6.381853    0.674560
     93          1           0       -5.537284    7.371203   -0.144001
     94          7           0       -8.867605   -0.147371   -0.335082
     95          6           0       -9.639146    0.842640    0.160772
     96          6           0      -11.019244    0.507786   -0.223111
     97          6           0      -11.018444   -0.844825   -0.843714
     98          6           0       -9.647246   -1.245682   -0.600396
     99          6           0      -12.163577    1.466120   -0.063331
    100          6           0      -12.080003   -1.650130   -1.529846
    101          8           0      -11.922439   -2.897127   -1.780842
    102          6           0      -13.345690   -0.958664   -1.815190
    103          7           0       -6.856266   -2.411236   -0.143643
    104          6           0       -7.957825   -3.127820   -0.428230
    105          6           0       -7.623220   -4.586965   -0.626541
    106          6           0       -6.025959   -4.661523   -0.654384
    107          6           0       -5.698392   -3.180099   -0.365470
    108          6           0       -8.158561   -5.543030    0.439173
    109          6           0       -5.374330   -5.334584   -1.893354
    110          6           0       -5.609271   -4.488210   -3.123747
    111          7           0       -4.754995   -0.395121    0.095911
    112          6           0       -3.929283   -1.540664    0.098562
    113          6           0       -2.560409   -1.089908    0.423245
    114          6           0       -2.690043    0.294440    0.611081
    115          6           0       -4.047751    0.676288    0.437008
    116          6           0       -1.418285   -1.928725    0.557588
    117          6           0       -1.988930    1.517968    0.927498
    118          8           0       -0.808844    1.825860    1.089807
    119          6           0       -3.061552    2.653161    1.222771
    120          6           0       -2.658344    3.883610    0.457300
    121          8           0       -2.664562    3.884628   -0.786308
    122          8           0       -2.542596    4.916162    1.312176
    123          6           0       -2.154961    6.162001    0.598427
    124          1           0       -9.994293    2.456578    1.482615
    125          1           0       -9.848041   -3.320074   -0.888134
    126          1           0       -3.609379   -3.505992   -0.195889
    127          1           0       -5.495073    4.326414    2.279492
    128          1           0       -8.267024    4.363610    1.777489
    129          1           0       -6.606679    3.055068    3.891984
    130          1           0       -8.128649    2.219916    3.517247
    131          1           0       -8.207631    3.870483    4.054893
    132          1           0       -7.086824    4.791054   -0.253536
    133          1           0       -5.289246    4.762824   -0.368004
    134          1           0       -6.011638    6.538540    1.737344
    135          1           0       -7.272285    6.700886    0.567183
    136          1           0      -11.889812    2.317097    0.572515
    137          1           0      -12.941875    0.943221    0.502970
    138          1           0      -12.579326    1.788999   -1.020185
    139          1           0      -13.774006   -0.591251   -0.885672
    140          1           0      -13.944844   -1.669989   -2.386953
    141          1           0      -13.132300   -0.079039   -2.432722
    142          1           0       -8.008365   -4.946924   -1.572680
    143          1           0       -5.630314   -5.241725    0.192178
    144          1           0       -8.794663   -6.347447    0.024004
    145          1           0       -8.706051   -4.965308    1.171997
    146          1           0       -7.397893   -6.027918    1.048653
    147          1           0       -5.842423   -6.302553   -2.088494
    148          1           0       -4.309500   -5.508762   -1.780206
    149          1           0       -6.612019   -4.788586   -3.442103
    150          1           0       -4.868768   -4.711226   -3.889224
    151          1           0       -5.650123   -3.423301   -2.866957
    152          1           0       -0.603934   -1.429630    0.049406
    153          1           0       -1.600368   -2.917799    0.142445
    154          1           0       -1.320452   -1.952128    1.646235
    155          1           0       -3.068604    2.825047    2.299797
    156          1           0       -1.244986    6.535226    1.078382
    157          1           0       -3.046793    6.815620    0.632477
    158          1           0       -1.828389    6.069091   -0.430730
 ---------------------------------------------------------------------

 SCF Done:  E(RCAM-B3LYP) =  -4069.81105169     A.U. after   19 cycles

 Excitation energies and oscillator strengths:

 Excited State   1:      Singlet-A      1.6748 eV  740.31 nm  f=0.3959  <S**2>=0.000
     309 -> 315        0.16773
     311 -> 313        0.66394
     312 -> 314        0.17298
     309 <- 315        0.10117
 This state for optimization and/or second-order correction.
 Total Energy, E(TD-HF/TD-DFT) =  -4069.74950515
 Copying the excited state density for this state as the 1-particle RhoCI density.

 Excited State   2:      Singlet-A      1.6801 eV  737.94 nm  f=0.3930  <S**2>=0.000
     310 -> 316        0.16928
     311 -> 313       -0.17284
     312 -> 314        0.66352
     310 <- 316        0.10125

 Excited State   3:      Singlet-A      2.1840 eV  567.70 nm  f=0.0136  <S**2>=0.000
     309 -> 313        0.55486
     310 -> 314       -0.32592
     311 -> 315       -0.23436
     312 -> 316        0.13700

 Excited State   4:      Singlet-A      2.1919 eV  565.65 nm  f=0.1721  <S**2>=0.000
     309 -> 313        0.32395
     310 -> 314        0.55231
     311 -> 315       -0.14035
     312 -> 316       -0.23998

 Excited State   5:      Singlet-A      2.5877 eV  479.14 nm  f=0.0000  <S**2>=0.000
     312 -> 313        0.70639

 The electronic state is 1-A.
 Alpha  occ. eigenvalues --  -46.87556 -46.87409 -19.26204 -19.25868 -19.18979
 Alpha  occ. eigenvalues --  -19.18622 -19.18549 -19.18513 -19.17911 -19.17802
 Alpha  occ. eigenvalues --  -14.42399 -14.42067 -14.41258 -14.41096 -14.39249
 Alpha  occ. eigenvalues --  -14.39025 -14.38490 -14.38204 -10.38922 -10.38623
 Alpha  occ. eigenvalues --  -10.35301 -10.35150 -10.34089 -10.34018 -10.31625
 Alpha  occ. eigenvalues --  -10.31305 -10.31205 -10.31024 -10.30928 -10.30524
 Alpha  occ. eigenvalues --  -10.30289 -10.30250 -10.30194 -10.30149 -10.30048
 Alpha  occ. eigenvalues --  -10.29879 -10.29789 -10.29584 -10.29338 -10.29292
 Alpha  occ. eigenvalues --  -10.29278 -10.28900 -10.28635 -10.28575 -10.28343
 Alpha  occ. eigenvalues --  -10.28298 -10.28132 -10.28061 -10.27987 -10.27890
 Alpha  occ. eigenvalues --  -10.27740 -10.27572 -10.27434 -10.27427 -10.27381
 Alpha  occ. eigenvalues --  -10.27379 -10.27361 -10.27361 -10.27286 -10.27240
 Alpha  occ. eigenvalues --  -10.27231 -10.27188 -10.27150 -10.27027 -10.26929
 Alpha  occ. eigenvalues --  -10.26771 -10.26597 -10.26335 -10.26208 -10.26139
 Alpha  occ. eigenvalues --  -10.26046 -10.25971 -10.25969 -10.25908 -10.25831
 Alpha  occ. eigenvalues --  -10.25721 -10.25678 -10.25527 -10.25320 -10.25204
 Alpha  occ. eigenvalues --  -10.24758 -10.24630 -10.24587 -10.24493 -10.24468
 Alpha  occ. eigenvalues --  -10.24442  -3.16306  -3.16149  -1.91188  -1.91030
 Alpha  occ. eigenvalues --   -1.90777  -1.90618  -1.90614  -1.90460  -1.16490
 Alpha  occ. eigenvalues --   -1.16208  -1.08512  -1.08255  -1.06919  -1.06875
 Alpha  occ. eigenvalues --   -1.06770  -1.06183  -1.04395  -1.04199  -1.03561
 Alpha  occ. eigenvalues --   -1.03403  -1.02935  -1.02868  -1.02047  -1.02006
 Alpha  occ. eigenvalues --   -0.91876  -0.91597  -0.89393  -0.89215  -0.89066
 Alpha  occ. eigenvalues --   -0.88798  -0.88124  -0.87989  -0.87678  -0.87585
 Alpha  occ. eigenvalues --   -0.87520  -0.87302  -0.87024  -0.86937  -0.84908
 Alpha  occ. eigenvalues --   -0.84603  -0.83778  -0.83656  -0.82840  -0.82668
 Alpha  occ. eigenvalues --   -0.82558  -0.82292  -0.81479  -0.81216  -0.80334
 Alpha  occ. eigenvalues --   -0.80235  -0.78533  -0.78453  -0.77050  -0.76888
 Alpha  occ. eigenvalues --   -0.76799  -0.76576  -0.75739  -0.75563  -0.74707
 Alpha  occ. eigenvalues --   -0.74597  -0.72594  -0.72427  -0.71484  -0.71329
 Alpha  occ. eigenvalues --   -0.69662  -0.69644  -0.68733  -0.68510  -0.67496
 Alpha  occ. eigenvalues --   -0.67291  -0.67107  -0.66830  -0.65174  -0.64901
 Alpha  occ. eigenvalues --   -0.64665  -0.64547  -0.64497  -0.64269  -0.64104
 Alpha  occ. eigenvalues --   -0.63954  -0.62155  -0.61924  -0.60242  -0.60113
 Alpha  occ. eigenvalues --   -0.59703  -0.59424  -0.58887  -0.58636  -0.58316
 Alpha  occ. eigenvalues --   -0.58151  -0.57424  -0.57202  -0.57131  -0.56971
 Alpha  occ. eigenvalues --   -0.56097  -0.55963  -0.55769  -0.55593  -0.55347
 Alpha  occ. eigenvalues --   -0.55187  -0.55139  -0.55024  -0.54372  -0.54181
 Alpha  occ. eigenvalues --   -0.53823  -0.53503  -0.53126  -0.53038  -0.52967
 Alpha  occ. eigenvalues --   -0.52862  -0.52786  -0.52580  -0.52551  -0.52419
 Alpha  occ. eigenvalues --   -0.52301  -0.52169  -0.51759  -0.51574  -0.51564
 Alpha  occ. eigenvalues --   -0.51236  -0.51088  -0.50847  -0.50387  -0.50261
 Alpha  occ. eigenvalues --   -0.49890  -0.49774  -0.49752  -0.49582  -0.49392
 Alpha  occ. eigenvalues --   -0.49160  -0.49095  -0.49004  -0.48858  -0.48738
 Alpha  occ. eigenvalues --   -0.48446  -0.48274  -0.48242  -0.48236  -0.48151
 Alpha  occ. eigenvalues --   -0.48111  -0.47495  -0.47356  -0.47020  -0.46964
 Alpha  occ. eigenvalues --   -0.46608  -0.46462  -0.46462  -0.46172  -0.46165
 Alpha  occ. eigenvalues --   -0.46018  -0.45974  -0.45818  -0.45704  -0.45466
 Alpha  occ. eigenvalues --   -0.45113  -0.44907  -0.44411  -0.44376  -0.44222
 Alpha  occ. eigenvalues --   -0.44186  -0.44030  -0.43976  -0.43835  -0.43832
 Alpha  occ. eigenvalues --   -0.43733  -0.43666  -0.43439  -0.43283  -0.43135
 Alpha  occ. eigenvalues --   -0.43036  -0.42815  -0.42773  -0.42682  -0.42457
 Alpha  occ. eigenvalues --   -0.42397  -0.42282  -0.41866  -0.41689  -0.41555
 Alpha  occ. eigenvalues --   -0.41366  -0.41351  -0.41165  -0.40894  -0.40798
 Alpha  occ. eigenvalues --   -0.40632  -0.40609  -0.40531  -0.40502  -0.40398
 Alpha  occ. eigenvalues --   -0.40258  -0.40140  -0.39805  -0.39330  -0.39186
 Alpha  occ. eigenvalues --   -0.38259  -0.38164  -0.37561  -0.37352  -0.37168
 Alpha  occ. eigenvalues --   -0.37100  -0.36998  -0.36869  -0.36627  -0.36326
 Alpha  occ. eigenvalues --   -0.36102  -0.35817  -0.34146  -0.33917  -0.33692
 Alpha  occ. eigenvalues --   -0.33315  -0.33066  -0.32814  -0.31181  -0.31043
 Alpha  occ. eigenvalues --   -0.30870  -0.30673  -0.29815  -0.29658  -0.29222
 Alpha  occ. eigenvalues --   -0.29095  -0.29091  -0.28954  -0.23932  -0.23708
 Alpha  occ. eigenvalues --   -0.21014  -0.20767
 Alpha virt. eigenvalues --   -0.08686  -0.08414  -0.01584  -0.01394   0.00071
 Alpha virt. eigenvalues --    0.00291   0.02328   0.02557   0.03349   0.03659
 Alpha virt. eigenvalues --    0.04822   0.05090   0.05328   0.05540   0.06270

 Mulliken charges:
               1
     1  Mg   0.842560
     2  C   -0.001025
     3  C   -0.093194
     4  C   -0.046578
     5  C   -0.064689
     6  N   -0.256644
     7  C   -0.051201
     8  C   -0.014804
     9  C   -0.087387
    10  C    0.047491
    11  C    0.105049
    12  C    0.053434
    13  C   -0.070823
    14  H    0.034741
    15  N   -0.432847
    16  C    0.169550
    17  C   -0.176818
    18  C   -0.004182
    19  C    0.149037
    20  C    0.110407
    21  C    0.012060
    22  O   -0.250862
    23  C    0.062395
    24  N   -0.341172
    25  C    0.041155
    26  C   -0.027902
    27  C   -0.023849
    28  C    0.074923
    29  C    0.076462
    30  C    0.035414
    31  C   -0.004550
    32  N   -0.310580
    33  C    0.080943
    34  C   -0.169770
    35  C    0.008226
    36  C    0.084265
    37  C    0.127229
    38  C    0.046905
    39  O   -0.188870
    40  C   -0.005885
    41  C    0.211954
    42  O   -0.253365
    43  O   -0.305575
    44  C    0.157937
    45  H   -0.018373
    46  H   -0.017935
    47  H   -0.042385
    48  H    0.000034
    49  H   -0.004099
    50  H    0.025031
    51  H    0.015943
    52  H    0.015803
    53  H    0.014067
    54  H    0.047216
    55  H    0.016367
    56  H    0.017475
    57  H    0.005730
    58  H    0.025730
    59  H    0.039941
    60  H    0.036947
    61  H    0.034462
    62  H    0.032188
    63  H    0.015600
    64  H    0.008916
    65  H    0.022332
    66  H    0.012516
    67  H    0.004201
    68  H    0.005326
    69  H    0.004526
    70  H    0.007674
    71  H    0.016805
    72  H    0.030664
    73  H    0.047772
    74  H    0.008461
    75  H    0.045283
    76  H    0.034214
    77  H    0.041652
    78  H    0.045694
    79  H    0.054604
    80  Mg   0.838001
    81  C   -0.016567
    82  C   -0.087890
    83  C   -0.045563
    84  C   -0.064955
    85  N   -0.254470
    86  C   -0.049914
    87  C   -0.015039
    88  C   -0.090458
    89  C    0.045666
    90  C    0.114512
    91  C    0.062572
    92  C   -0.077743
    93  H    0.035065
    94  N   -0.423389
    95  C    0.162824
    96  C   -0.174840
    97  C   -0.007944
    98  C    0.152031
    99  C    0.099469
   100  C    0.015489
   101  O   -0.253399
   102  C    0.061224
   103  N   -0.350099
   104  C    0.037388
   105  C   -0.019737
   106  C   -0.034842
   107  C    0.089018
   108  C    0.073736
   109  C    0.034724
   110  C   -0.007626
   111  N   -0.324276
   112  C    0.078675
   113  C   -0.162424
   114  C    0.002559
   115  C    0.096603
   116  C    0.131106
   117  C    0.043331
   118  O   -0.186672
   119  C    0.000334
   120  C    0.212009
   121  O   -0.249143
   122  O   -0.306556
   123  C    0.151937
   124  H   -0.020034
   125  H   -0.015787
   126  H   -0.040269
   127  H   -0.001100
   128  H   -0.004484
   129  H    0.022006
   130  H    0.014347
   131  H    0.015868
   132  H    0.013985
   133  H    0.038370
   134  H    0.020213
   135  H    0.019374
   136  H    0.008535
   137  H    0.025814
   138  H    0.039664
   139  H    0.038068
   140  H    0.036198
   141  H    0.033926
   142  H    0.014321
   143  H    0.012374
   144  H    0.024942
   145  H    0.011465
   146  H    0.005548
   147  H    0.005994
   148  H    0.003688
   149  H    0.010779
   150  H    0.017972
   151  H    0.030479
   152  H    0.047115
   153  H    0.008812
   154  H    0.046367
   155  H    0.033845
   156  H    0.042654
   157  H    0.048708
   158  H    0.055566
 Sum of Mulliken charges =  -0.00000

 Dipole moment (field-independent basis, Debye):
    X=             -1.8356    Y=              2.2237    Z=              5.9234  Tot=              6.5880
 Quadrupole moment (field-independent basis, Debye-Ang):
   XX=           -460.8406   YY=           -474.5300   ZZ=           -514.2632
   XY=            -30.7212   XZ=              8.8476   YZ=             39.9867

 Normal termination of Gaussian 16 at Sat Sep 11 10:56:34 2021.
