 Gaussian 16, Revision A.03,
 Gaussian 16:  ES64L-G16RevA.03 25-Dec-2016

 -----------------------------------
 #p cam-b3lyp/Def2SVP td=(nstates=5)
 -----------------------------------

 --------------------------------
 TDDFT excited states in gaussian
 --------------------------------
 Symbolic Z-matrix:
 Charge =  0 Multiplicity = 1

                         Standard orientation:
 ---------------------------------------------------------------------
 Center     Atomic      Atomic             Coordinates (Angstroms)
 Number     Number       Type             X           Y           Z
 ---------------------------------------------------------------------
      1         12           0        3.144696    2.054519    0.721795
      2          6           0        4.695491   -1.165250    0.520961
      3          6           0        4.378121    2.678330   -2.397914
      4          6           0        2.176152    5.055507    1.057375
      5          6           0        3.020021    1.615497    4.176846
      6          7           0        4.366049    0.831802   -0.661645
      7          6           0        4.844248   -0.408426   -0.643398
      8          6           0        5.452809   -0.856041   -2.005994
      9          6           0        5.799731    0.578119   -2.610003
     10          6           0        4.763714    1.408923   -1.873553
     11          6           0        7.189999    1.078536   -2.231533
     12          6           0        4.416175   -1.618036   -2.898454
     13          6           0        5.010229   -2.369018   -4.093644
     14          1           0        4.413519   -3.634915   -4.492132
     15          7           0        2.831113    3.458570   -0.632146
     16          6           0        3.406266    3.546778   -1.855545
     17          6           0        2.848163    4.764754   -2.481434
     18          6           0        2.046538    5.479936   -1.449928
     19          6           0        2.344499    4.696908   -0.277979
     20          6           0        3.053921    5.117422   -3.922628
     21          6           0        1.161969    6.685017   -1.508661
     22          8           0        0.745967    7.275460   -0.453724
     23          6           0        0.863397    7.215969   -2.851042
     24          7           0        2.863813    3.277936    2.389725
     25          6           0        2.380367    4.518481    2.262010
     26          6           0        2.000115    5.096031    3.593094
     27          6           0        2.098378    3.894792    4.640530
     28          6           0        2.626709    2.793854    3.688126
     29          6           0        2.857778    6.271203    4.082374
     30          6           0        0.835658    3.594453    5.486552
     31          6           0       -0.265932    3.066734    4.594862
     32          7           0        3.577638    0.445843    2.113114
     33          6           0        3.476054    0.490015    3.511114
     34          6           0        3.978168   -0.798894    4.021667
     35          6           0        4.354860   -1.501502    2.878736
     36          6           0        4.128408   -0.692061    1.729033
     37          6           0        4.094796   -1.164040    5.391886
     38          6           0        4.918951   -2.738351    2.363117
     39          8           0        5.219223   -3.826426    2.856495
     40          6           0        5.275623   -2.523897    0.826035
     41          6           0        4.737525   -3.705141    0.065493
     42          8           0        3.508307   -3.897201   -0.031974
     43          8           0        5.734789   -4.283497   -0.621175
     44          6           0        5.262741   -5.445089   -1.421192
     45          1           0        4.906904    3.072770   -3.267826
     46          1           0        1.738890    6.044107    1.212002
     47          1           0        2.932907    1.374417    5.237858
     48          1           0        6.360114   -1.454757   -1.923769
     49          1           0        5.624788    0.620153   -3.684876
     50          1           0        7.664391    0.422805   -1.501539
     51          1           0        7.036726    2.071486   -1.808388
     52          1           0        7.804838    1.223195   -3.120253
     53          1           0        3.794220   -0.894019   -3.424791
     54          1           0        3.823398   -2.308405   -2.297344
     55          1           0        6.092382   -2.468233   -4.004144
     56          1           0        4.866972   -1.759148   -4.985684
     57          1           0        3.820083    4.494125   -4.382022
     58          1           0        3.471421    6.123789   -3.947689
     59          1           0        2.122515    5.091630   -4.488445
     60          1           0        1.796159    7.484034   -3.347676
     61          1           0        0.146101    8.022408   -2.702743
     62          1           0        0.412744    6.425098   -3.451361
     63          1           0        0.978711    5.474091    3.577943
     64          1           0        2.881237    4.060775    5.380973
     65          1           0        2.283669    7.173074    4.296227
     66          1           0        3.624287    6.464224    3.332375
     67          1           0        3.464277    6.059148    4.962493
     68          1           0        0.463574    4.507655    5.949760
     69          1           0        1.011995    2.868146    6.280046
     70          1           0       -0.713854    3.976582    4.196900
     71          1           0       -0.989904    2.498872    5.180190
     72          1           0        0.138511    2.506778    3.751440
     73          1           0        3.732607   -2.189351    5.466219
     74          1           0        3.520160   -0.493656    6.030620
     75          1           0        5.169884   -1.060244    5.537719
     76          1           0        6.361221   -2.456217    0.762633
     77          1           0        5.864073   -6.304603   -1.124764
     78          1           0        5.300526   -5.137402   -2.466326
     79          1           0        4.259331   -5.808836   -1.197145
     80         12           0       -4.130058   -0.876917   -0.522428
     81          6           0       -1.697857   -3.507019   -0.307925
     82          6           0       -2.259813    0.443338   -3.051006
     83          6           0       -6.002283    1.683330   -0.436953
     84          6           0       -5.152833   -1.749319    2.692942
     85          7           0       -2.243238   -1.538443   -1.468224
     86          6           0       -1.442232   -2.586110   -1.345239
     87          6           0       -0.350208   -2.693229   -2.443224
     88          6           0       -0.277272   -1.144553   -2.861740
     89          6           0       -1.691298   -0.719083   -2.471649
     90          6           0        0.709507   -0.342202   -2.029965
     91          6           0       -0.799658   -3.593123   -3.647458
     92          6           0        0.324162   -3.992905   -4.606075
     93          1           0        0.277339   -5.317139   -5.219821
     94          7           0       -4.421773    0.546470   -1.874255
     95          6           0       -3.566390    0.936933   -2.842307
     96          6           0       -4.241344    2.030396   -3.558524
     97          6           0       -5.495806    2.363911   -2.830641
     98          6           0       -5.341468    1.540275   -1.648314
     99          6           0       -3.728201    2.595129   -4.851270
    100          6           0       -6.638377    3.282960   -3.140574
    101          8           0       -7.509570    3.596787   -2.254367
    102          6           0       -6.654861    3.878239   -4.484770
    103          7           0       -5.250820    0.000291    0.993079
    104          6           0       -6.017797    1.077736    0.750618
    105          6           0       -6.939398    1.363816    1.912171
    106          6           0       -6.801910    0.105593    2.889685
    107          6           0       -5.709703   -0.683319    2.134633
    108          6           0       -6.649793    2.646887    2.690779
    109          6           0       -8.113103   -0.632214    3.275810
    110          6           0       -8.696107   -1.318244    2.061373
    111          7           0       -3.682707   -2.462351    0.875551
    112          6           0       -4.204341   -2.623627    2.177845
    113          6           0       -3.516213   -3.782909    2.781988
    114          6           0       -2.618434   -4.204871    1.789810
    115          6           0       -2.724226   -3.355317    0.655552
    116          6           0       -3.720932   -4.277088    4.101082
    117          6           0       -1.597755   -5.169322    1.448125
    118          8           0       -1.145990   -6.181881    1.981405
    119          6           0       -0.866592   -4.683378    0.123116
    120          6           0       -0.774219   -5.856774   -0.813440
    121          8           0       -1.802695   -6.363214   -1.295474
    122          8           0        0.513197   -6.047966   -1.154590
    123          6           0        0.654826   -7.194346   -2.091384
    124          1           0       -1.633569    1.061518   -3.694862
    125          1           0       -6.741754    2.486412   -0.395215
    126          1           0       -5.484742   -2.144796    3.655288
    127          1           0        0.617490   -3.028970   -2.090223
    128          1           0       -0.126664   -1.031357   -3.932188
    129          1           0        1.113731   -0.922377   -1.213786
    130          1           0        0.154221    0.506373   -1.652314
    131          1           0        1.493542    0.071616   -2.670572
    132          1           0       -1.422884   -2.997278   -4.326661
    133          1           0       -1.306361   -4.471720   -3.298236
    134          1           0        1.316666   -3.801531   -4.180334
    135          1           0        0.279186   -3.343384   -5.483644
    136          1           0       -2.701502    2.266469   -5.054402
    137          1           0       -3.644722    3.678914   -4.715984
    138          1           0       -4.394792    2.394323   -5.692692
    139          1           0       -5.738915    4.443180   -4.640806
    140          1           0       -7.593052    4.433006   -4.547212
    141          1           0       -6.656388    3.070467   -5.225124
    142          1           0       -7.967554    1.440317    1.580321
    143          1           0       -6.370097    0.389266    3.860714
    144          1           0       -7.514190    3.336139    2.733333
    145          1           0       -5.796224    3.134850    2.239278
    146          1           0       -6.315739    2.499284    3.716363
    147          1           0       -8.864052    0.084123    3.618004
    148          1           0       -7.980773   -1.362689    4.066951
    149          1           0       -9.250415   -0.515107    1.566597
    150          1           0       -9.357920   -2.128705    2.360053
    151          1           0       -7.905222   -1.643855    1.375727
    152          1           0       -3.764860   -5.355493    4.026215
    153          1           0       -4.629295   -3.871023    4.541256
    154          1           0       -2.821302   -3.897939    4.593206
    155          1           0        0.117246   -4.310065    0.409943
    156          1           0        1.370968   -7.888513   -1.640865
    157          1           0        0.928803   -6.750766   -3.067050
    158          1           0       -0.205867   -7.838291   -2.229172
 ---------------------------------------------------------------------

 SCF Done:  E(RCAM-B3LYP) =  -4069.81318052     A.U. after   19 cycles

 Excitation energies and oscillator strengths:

 Excited State   1:      Singlet-A      1.6346 eV  758.50 nm  f=0.0007  <S**2>=0.000
     309 -> 315       -0.11630
     310 -> 316        0.11486
     311 -> 313       -0.48616
     312 -> 314        0.48749
 This state for optimization and/or second-order correction.
 Total Energy, E(TD-HF/TD-DFT) =  -4069.75311044
 Copying the excited state density for this state as the 1-particle RhoCI density.

 Excited State   2:      Singlet-A      1.7121 eV  724.16 nm  f=0.6720  <S**2>=0.000
     309 -> 315        0.13098
     310 -> 316        0.12854
     311 -> 313        0.48398
     312 -> 314        0.48268

 Excited State   3:      Singlet-A      2.1469 eV  577.50 nm  f=0.0002  <S**2>=0.000
     312 -> 313        0.70560

 Excited State   4:      Singlet-A      2.1758 eV  569.83 nm  f=0.0309  <S**2>=0.000
     309 -> 313       -0.30276
     310 -> 314        0.57093
     311 -> 315        0.12291
     312 -> 316       -0.23436

 Excited State   5:      Singlet-A      2.1974 eV  564.24 nm  f=0.1449  <S**2>=0.000
     309 -> 313        0.56391
     310 -> 314        0.29720
     311 -> 315       -0.24988
     312 -> 316       -0.13402

 The electronic state is 1-A.
 Alpha  occ. eigenvalues --  -46.88069 -46.87304 -19.26598 -19.25676 -19.19429
 Alpha  occ. eigenvalues --  -19.19057 -19.18567 -19.18422 -19.18370 -19.17491
 Alpha  occ. eigenvalues --  -14.42762 -14.42139 -14.41718 -14.41002 -14.39683
 Alpha  occ. eigenvalues --  -14.38999 -14.38864 -14.38223 -10.39440 -10.38458
 Alpha  occ. eigenvalues --  -10.35693 -10.35108 -10.34601 -10.33637 -10.31930
 Alpha  occ. eigenvalues --  -10.31725 -10.31345 -10.31261 -10.30914 -10.30855
 Alpha  occ. eigenvalues --  -10.30759 -10.30616 -10.30470 -10.30154 -10.30025
 Alpha  occ. eigenvalues --  -10.29971 -10.29891 -10.29848 -10.29532 -10.29532
 Alpha  occ. eigenvalues --  -10.29178 -10.29121 -10.29095 -10.29040 -10.28665
 Alpha  occ. eigenvalues --  -10.28494 -10.28432 -10.28184 -10.28051 -10.28045
 Alpha  occ. eigenvalues --  -10.27996 -10.27856 -10.27820 -10.27781 -10.27717
 Alpha  occ. eigenvalues --  -10.27692 -10.27633 -10.27628 -10.27437 -10.27340
 Alpha  occ. eigenvalues --  -10.27323 -10.27291 -10.27268 -10.27115 -10.27104
 Alpha  occ. eigenvalues --  -10.27056 -10.26688 -10.26543 -10.26342 -10.26335
 Alpha  occ. eigenvalues --  -10.26278 -10.26233 -10.26210 -10.25986 -10.25923
 Alpha  occ. eigenvalues --  -10.25649 -10.25603 -10.25598 -10.25519 -10.25155
 Alpha  occ. eigenvalues --  -10.25087 -10.25045 -10.24813 -10.24518 -10.24470
 Alpha  occ. eigenvalues --  -10.24323  -3.16809  -3.16055  -1.91690  -1.91278
 Alpha  occ. eigenvalues --   -1.91119  -1.90938  -1.90526  -1.90362  -1.16949
 Alpha  occ. eigenvalues --   -1.15990  -1.08826  -1.08068  -1.07454  -1.06992
 Alpha  occ. eigenvalues --   -1.06679  -1.06343  -1.04892  -1.04115  -1.04033
 Alpha  occ. eigenvalues --   -1.03504  -1.03299  -1.02685  -1.02684  -1.01745
 Alpha  occ. eigenvalues --   -0.92259  -0.91504  -0.89750  -0.89582  -0.89159
 Alpha  occ. eigenvalues --   -0.88760  -0.88509  -0.88106  -0.87991  -0.87913
 Alpha  occ. eigenvalues --   -0.87558  -0.87431  -0.87331  -0.86831  -0.85353
 Alpha  occ. eigenvalues --   -0.84647  -0.84141  -0.83567  -0.83226  -0.82973
 Alpha  occ. eigenvalues --   -0.82668  -0.82295  -0.81863  -0.81148  -0.80885
 Alpha  occ. eigenvalues --   -0.80043  -0.79073  -0.78316  -0.77520  -0.77235
 Alpha  occ. eigenvalues --   -0.76819  -0.76522  -0.76221  -0.75440  -0.75122
 Alpha  occ. eigenvalues --   -0.74472  -0.73036  -0.72344  -0.71948  -0.71211
 Alpha  occ. eigenvalues --   -0.70099  -0.69489  -0.69215  -0.68484  -0.67919
 Alpha  occ. eigenvalues --   -0.67617  -0.67232  -0.66880  -0.65651  -0.65132
 Alpha  occ. eigenvalues --   -0.64913  -0.64849  -0.64500  -0.64400  -0.64241
 Alpha  occ. eigenvalues --   -0.63874  -0.62569  -0.61780  -0.60706  -0.60154
 Alpha  occ. eigenvalues --   -0.60030  -0.59395  -0.59257  -0.58772  -0.58605
 Alpha  occ. eigenvalues --   -0.58015  -0.57857  -0.57557  -0.57029  -0.56790
 Alpha  occ. eigenvalues --   -0.56577  -0.56294  -0.55855  -0.55797  -0.55572
 Alpha  occ. eigenvalues --   -0.55406  -0.55093  -0.54873  -0.54766  -0.54312
 Alpha  occ. eigenvalues --   -0.54058  -0.53572  -0.53554  -0.53515  -0.53212
 Alpha  occ. eigenvalues --   -0.53078  -0.52897  -0.52770  -0.52620  -0.52495
 Alpha  occ. eigenvalues --   -0.52375  -0.52122  -0.52114  -0.51984  -0.51525
 Alpha  occ. eigenvalues --   -0.51453  -0.51318  -0.50870  -0.50795  -0.50298
 Alpha  occ. eigenvalues --   -0.50237  -0.50181  -0.49842  -0.49679  -0.49574
 Alpha  occ. eigenvalues --   -0.49507  -0.49399  -0.49163  -0.48888  -0.48783
 Alpha  occ. eigenvalues --   -0.48715  -0.48706  -0.48668  -0.48172  -0.48078
 Alpha  occ. eigenvalues --   -0.47982  -0.47971  -0.47567  -0.47257  -0.47076
 Alpha  occ. eigenvalues --   -0.46923  -0.46800  -0.46616  -0.46410  -0.46370
 Alpha  occ. eigenvalues --   -0.46214  -0.46073  -0.45947  -0.45701  -0.45421
 Alpha  occ. eigenvalues --   -0.45398  -0.44884  -0.44855  -0.44792  -0.44426
 Alpha  occ. eigenvalues --   -0.44383  -0.44283  -0.44159  -0.44110  -0.43809
 Alpha  occ. eigenvalues --   -0.43771  -0.43744  -0.43679  -0.43535  -0.43288
 Alpha  occ. eigenvalues --   -0.43163  -0.43033  -0.42935  -0.42868  -0.42551
 Alpha  occ. eigenvalues --   -0.42325  -0.42274  -0.42252  -0.41973  -0.41871
 Alpha  occ. eigenvalues --   -0.41633  -0.41418  -0.41260  -0.41203  -0.41129
 Alpha  occ. eigenvalues --   -0.41095  -0.40831  -0.40779  -0.40482  -0.40413
 Alpha  occ. eigenvalues --   -0.40372  -0.40099  -0.39851  -0.39627  -0.39165
 Alpha  occ. eigenvalues --   -0.38720  -0.38179  -0.38052  -0.37611  -0.37573
 Alpha  occ. eigenvalues --   -0.37333  -0.37011  -0.36936  -0.36833  -0.36476
 Alpha  occ. eigenvalues --   -0.36268  -0.35799  -0.34564  -0.34110  -0.33881
 Alpha  occ. eigenvalues --   -0.33470  -0.33306  -0.32796  -0.31588  -0.31323
 Alpha  occ. eigenvalues --   -0.30980  -0.30579  -0.30233  -0.29717  -0.29571
 Alpha  occ. eigenvalues --   -0.29369  -0.28986  -0.28814  -0.24371  -0.23645
 Alpha  occ. eigenvalues --   -0.21409  -0.20762
 Alpha virt. eigenvalues --   -0.09050  -0.08423  -0.02026  -0.01334  -0.00342
 Alpha virt. eigenvalues --    0.00311   0.01972   0.02592   0.02819   0.03649
 Alpha virt. eigenvalues --    0.04211   0.04614   0.04903   0.05302   0.05784

 Mulliken charges:
               1
     1  Mg   0.831595
     2  C   -0.005483
     3  C   -0.096147
     4  C   -0.044253
     5  C   -0.062925
     6  N   -0.256712
     7  C   -0.056132
     8  C   -0.011983
     9  C   -0.087186
    10  C    0.043566
    11  C    0.104912
    12  C    0.042299
    13  C   -0.073914
    14  H    0.039752
    15  N   -0.432561
    16  C    0.166535
    17  C   -0.179026
    18  C   -0.004228
    19  C    0.149190
    20  C    0.110442
    21  C    0.012850
    22  O   -0.248146
    23  C    0.062890
    24  N   -0.339664
    25  C    0.040413
    26  C   -0.028260
    27  C   -0.024212
    28  C    0.075332
    29  C    0.075915
    30  C    0.034857
    31  C   -0.004703
    32  N   -0.310474
    33  C    0.081696
    34  C   -0.168463
    35  C    0.010135
    36  C    0.081059
    37  C    0.126686
    38  C    0.047149
    39  O   -0.184926
    40  C   -0.006307
    41  C    0.214966
    42  O   -0.255934
    43  O   -0.304470
    44  C    0.154802
    45  H   -0.018131
    46  H   -0.016111
    47  H   -0.040393
    48  H    0.001960
    49  H   -0.005041
    50  H    0.026252
    51  H    0.017978
    52  H    0.016961
    53  H    0.012825
    54  H    0.046702
    55  H    0.020065
    56  H    0.017495
    57  H    0.005363
    58  H    0.027835
    59  H    0.036820
    60  H    0.037618
    61  H    0.036814
    62  H    0.028793
    63  H    0.017427
    64  H    0.010003
    65  H    0.023860
    66  H    0.012547
    67  H    0.005170
    68  H    0.006823
    69  H    0.005029
    70  H    0.009390
    71  H    0.018280
    72  H    0.029657
    73  H    0.050206
    74  H    0.009576
    75  H    0.046529
    76  H    0.035939
    77  H    0.044414
    78  H    0.044481
    79  H    0.057101
    80  Mg   0.836016
    81  C   -0.017810
    82  C   -0.087774
    83  C   -0.045682
    84  C   -0.066594
    85  N   -0.254532
    86  C   -0.049538
    87  C   -0.018494
    88  C   -0.085176
    89  C    0.043769
    90  C    0.077500
    91  C    0.063115
    92  C   -0.077232
    93  H    0.031721
    94  N   -0.423427
    95  C    0.162653
    96  C   -0.175417
    97  C   -0.008309
    98  C    0.151854
    99  C    0.100181
   100  C    0.015210
   101  O   -0.253869
   102  C    0.061479
   103  N   -0.350348
   104  C    0.037071
   105  C   -0.019446
   106  C   -0.034698
   107  C    0.089546
   108  C    0.073905
   109  C    0.034965
   110  C   -0.007529
   111  N   -0.324459
   112  C    0.079318
   113  C   -0.164079
   114  C    0.003821
   115  C    0.094870
   116  C    0.131502
   117  C    0.043419
   118  O   -0.185541
   119  C    0.000330
   120  C    0.207169
   121  O   -0.254462
   122  O   -0.295860
   123  C    0.152898
   124  H   -0.021967
   125  H   -0.016432
   126  H   -0.041527
   127  H    0.015504
   128  H   -0.008612
   129  H    0.046109
   130  H    0.018553
   131  H    0.024054
   132  H    0.011909
   133  H    0.037571
   134  H    0.021033
   135  H    0.016697
   136  H    0.006051
   137  H    0.023667
   138  H    0.038591
   139  H    0.037300
   140  H    0.035578
   141  H    0.033181
   142  H    0.013752
   143  H    0.011228
   144  H    0.024435
   145  H    0.012443
   146  H    0.004144
   147  H    0.005511
   148  H    0.003169
   149  H    0.010667
   150  H    0.017330
   151  H    0.030630
   152  H    0.045980
   153  H    0.007228
   154  H    0.047297
   155  H    0.056140
   156  H    0.041574
   157  H    0.045982
   158  H    0.052022
 Sum of Mulliken charges =  -0.00000

 Dipole moment (field-independent basis, Debye):
    X=              4.3015    Y=              5.1993    Z=             -4.9510  Tot=              8.3694
 Quadrupole moment (field-independent basis, Debye-Ang):
   XX=           -509.3198   YY=           -560.7887   ZZ=           -452.1516
   XY=             12.0298   XZ=            -38.1839   YZ=             16.1540

 Normal termination of Gaussian 16 at Thu Sep  9 06:22:17 2021.
