 Gaussian 16, Revision A.03,
 Gaussian 16:  ES64L-G16RevA.03 25-Dec-2016

 -----------------------------------
 #p cam-b3lyp/Def2SVP td=(nstates=5)
 -----------------------------------

 --------------------------------
 TDDFT excited states in gaussian
 --------------------------------
 Symbolic Z-matrix:
 Charge =  0 Multiplicity = 1

                         Standard orientation:
 ---------------------------------------------------------------------
 Center     Atomic      Atomic             Coordinates (Angstroms)
 Number     Number       Type             X           Y           Z
 ---------------------------------------------------------------------
      1         12           0       -4.282891   -0.943655    0.309669
      2          6           0       -4.561121    1.920849    2.437912
      3          6           0       -5.446855    1.015501   -2.230009
      4          6           0       -4.477596   -3.559036   -1.473164
      5          6           0       -4.240069   -2.898916    3.194245
      6          7           0       -4.890365    1.183867    0.237057
      7          6           0       -4.892941    2.188284    1.107868
      8          6           0       -5.208579    3.568628    0.457946
      9          6           0       -6.004823    3.065065   -0.828296
     10          6           0       -5.386497    1.685602   -0.972093
     11          6           0       -7.504024    2.909391   -0.594492
     12          6           0       -3.910800    4.348734    0.059280
     13          6           0       -4.115487    5.828608   -0.277512
     14          1           0       -3.079976    6.781047    0.093870
     15          7           0       -4.403181   -1.151462   -1.651248
     16          6           0       -4.888816   -0.245222   -2.533390
     17          6           0       -4.763324   -0.868348   -3.868548
     18          6           0       -4.341584   -2.283202   -3.672540
     19          6           0       -4.416933   -2.396770   -2.238384
     20          6           0       -4.985078   -0.122770   -5.148661
     21          6           0       -3.945258   -3.364809   -4.627099
     22          8           0       -3.839568   -4.586408   -4.265021
     23          6           0       -3.767729   -2.965825   -6.035053
     24          7           0       -4.570537   -2.958969    0.771625
     25          6           0       -4.555885   -3.894840   -0.183841
     26          6           0       -4.497295   -5.273835    0.403423
     27          6           0       -4.228632   -5.078144    1.965242
     28          6           0       -4.263018   -3.530809    2.018553
     29          6           0       -5.749417   -6.139296    0.205491
     30          6           0       -3.001526   -5.809724    2.564760
     31          6           0       -1.727174   -5.214084    2.009479
     32          7           0       -4.203001   -0.579515    2.447908
     33          6           0       -4.217456   -1.541587    3.468144
     34          6           0       -4.257716   -0.812353    4.749029
     35          6           0       -4.280771    0.531791    4.382165
     36          6           0       -4.282961    0.635095    2.961738
     37          6           0       -4.327010   -1.402200    6.041976
     38          6           0       -4.328940    1.904278    4.859468
     39          8           0       -4.251971    2.440895    5.965637
     40          6           0       -4.635369    2.855476    3.619650
     41          6           0       -3.660601    4.000148    3.673161
     42          8           0       -2.440527    3.810434    3.492071
     43          8           0       -4.336532    5.159170    3.691272
     44          6           0       -3.427681    6.336284    3.714625
     45          1           0       -6.022514    1.465992   -3.040943
     46          1           0       -4.434594   -4.486126   -2.048570
     47          1           0       -4.143402   -3.440529    4.136988
     48          1           0       -5.844728    4.218970    1.058607
     49          1           0       -5.785244    3.672152   -1.706334
     50          1           0       -7.759781    3.046727    0.456055
     51          1           0       -7.744979    1.895825   -0.915613
     52          1           0       -8.069153    3.573411   -1.249078
     53          1           0       -3.555642    3.986323   -0.905387
     54          1           0       -3.151668    4.257621    0.836933
     55          1           0       -5.093785    6.180545    0.051095
     56          1           0       -4.140900    5.931642   -1.362380
     57          1           0       -5.444847    0.848764   -4.971796
     58          1           0       -5.732521   -0.677922   -5.715093
     59          1           0       -4.070652   -0.033640   -5.735356
     60          1           0       -4.699283   -2.540211   -6.408695
     61          1           0       -3.398284   -3.849726   -6.553782
     62          1           0       -3.024843   -2.169243   -6.085329
     63          1           0       -3.680361   -5.849160   -0.030219
     64          1           0       -5.066548   -5.424179    2.570908
     65          1           0       -5.551866   -7.086966   -0.296106
     66          1           0       -6.482368   -5.550585   -0.345411
     67          1           0       -6.297062   -6.366723    1.119701
     68          1           0       -3.012817   -6.862188    2.283445
     69          1           0       -2.958664   -5.757680    3.652742
     70          1           0       -1.609191   -5.734084    1.059472
     71          1           0       -0.888660   -5.421817    2.675026
     72          1           0       -1.847122   -4.153465    1.787702
     73          1           0       -3.627586   -0.848128    6.667899
     74          1           0       -4.074436   -2.461751    6.007889
     75          1           0       -5.375165   -1.230444    6.286369
     76          1           0       -5.666424    3.190345    3.728779
     77          1           0       -3.699788    6.934695    4.584163
     78          1           0       -3.503311    6.805676    2.733628
     79          1           0       -2.377893    6.130601    3.926708
     80         12           0        4.672494   -0.312234   -0.208299
     81          6           0        3.010952    1.881393   -2.511851
     82          6           0        6.666531    2.324375    0.632369
     83          6           0        6.443028   -2.321725    1.493049
     84          6           0        3.352612   -2.983660   -2.015799
     85          7           0        4.733122    1.782105   -0.917070
     86          6           0        4.012796    2.518081   -1.750020
     87          6           0        4.333538    4.036296   -1.708689
     88          6           0        5.834105    3.949751   -1.143291
     89          6           0        5.737907    2.620543   -0.397210
     90          6           0        6.881566    3.809793   -2.235335
     91          6           0        3.393690    4.819229   -0.725979
     92          6           0        3.443366    6.342357   -0.865149
     93          1           0        2.212188    7.100506   -0.660508
     94          7           0        5.976996    0.039999    1.245237
     95          6           0        6.679361    1.173823    1.451151
     96          6           0        7.513787    0.920626    2.635966
     97          6           0        7.368800   -0.511302    3.014486
     98          6           0        6.589846   -1.002211    1.895407
     99          6           0        8.280023    2.003791    3.338137
    100          6           0        7.861880   -1.309813    4.183009
    101          8           0        7.820180   -2.590851    4.188827
    102          6           0        8.480474   -0.552113    5.280609
    103          7           0        5.045911   -2.350640   -0.374990
    104          6           0        5.811449   -2.989279    0.527237
    105          6           0        5.713418   -4.487224    0.363036
    106          6           0        4.530083   -4.727959   -0.685457
    107          6           0        4.193511   -3.260184   -1.028587
    108          6           0        6.979953   -5.186697   -0.129928
    109          6           0        3.375260   -5.666419   -0.240082
    110          6           0        2.591851   -5.024105    0.882014
    111          7           0        3.265990   -0.548294   -1.831284
    112          6           0        2.875702   -1.754562   -2.453114
    113          6           0        1.989229   -1.396781   -3.579439
    114          6           0        1.943339    0.005158   -3.548623
    115          6           0        2.760744    0.487945   -2.491140
    116          6           0        1.392194   -2.312179   -4.491417
    117          6           0        1.397741    1.186837   -4.176823
    118          8           0        0.572798    1.396033   -5.065327
    119          6           0        2.165071    2.459245   -3.612393
    120          6           0        1.138202    3.492546   -3.237776
    121          8           0        0.338024    3.280912   -2.309585
    122          8           0        1.409520    4.639141   -3.887460
    123          6           0        0.424691    5.697997   -3.539966
    124          1           0        7.490021    3.018211    0.803663
    125          1           0        6.946285   -3.063766    2.117205
    126          1           0        2.822551   -3.763483   -2.566794
    127          1           0        4.327701    4.528258   -2.673948
    128          1           0        6.042788    4.761311   -0.451062
    129          1           0        6.433441    3.672383   -3.208187
    130          1           0        7.473646    2.944977   -1.965948
    131          1           0        7.566058    4.662601   -2.212645
    132          1           0        3.776028    4.711483    0.297227
    133          1           0        2.379915    4.480867   -0.817625
    134          1           0        3.937924    6.655606   -1.792642
    135          1           0        4.080927    6.742576   -0.073090
    136          1           0        8.327474    2.918778    2.734851
    137          1           0        9.320530    1.667903    3.404442
    138          1           0        7.906613    2.198486    4.345772
    139          1           0        9.328292    0.011001    4.897763
    140          1           0        8.688223   -1.286072    6.061636
    141          1           0        7.756177    0.182158    5.650543
    142          1           0        5.454137   -4.962912    1.300904
    143          1           0        4.895903   -5.191665   -1.613343
    144          1           0        7.333984   -5.981267    0.553742
    145          1           0        7.748539   -4.439084   -0.274428
    146          1           0        6.904719   -5.634892   -1.119205
    147          1           0        3.778675   -6.600646    0.158190
    148          1           0        2.695258   -5.926284   -1.044480
    149          1           0        3.183462   -5.270768    1.768718
    150          1           0        1.592190   -5.449429    0.943652
    151          1           0        2.585734   -3.932396    0.783050
    152          1           0        0.367200   -1.993327   -4.626380
    153          1           0        1.446076   -3.333990   -4.121605
    154          1           0        2.028707   -2.158398   -5.366898
    155          1           0        2.834392    2.813087   -4.397480
    156          1           0       -0.007702    6.053223   -4.480461
    157          1           0        0.981047    6.435263   -2.931153
    158          1           0       -0.464627    5.397145   -2.998626
 ---------------------------------------------------------------------

 SCF Done:  E(RCAM-B3LYP) =  -4069.81288643     A.U. after   19 cycles

 Excitation energies and oscillator strengths:

 Excited State   1:      Singlet-A      1.6457 eV  753.38 nm  f=0.1031  <S**2>=0.000
     309 -> 315        0.12429
     310 -> 316        0.10970
     311 -> 313        0.51334
     312 -> 314        0.45777
 This state for optimization and/or second-order correction.
 Total Energy, E(TD-HF/TD-DFT) =  -4069.75240757
 Copying the excited state density for this state as the 1-particle RhoCI density.

 Excited State   2:      Singlet-A      1.7039 eV  727.66 nm  f=0.6233  <S**2>=0.000
     309 -> 315       -0.12018
     310 -> 316        0.13480
     311 -> 313       -0.45536
     312 -> 314        0.51069

 Excited State   3:      Singlet-A      2.1796 eV  568.85 nm  f=0.0118  <S**2>=0.000
     309 -> 313        0.54990
     310 -> 314       -0.33801
     311 -> 315       -0.22825
     312 -> 316        0.13862

 Excited State   4:      Singlet-A      2.1956 eV  564.70 nm  f=0.1613  <S**2>=0.000
     309 -> 313        0.33379
     310 -> 314        0.54480
     311 -> 315       -0.14676
     312 -> 316       -0.23884

 Excited State   5:      Singlet-A      2.3269 eV  532.82 nm  f=0.0000  <S**2>=0.000
     312 -> 313        0.70652

 The electronic state is 1-A.
 Alpha  occ. eigenvalues --  -46.87557 -46.87260 -19.26472 -19.25925 -19.19254
 Alpha  occ. eigenvalues --  -19.18613 -19.18610 -19.18366 -19.18116 -19.17729
 Alpha  occ. eigenvalues --  -14.42396 -14.41915 -14.41267 -14.40962 -14.39252
 Alpha  occ. eigenvalues --  -14.38864 -14.38516 -14.38076 -10.39166 -10.38669
 Alpha  occ. eigenvalues --  -10.35288 -10.34994 -10.34287 -10.33951 -10.31955
 Alpha  occ. eigenvalues --  -10.31401 -10.31236 -10.30930 -10.30892 -10.30360
 Alpha  occ. eigenvalues --  -10.30316 -10.30288 -10.30054 -10.30035 -10.30027
 Alpha  occ. eigenvalues --  -10.29816 -10.29728 -10.29495 -10.29333 -10.29324
 Alpha  occ. eigenvalues --  -10.29146 -10.28728 -10.28633 -10.28577 -10.28331
 Alpha  occ. eigenvalues --  -10.28209 -10.28142 -10.28062 -10.27937 -10.27838
 Alpha  occ. eigenvalues --  -10.27605 -10.27576 -10.27407 -10.27407 -10.27382
 Alpha  occ. eigenvalues --  -10.27353 -10.27286 -10.27282 -10.27197 -10.27169
 Alpha  occ. eigenvalues --  -10.27133 -10.27077 -10.27069 -10.26903 -10.26781
 Alpha  occ. eigenvalues --  -10.26719 -10.26554 -10.26288 -10.26030 -10.26003
 Alpha  occ. eigenvalues --  -10.25973 -10.25949 -10.25888 -10.25828 -10.25811
 Alpha  occ. eigenvalues --  -10.25802 -10.25544 -10.25453 -10.25320 -10.25152
 Alpha  occ. eigenvalues --  -10.24819 -10.24607 -10.24580 -10.24514 -10.24340
 Alpha  occ. eigenvalues --  -10.24322  -3.16305  -3.15999  -1.91186  -1.90880
 Alpha  occ. eigenvalues --   -1.90776  -1.90613  -1.90468  -1.90310  -1.16758
 Alpha  occ. eigenvalues --   -1.16262  -1.08736  -1.08198  -1.07036  -1.06864
 Alpha  occ. eigenvalues --   -1.06777  -1.06238  -1.04403  -1.04051  -1.03571
 Alpha  occ. eigenvalues --   -1.03269  -1.02949  -1.02727  -1.02027  -1.01911
 Alpha  occ. eigenvalues --   -0.91940  -0.91488  -0.89401  -0.89130  -0.89065
 Alpha  occ. eigenvalues --   -0.88667  -0.88123  -0.87902  -0.87732  -0.87591
 Alpha  occ. eigenvalues --   -0.87403  -0.87154  -0.87021  -0.86724  -0.84915
 Alpha  occ. eigenvalues --   -0.84483  -0.83791  -0.83600  -0.82830  -0.82581
 Alpha  occ. eigenvalues --   -0.82491  -0.82171  -0.81608  -0.81169  -0.80402
 Alpha  occ. eigenvalues --   -0.80133  -0.78550  -0.78270  -0.77060  -0.76857
 Alpha  occ. eigenvalues --   -0.76780  -0.76501  -0.75805  -0.75474  -0.74735
 Alpha  occ. eigenvalues --   -0.74514  -0.72620  -0.72302  -0.71516  -0.71221
 Alpha  occ. eigenvalues --   -0.69658  -0.69578  -0.68752  -0.68391  -0.67537
 Alpha  occ. eigenvalues --   -0.67168  -0.67101  -0.66698  -0.65208  -0.64788
 Alpha  occ. eigenvalues --   -0.64718  -0.64600  -0.64401  -0.64188  -0.64117
 Alpha  occ. eigenvalues --   -0.63852  -0.62300  -0.61898  -0.60246  -0.59945
 Alpha  occ. eigenvalues --   -0.59714  -0.59289  -0.58926  -0.58526  -0.58376
 Alpha  occ. eigenvalues --   -0.58043  -0.57576  -0.57167  -0.57148  -0.56878
 Alpha  occ. eigenvalues --   -0.56149  -0.55901  -0.55832  -0.55566  -0.55408
 Alpha  occ. eigenvalues --   -0.55204  -0.55047  -0.54974  -0.54461  -0.54156
 Alpha  occ. eigenvalues --   -0.53828  -0.53380  -0.53154  -0.53096  -0.52856
 Alpha  occ. eigenvalues --   -0.52847  -0.52727  -0.52570  -0.52474  -0.52290
 Alpha  occ. eigenvalues --   -0.52240  -0.52114  -0.51845  -0.51576  -0.51488
 Alpha  occ. eigenvalues --   -0.51169  -0.51092  -0.50762  -0.50363  -0.50019
 Alpha  occ. eigenvalues --   -0.49890  -0.49781  -0.49621  -0.49416  -0.49406
 Alpha  occ. eigenvalues --   -0.49156  -0.49074  -0.49036  -0.48741  -0.48637
 Alpha  occ. eigenvalues --   -0.48538  -0.48342  -0.48252  -0.48176  -0.48068
 Alpha  occ. eigenvalues --   -0.47968  -0.47530  -0.47234  -0.47043  -0.46820
 Alpha  occ. eigenvalues --   -0.46631  -0.46476  -0.46359  -0.46205  -0.46072
 Alpha  occ. eigenvalues --   -0.46030  -0.45887  -0.45810  -0.45744  -0.45415
 Alpha  occ. eigenvalues --   -0.45134  -0.44823  -0.44491  -0.44394  -0.44158
 Alpha  occ. eigenvalues --   -0.44103  -0.44043  -0.44000  -0.43871  -0.43722
 Alpha  occ. eigenvalues --   -0.43644  -0.43575  -0.43540  -0.43318  -0.43085
 Alpha  occ. eigenvalues --   -0.42975  -0.42916  -0.42859  -0.42592  -0.42454
 Alpha  occ. eigenvalues --   -0.42318  -0.42307  -0.41875  -0.41638  -0.41616
 Alpha  occ. eigenvalues --   -0.41373  -0.41253  -0.41068  -0.40923  -0.40691
 Alpha  occ. eigenvalues --   -0.40627  -0.40597  -0.40441  -0.40403  -0.40344
 Alpha  occ. eigenvalues --   -0.40176  -0.40115  -0.39657  -0.39334  -0.39108
 Alpha  occ. eigenvalues --   -0.38251  -0.38083  -0.37568  -0.37259  -0.37178
 Alpha  occ. eigenvalues --   -0.37117  -0.36894  -0.36823  -0.36748  -0.36322
 Alpha  occ. eigenvalues --   -0.36155  -0.35770  -0.34178  -0.33913  -0.33790
 Alpha  occ. eigenvalues --   -0.33342  -0.33095  -0.32692  -0.31173  -0.30899
 Alpha  occ. eigenvalues --   -0.30891  -0.30548  -0.30026  -0.29594  -0.29249
 Alpha  occ. eigenvalues --   -0.29148  -0.28932  -0.28818  -0.23948  -0.23573
 Alpha  occ. eigenvalues --   -0.21029  -0.20622
 Alpha virt. eigenvalues --   -0.08713  -0.08263  -0.01587  -0.01259   0.00053
 Alpha virt. eigenvalues --    0.00448   0.02230   0.02649   0.03211   0.04070
 Alpha virt. eigenvalues --    0.04809   0.05092   0.05195   0.05516   0.06155

 Mulliken charges:
               1
     1  Mg   0.843744
     2  C   -0.001470
     3  C   -0.089262
     4  C   -0.047730
     5  C   -0.065091
     6  N   -0.256758
     7  C   -0.050625
     8  C   -0.015645
     9  C   -0.088213
    10  C    0.049493
    11  C    0.105094
    12  C    0.053224
    13  C   -0.070412
    14  H    0.030870
    15  N   -0.433118
    16  C    0.172295
    17  C   -0.172369
    18  C   -0.004626
    19  C    0.149258
    20  C    0.109597
    21  C    0.010634
    22  O   -0.252646
    23  C    0.060214
    24  N   -0.341143
    25  C    0.041703
    26  C   -0.028073
    27  C   -0.024037
    28  C    0.074147
    29  C    0.076610
    30  C    0.038902
    31  C   -0.013285
    32  N   -0.310024
    33  C    0.079776
    34  C   -0.171019
    35  C    0.007465
    36  C    0.082836
    37  C    0.127597
    38  C    0.045403
    39  O   -0.190770
    40  C   -0.005579
    41  C    0.212370
    42  O   -0.255923
    43  O   -0.305047
    44  C    0.158721
    45  H   -0.018335
    46  H   -0.018736
    47  H   -0.043225
    48  H   -0.001095
    49  H   -0.003738
    50  H    0.024643
    51  H    0.015984
    52  H    0.015462
    53  H    0.021627
    54  H    0.046398
    55  H    0.016153
    56  H    0.015824
    57  H    0.005571
    58  H    0.024107
    59  H    0.049043
    60  H    0.037045
    61  H    0.033174
    62  H    0.038301
    63  H    0.014562
    64  H    0.008739
    65  H    0.021865
    66  H    0.012762
    67  H    0.004129
    68  H    0.004477
    69  H    0.003971
    70  H    0.008651
    71  H    0.021820
    72  H    0.031808
    73  H    0.046292
    74  H    0.008105
    75  H    0.044870
    76  H    0.034061
    77  H    0.041384
    78  H    0.045984
    79  H    0.052583
    80  Mg   0.840484
    81  C   -0.016347
    82  C   -0.087408
    83  C   -0.045345
    84  C   -0.064821
    85  N   -0.254783
    86  C   -0.048972
    87  C   -0.015871
    88  C   -0.090742
    89  C    0.046777
    90  C    0.114469
    91  C    0.062336
    92  C   -0.077436
    93  H    0.033705
    94  N   -0.423489
    95  C    0.164132
    96  C   -0.174179
    97  C   -0.007246
    98  C    0.152660
    99  C    0.099400
   100  C    0.016136
   101  O   -0.253209
   102  C    0.060842
   103  N   -0.350102
   104  C    0.037781
   105  C   -0.019989
   106  C   -0.034200
   107  C    0.088532
   108  C    0.073759
   109  C    0.034148
   110  C   -0.010714
   111  N   -0.323811
   112  C    0.077731
   113  C   -0.162800
   114  C    0.000350
   115  C    0.096505
   116  C    0.131440
   117  C    0.042170
   118  O   -0.193287
   119  C    0.001075
   120  C    0.209755
   121  O   -0.249731
   122  O   -0.305428
   123  C    0.152913
   124  H   -0.019795
   125  H   -0.015573
   126  H   -0.039522
   127  H   -0.001759
   128  H   -0.004020
   129  H    0.021933
   130  H    0.014384
   131  H    0.016048
   132  H    0.016241
   133  H    0.039358
   134  H    0.019624
   135  H    0.020038
   136  H    0.008796
   137  H    0.025893
   138  H    0.040981
   139  H    0.037949
   140  H    0.036425
   141  H    0.035081
   142  H    0.014499
   143  H    0.012315
   144  H    0.024958
   145  H    0.011420
   146  H    0.005587
   147  H    0.005430
   148  H    0.004568
   149  H    0.009877
   150  H    0.020699
   151  H    0.030608
   152  H    0.042874
   153  H    0.012491
   154  H    0.045702
   155  H    0.034433
   156  H    0.041781
   157  H    0.050743
   158  H    0.051390
 Sum of Mulliken charges =  -0.00000

 Dipole moment (field-independent basis, Debye):
    X=              1.7419    Y=              3.1697    Z=             -2.9224  Tot=              4.6499
 Quadrupole moment (field-independent basis, Debye-Ang):
   XX=           -473.8750   YY=           -464.3316   ZZ=           -537.1660
   XY=             17.4581   XZ=             12.6924   YZ=            -17.4558

 Normal termination of Gaussian 16 at Thu Sep  9 19:32:24 2021.
