 Gaussian 16, Revision A.03,
 Gaussian 16:  ES64L-G16RevA.03 25-Dec-2016

 -----------------------------------
 #p cam-b3lyp/Def2SVP td=(nstates=5)
 -----------------------------------

 --------------------------------
 TDDFT excited states in gaussian
 --------------------------------
 Symbolic Z-matrix:
 Charge =  0 Multiplicity = 1

                         Standard orientation:
 ---------------------------------------------------------------------
 Center     Atomic      Atomic             Coordinates (Angstroms)
 Number     Number       Type             X           Y           Z
 ---------------------------------------------------------------------
      1         12           0        7.824800    0.670632    0.508917
      2          6           0        8.308190   -2.279112   -1.460234
      3          6           0        8.552559    2.479361   -2.291427
      4          6           0        7.850134    3.269489    2.326035
      5          6           0        8.255011   -1.323548    3.334484
      6          7           0        8.346100    0.062874   -1.554944
      7          6           0        8.439275   -1.098559   -2.194915
      8          6           0        8.614413   -0.942923   -3.735200
      9          6           0        9.236352    0.524701   -3.770811
     10          6           0        8.649236    1.068690   -2.480347
     11          6           0       10.757829    0.544393   -3.664878
     12          6           0        7.248477   -1.004957   -4.498156
     13          6           0        7.354970   -1.188433   -6.014846
     14          1           0        6.352015   -1.993995   -6.694920
     15          7           0        7.672710    2.578317    0.018555
     16          6           0        7.998601    3.136981   -1.171813
     17          6           0        7.705571    4.580258   -1.038529
     18          6           0        7.362261    4.845178    0.386269
     19          6           0        7.643749    3.563240    0.980219
     20          6           0        7.719232    5.532817   -2.194469
     21          6           0        6.870171    6.063736    1.101179
     22          8           0        6.856778    6.144847    2.377038
     23          6           0        6.481987    7.208497    0.257452
     24          7           0        8.240616    0.986142    2.530101
     25          6           0        8.121260    2.200552    3.077774
     26          6           0        8.191514    2.133781    4.574619
     27          6           0        8.140647    0.582766    4.950807
     28          6           0        8.131729   -0.007177    3.518970
     29          6           0        9.430520    2.774028    5.215681
     30          6           0        7.035416    0.134971    5.939930
     31          6           0        5.676484    0.286065    5.293733
     32          7           0        8.036886   -1.451752    0.910850
     33          6           0        8.227161   -2.058257    2.160898
     34          6           0        8.424711   -3.498852    1.916505
     35          6           0        8.351670   -3.628681    0.530989
     36          6           0        8.149176   -2.346464   -0.054849
     37          6           0        8.695741   -4.482825    2.907854
     38          6           0        8.422178   -4.548919   -0.592420
     39          8           0        8.485272   -5.773784   -0.707387
     40          6           0        8.518614   -3.695859   -1.933620
     41          6           0        7.524438   -4.266694   -2.907822
     42          8           0        6.297862   -4.179874   -2.694894
     43          8           0        8.157929   -4.609451   -4.039966
     44          6           0        7.223636   -5.155718   -5.060183
     45          1           0        8.992481    3.143275   -3.038173
     46          1           0        7.756301    4.124633    2.998615
     47          1           0        8.310643   -2.019606    4.173448
     48          1           0        9.307698   -1.652131   -4.187755
     49          1           0        8.874869    1.099292   -4.623394
     50          1           0       11.155260   -0.447939   -3.452166
     51          1           0       10.983791    1.228421   -2.846624
     52          1           0       11.202520    0.986763   -4.556694
     53          1           0        6.772218   -0.025167   -4.462790
     54          1           0        6.610590   -1.786736   -4.084337
     55          1           0        8.357951   -1.498599   -6.309354
     56          1           0        7.223014   -0.214739   -6.486766
     57          1           0        8.167474    5.082485   -3.079244
     58          1           0        8.396576    6.344617   -1.930091
     59          1           0        6.728477    5.935018   -2.406527
     60          1           0        7.336802    7.518491   -0.344000
     61          1           0        6.071805    7.956230    0.935313
     62          1           0        5.713879    6.884644   -0.445455
     63          1           0        7.340586    2.639638    5.028994
     64          1           0        9.066777    0.244101    5.415848
     65          1           0        9.194911    3.549160    5.945313
     66          1           0       10.058399    3.167035    4.416555
     67          1           0       10.109317    2.072035    5.699269
     68          1           0        7.041067    0.767882    6.826687
     69          1           0        7.145490   -0.898315    6.269256
     70          1           0        5.442098    1.336492    5.462547
     71          1           0        4.947977   -0.360252    5.784410
     72          1           0        5.729118    0.133131    4.215620
     73          1           0        8.074371   -5.343633    2.661119
     74          1           0        8.475597   -4.108888    3.907509
     75          1           0        9.761782   -4.642935    2.747300
     76          1           0        9.543247   -3.789917   -2.291953
     77          1           0        7.596546   -6.140361   -5.342407
     78          1           0        7.144127   -4.401286   -5.843073
     79          1           0        6.221774   -5.407523   -4.710607
     80         12           0       -7.992078   -0.769981    0.431550
     81          6           0       -8.020942    1.940051   -1.920889
     82          6           0       -7.334951    1.538145    2.855460
     83          6           0       -7.514469   -3.171418    2.449575
     84          6           0       -7.512766   -2.923498   -2.266291
     85          7           0       -7.734836    1.425458    0.353403
     86          6           0       -7.828918    2.354136   -0.586313
     87          6           0       -7.790802    3.812369   -0.055596
     88          6           0       -7.010620    3.546349    1.322602
     89          6           0       -7.408344    2.089591    1.551377
     90          6           0       -5.499020    3.612162    1.180856
     91          6           0       -9.225880    4.393266    0.199609
     92          6           0       -9.276958    5.906448    0.421935
     93          1           0      -10.428160    6.646353   -0.087714
     94          7           0       -7.983548   -0.797575    2.415917
     95          6           0       -7.717990    0.235276    3.242952
     96          6           0       -7.820822   -0.305103    4.607344
     97          6           0       -8.006642   -1.778786    4.515437
     98          6           0       -7.817121   -1.980162    3.092895
     99          6           0       -7.820725    0.566158    5.829776
    100          6           0       -8.293175   -2.834094    5.540347
    101          8           0       -8.178499   -4.082155    5.271961
    102          6           0       -8.621285   -2.361932    6.893447
    103          7           0       -7.363858   -2.733559    0.163107
    104          6           0       -7.291605   -3.584404    1.201739
    105          6           0       -7.084598   -5.004083    0.730508
    106          6           0       -7.275510   -4.962049   -0.856742
    107          6           0       -7.480682   -3.443113   -1.046810
    108          6           0       -5.727830   -5.624354    1.063411
    109          6           0       -8.325467   -5.931603   -1.465225
    110          6           0       -9.715609   -5.524472   -1.032649
    111          7           0       -7.982161   -0.587848   -1.721306
    112          6           0       -7.735425   -1.611010   -2.662763
    113          6           0       -7.721849   -0.979716   -3.998314
    114          6           0       -7.940481    0.381362   -3.737205
    115          6           0       -8.060312    0.587002   -2.336189
    116          6           0       -7.478538   -1.647428   -5.231638
    117          6           0       -8.086558    1.692461   -4.327422
    118          8           0       -8.162271    2.124033   -5.477100
    119          6           0       -8.019051    2.778565   -3.168888
    120          6           0       -9.157509    3.741298   -3.367843
    121          8           0      -10.335481    3.359818   -3.251783
    122          8           0       -8.668131    4.992171   -3.446559
    123          6           0       -9.760328    5.984221   -3.633001
    124          1           0       -6.904035    2.145334    3.652019
    125          1           0       -7.449263   -4.051616    3.093380
    126          1           0       -7.467232   -3.541510   -3.165547
    127          1           0       -7.231029    4.505595   -0.671915
    128          1           0       -7.393771    4.176150    2.121298
    129          1           0       -5.195004    3.710433    0.149325
    130          1           0       -5.123778    2.687488    1.599433
    131          1           0       -5.096063    4.412390    1.808222
    132          1           0       -9.583362    4.047428    1.178048
    133          1           0       -9.893538    4.122026   -0.594924
    134          1           0       -8.342352    6.398318    0.126090
    135          1           0       -9.352092    6.097149    1.495254
    136          1           0       -7.503353    1.589503    5.594337
    137          1           0       -7.037625    0.184950    6.494070
    138          1           0       -8.774847    0.546965    6.360775
    139          1           0       -7.799736   -1.760417    7.275152
    140          1           0       -8.881448   -3.257835    7.460504
    141          1           0       -9.493024   -1.700968    6.831550
    142          1           0       -7.829040   -5.665413    1.156612
    143          1           0       -6.347003   -5.222365   -1.385843
    144          1           0       -5.807598   -6.563268    1.643181
    145          1           0       -5.141289   -4.892806    1.603179
    146          1           0       -5.094991   -5.839344    0.204046
    147          1           0       -8.167732   -6.945323   -1.088884
    148          1           0       -8.290894   -5.981192   -2.548432
    149          1           0       -9.810719   -5.983366   -0.043987
    150          1           0      -10.461169   -5.914915   -1.722391
    151          1           0       -9.784277   -4.438495   -0.899989
    152          1           0       -8.203707   -1.268209   -5.939331
    153          1           0       -7.556421   -2.727032   -5.121374
    154          1           0       -6.451463   -1.327809   -5.427150
    155          1           0       -7.048822    3.271900   -3.238450
    156          1           0       -9.522924    6.554805   -4.536196
    157          1           0       -9.818250    6.546978   -2.682368
    158          1           0      -10.746052    5.604771   -3.875543
 ---------------------------------------------------------------------

 SCF Done:  E(RCAM-B3LYP) =  -4069.81184126     A.U. after   19 cycles

 Excitation energies and oscillator strengths:

 Excited State   1:      Singlet-A      1.6744 eV  740.48 nm  f=0.3046  <S**2>=0.000
     310 -> 316        0.16271
     311 -> 313        0.23776
     312 -> 314        0.64359
 This state for optimization and/or second-order correction.
 Total Energy, E(TD-HF/TD-DFT) =  -4069.75030877
 Copying the excited state density for this state as the 1-particle RhoCI density.

 Excited State   2:      Singlet-A      1.6803 eV  737.87 nm  f=0.4450  <S**2>=0.000
     309 -> 315        0.16466
     311 -> 313        0.64315
     312 -> 314       -0.23760

 Excited State   3:      Singlet-A      2.1858 eV  567.23 nm  f=0.0962  <S**2>=0.000
     310 -> 314        0.63971
     312 -> 316       -0.27164

 Excited State   4:      Singlet-A      2.1924 eV  565.51 nm  f=0.1028  <S**2>=0.000
     309 -> 313        0.63781
     311 -> 315       -0.27689

 Excited State   5:      Singlet-A      2.7659 eV  448.26 nm  f=0.0000  <S**2>=0.000
     312 -> 313        0.70710

 The electronic state is 1-A.
 Alpha  occ. eigenvalues --  -46.87836 -46.87592 -19.26327 -19.26304 -19.19131
 Alpha  occ. eigenvalues --  -19.19044 -19.18868 -19.18649 -19.18202 -19.18004
 Alpha  occ. eigenvalues --  -14.42486 -14.42432 -14.41491 -14.41286 -14.39443
 Alpha  occ. eigenvalues --  -14.39285 -14.38625 -14.38534 -10.39104 -10.39059
 Alpha  occ. eigenvalues --  -10.35502 -10.35326 -10.34421 -10.34182 -10.31744
 Alpha  occ. eigenvalues --  -10.31693 -10.31437 -10.31248 -10.30961 -10.30943
 Alpha  occ. eigenvalues --  -10.30606 -10.30549 -10.30331 -10.30299 -10.30251
 Alpha  occ. eigenvalues --  -10.30063 -10.29964 -10.29819 -10.29670 -10.29367
 Alpha  occ. eigenvalues --  -10.29338 -10.29294 -10.28770 -10.28670 -10.28625
 Alpha  occ. eigenvalues --  -10.28539 -10.28402 -10.28342 -10.28138 -10.28085
 Alpha  occ. eigenvalues --  -10.27938 -10.27830 -10.27762 -10.27625 -10.27603
 Alpha  occ. eigenvalues --  -10.27554 -10.27514 -10.27503 -10.27439 -10.27422
 Alpha  occ. eigenvalues --  -10.27421 -10.27406 -10.27402 -10.27276 -10.27187
 Alpha  occ. eigenvalues --  -10.27007 -10.26717 -10.26653 -10.26467 -10.26355
 Alpha  occ. eigenvalues --  -10.26254 -10.26247 -10.26060 -10.26050 -10.25965
 Alpha  occ. eigenvalues --  -10.25878 -10.25862 -10.25794 -10.25487 -10.25264
 Alpha  occ. eigenvalues --  -10.24869 -10.24830 -10.24812 -10.24761 -10.24655
 Alpha  occ. eigenvalues --  -10.24618  -3.16579  -3.16342  -1.91460  -1.91224
 Alpha  occ. eigenvalues --   -1.91047  -1.90889  -1.90813  -1.90650  -1.16654
 Alpha  occ. eigenvalues --   -1.16619  -1.08659  -1.08614  -1.07271  -1.06916
 Alpha  occ. eigenvalues --   -1.06900  -1.06666  -1.04616  -1.04431  -1.03800
 Alpha  occ. eigenvalues --   -1.03595  -1.03273  -1.02968  -1.02450  -1.02043
 Alpha  occ. eigenvalues --   -0.92007  -0.91928  -0.89567  -0.89419  -0.89211
 Alpha  occ. eigenvalues --   -0.89096  -0.88335  -0.88136  -0.87906  -0.87733
 Alpha  occ. eigenvalues --   -0.87707  -0.87619  -0.87316  -0.87057  -0.85009
 Alpha  occ. eigenvalues --   -0.84943  -0.83987  -0.83794  -0.83016  -0.82864
 Alpha  occ. eigenvalues --   -0.82681  -0.82596  -0.81615  -0.81550  -0.80631
 Alpha  occ. eigenvalues --   -0.80388  -0.78836  -0.78573  -0.77256  -0.77083
 Alpha  occ. eigenvalues --   -0.76963  -0.76839  -0.75951  -0.75786  -0.74942
 Alpha  occ. eigenvalues --   -0.74719  -0.72812  -0.72633  -0.71708  -0.71511
 Alpha  occ. eigenvalues --   -0.69962  -0.69674  -0.68903  -0.68771  -0.67680
 Alpha  occ. eigenvalues --   -0.67539  -0.67247  -0.67148  -0.65314  -0.65218
 Alpha  occ. eigenvalues --   -0.64889  -0.64708  -0.64656  -0.64597  -0.64315
 Alpha  occ. eigenvalues --   -0.64127  -0.62328  -0.62232  -0.60486  -0.60271
 Alpha  occ. eigenvalues --   -0.59832  -0.59740  -0.59025  -0.58927  -0.58541
 Alpha  occ. eigenvalues --   -0.58363  -0.57615  -0.57509  -0.57350  -0.57168
 Alpha  occ. eigenvalues --   -0.56346  -0.56145  -0.56003  -0.55844  -0.55560
 Alpha  occ. eigenvalues --   -0.55399  -0.55382  -0.55178  -0.54562  -0.54424
 Alpha  occ. eigenvalues --   -0.53919  -0.53859  -0.53340  -0.53255  -0.53164
 Alpha  occ. eigenvalues --   -0.53087  -0.52949  -0.52849  -0.52793  -0.52609
 Alpha  occ. eigenvalues --   -0.52494  -0.52323  -0.51950  -0.51827  -0.51645
 Alpha  occ. eigenvalues --   -0.51607  -0.51232  -0.51144  -0.50617  -0.50410
 Alpha  occ. eigenvalues --   -0.50080  -0.49959  -0.49917  -0.49784  -0.49548
 Alpha  occ. eigenvalues --   -0.49429  -0.49249  -0.49148  -0.49122  -0.49050
 Alpha  occ. eigenvalues --   -0.48624  -0.48508  -0.48506  -0.48485  -0.48298
 Alpha  occ. eigenvalues --   -0.48276  -0.47731  -0.47534  -0.47335  -0.47050
 Alpha  occ. eigenvalues --   -0.46835  -0.46643  -0.46581  -0.46498  -0.46398
 Alpha  occ. eigenvalues --   -0.46204  -0.46201  -0.46016  -0.45852  -0.45770
 Alpha  occ. eigenvalues --   -0.45248  -0.45122  -0.44611  -0.44546  -0.44460
 Alpha  occ. eigenvalues --   -0.44418  -0.44188  -0.44116  -0.44070  -0.44054
 Alpha  occ. eigenvalues --   -0.44011  -0.43884  -0.43526  -0.43505  -0.43420
 Alpha  occ. eigenvalues --   -0.43324  -0.43063  -0.42889  -0.42840  -0.42737
 Alpha  occ. eigenvalues --   -0.42694  -0.42476  -0.42052  -0.41898  -0.41740
 Alpha  occ. eigenvalues --   -0.41610  -0.41561  -0.41400  -0.41176  -0.40922
 Alpha  occ. eigenvalues --   -0.40903  -0.40868  -0.40663  -0.40638  -0.40615
 Alpha  occ. eigenvalues --   -0.40415  -0.40253  -0.40180  -0.39498  -0.39343
 Alpha  occ. eigenvalues --   -0.38513  -0.38268  -0.37770  -0.37604  -0.37364
 Alpha  occ. eigenvalues --   -0.37291  -0.37192  -0.37142  -0.36744  -0.36730
 Alpha  occ. eigenvalues --   -0.36228  -0.36150  -0.34324  -0.34188  -0.33825
 Alpha  occ. eigenvalues --   -0.33797  -0.33224  -0.33109  -0.31398  -0.31207
 Alpha  occ. eigenvalues --   -0.31074  -0.30907  -0.30061  -0.29910  -0.29490
 Alpha  occ. eigenvalues --   -0.29359  -0.29263  -0.29150  -0.24118  -0.23969
 Alpha  occ. eigenvalues --   -0.21166  -0.21050
 Alpha virt. eigenvalues --   -0.08813  -0.08727  -0.01791  -0.01614  -0.00099
 Alpha virt. eigenvalues --    0.00033   0.02163   0.02266   0.03074   0.03290
 Alpha virt. eigenvalues --    0.04688   0.04792   0.05073   0.05199   0.06161

 Mulliken charges:
               1
     1  Mg   0.838592
     2  C   -0.002928
     3  C   -0.093932
     4  C   -0.046039
     5  C   -0.064015
     6  N   -0.256786
     7  C   -0.052394
     8  C   -0.014004
     9  C   -0.087037
    10  C    0.046317
    11  C    0.104784
    12  C    0.053410
    13  C   -0.071963
    14  H    0.036422
    15  N   -0.433127
    16  C    0.168350
    17  C   -0.177076
    18  C   -0.004131
    19  C    0.148680
    20  C    0.110123
    21  C    0.012096
    22  O   -0.249938
    23  C    0.062541
    24  N   -0.341109
    25  C    0.041256
    26  C   -0.028138
    27  C   -0.023966
    28  C    0.074798
    29  C    0.076178
    30  C    0.035172
    31  C   -0.004467
    32  N   -0.310478
    33  C    0.080393
    34  C   -0.169701
    35  C    0.008401
    36  C    0.082977
    37  C    0.127313
    38  C    0.046136
    39  O   -0.188325
    40  C   -0.005344
    41  C    0.212942
    42  O   -0.257165
    43  O   -0.304768
    44  C    0.157682
    45  H   -0.017443
    46  H   -0.017038
    47  H   -0.041508
    48  H    0.001024
    49  H   -0.003829
    50  H    0.025494
    51  H    0.016393
    52  H    0.016817
    53  H    0.011285
    54  H    0.044074
    55  H    0.017889
    56  H    0.018160
    57  H    0.006093
    58  H    0.026848
    59  H    0.039604
    60  H    0.037554
    61  H    0.035328
    62  H    0.031450
    63  H    0.016232
    64  H    0.009537
    65  H    0.023044
    66  H    0.012660
    67  H    0.004816
    68  H    0.006202
    69  H    0.004857
    70  H    0.008388
    71  H    0.018013
    72  H    0.029094
    73  H    0.047624
    74  H    0.009081
    75  H    0.046086
    76  H    0.035256
    77  H    0.042999
    78  H    0.046556
    79  H    0.053627
    80  Mg   0.838022
    81  C   -0.016936
    82  C   -0.087835
    83  C   -0.045362
    84  C   -0.064547
    85  N   -0.254591
    86  C   -0.049857
    87  C   -0.015103
    88  C   -0.090493
    89  C    0.045791
    90  C    0.114346
    91  C    0.062562
    92  C   -0.077789
    93  H    0.034633
    94  N   -0.423552
    95  C    0.163009
    96  C   -0.174566
    97  C   -0.007724
    98  C    0.152188
    99  C    0.099352
   100  C    0.015603
   101  O   -0.253006
   102  C    0.061196
   103  N   -0.350010
   104  C    0.037742
   105  C   -0.020021
   106  C   -0.034819
   107  C    0.088897
   108  C    0.073350
   109  C    0.034709
   110  C   -0.007657
   111  N   -0.324079
   112  C    0.078411
   113  C   -0.163114
   114  C    0.002095
   115  C    0.096225
   116  C    0.131508
   117  C    0.042256
   118  O   -0.188363
   119  C    0.000937
   120  C    0.211205
   121  O   -0.251030
   122  O   -0.305702
   123  C    0.152090
   124  H   -0.019632
   125  H   -0.015347
   126  H   -0.040360
   127  H   -0.000908
   128  H   -0.004429
   129  H    0.022269
   130  H    0.014821
   131  H    0.016281
   132  H    0.013938
   133  H    0.037594
   134  H    0.020650
   135  H    0.019608
   136  H    0.008736
   137  H    0.026232
   138  H    0.039671
   139  H    0.038268
   140  H    0.036373
   141  H    0.033774
   142  H    0.014291
   143  H    0.012981
   144  H    0.025254
   145  H    0.012067
   146  H    0.006568
   147  H    0.006468
   148  H    0.003588
   149  H    0.010926
   150  H    0.017742
   151  H    0.029934
   152  H    0.045722
   153  H    0.008599
   154  H    0.046950
   155  H    0.034763
   156  H    0.043617
   157  H    0.049480
   158  H    0.053544
 Sum of Mulliken charges =  -0.00000

 Dipole moment (field-independent basis, Debye):
    X=              3.5931    Y=              5.0619    Z=              1.3823  Tot=              6.3595
 Quadrupole moment (field-independent basis, Debye-Ang):
   XX=           -519.6459   YY=           -512.9853   ZZ=           -485.6064
   XY=             15.1852   XZ=            -54.4313   YZ=             12.2343

 Normal termination of Gaussian 16 at Sun Sep 12 01:32:55 2021.
