 Gaussian 16, Revision A.03,
 Gaussian 16:  ES64L-G16RevA.03 25-Dec-2016

 -----------------------------------
 #p cam-b3lyp/Def2SVP td=(nstates=5)
 -----------------------------------

 --------------------------------
 TDDFT excited states in gaussian
 --------------------------------
 Symbolic Z-matrix:
 Charge =  0 Multiplicity = 1

                         Standard orientation:
 ---------------------------------------------------------------------
 Center     Atomic      Atomic             Coordinates (Angstroms)
 Number     Number       Type             X           Y           Z
 ---------------------------------------------------------------------
      1         12           0        8.080438    0.392184    0.056700
      2          6           0        8.128165   -3.161589   -0.368306
      3          6           0        8.914875    0.648522   -3.241947
      4          6           0        8.489090    3.503554    0.513871
      5          6           0        8.373134   -0.161979    3.484949
      6          7           0        8.445603   -1.135280   -1.503477
      7          6           0        8.373165   -2.461772   -1.551892
      8          6           0        8.507233   -3.035601   -2.994154
      9          6           0        9.300410   -1.830037   -3.672006
     10          6           0        8.832875   -0.697101   -2.775463
     11          6           0       10.816005   -1.955598   -3.554914
     12          6           0        7.115849   -3.261193   -3.675984
     13          6           0        7.141682   -4.116096   -4.946349
     14          1           0        6.023512   -5.008284   -5.212892
     15          7           0        8.141827    1.880605   -1.240869
     16          6           0        8.487494    1.801409   -2.548358
     17          6           0        8.376560    3.175562   -3.083221
     18          6           0        8.122188    4.091064   -1.936379
     19          6           0        8.268816    3.186833   -0.824514
     20          6           0        8.461495    3.499594   -4.543200
     21          6           0        7.808694    5.551615   -1.854867
     22          8           0        7.853675    6.196399   -0.751779
     23          6           0        7.530147    6.235908   -3.130483
     24          7           0        8.607832    1.524510    1.729222
     25          6           0        8.657208    2.859852    1.670863
     26          6           0        8.775655    3.462192    3.039474
     27          6           0        8.551777    2.263825    4.070759
     28          6           0        8.417163    1.101500    3.056289
     29          6           0       10.106481    4.161007    3.350234
     30          6           0        7.438841    2.448608    5.132666
     31          6           0        6.084632    2.463112    4.459611
     32          7           0        8.049220   -1.333425    1.372886
     33          6           0        8.212027   -1.334464    2.765785
     34          6           0        8.224358   -2.744044    3.198220
     35          6           0        8.083581   -3.470245    2.017263
     36          6           0        8.015652   -2.572021    0.914144
     37          6           0        8.411762   -3.205220    4.531123
     38          6           0        7.999491   -4.796829    1.428231
     39          8           0        7.909474   -5.940632    1.876679
     40          6           0        8.147456   -4.654204   -0.150880
     41          6           0        7.055232   -5.471380   -0.785370
     42          8           0        5.857155   -5.145651   -0.659359
     43          8           0        7.599133   -6.361070   -1.629861
     44          6           0        6.567534   -7.184594   -2.315256
     45          1           0        9.403234    0.846879   -4.198033
     46          1           0        8.525046    4.573557    0.728900
     47          1           0        8.375937   -0.409526    4.548042
     48          1           0        9.091903   -3.952908   -3.065808
     49          1           0        8.979009   -1.657848   -4.699028
     50          1           0       11.098209   -2.788648   -2.911247
     51          1           0       11.153997   -1.011887   -3.126354
     52          1           0       11.276775   -2.018939   -4.541046
     53          1           0        6.763356   -2.318298   -4.094024
     54          1           0        6.404216   -3.688200   -2.968475
     55          1           0        8.087842   -4.648106   -5.049576
     56          1           0        7.110709   -3.448841   -5.807749
     57          1           0        8.818018    2.648614   -5.122226
     58          1           0        9.241653    4.251920   -4.657514
     59          1           0        7.519364    3.884730   -4.933573
     60          1           0        8.392734    6.134055   -3.789360
     61          1           0        7.239510    7.252776   -2.869025
     62          1           0        6.702357    5.730579   -3.628837
     63          1           0        8.010074    4.220010    3.200797
     64          1           0        9.447101    2.056309    4.657279
     65          1           0        9.994290    5.203465    3.649231
     66          1           0       10.746506    4.072540    2.472833
     67          1           0       10.713203    3.671082    4.111337
     68          1           0        7.554716    3.405311    5.640837
     69          1           0        7.435482    1.667482    5.892984
     70          1           0        5.985674    3.498028    4.134050
     71          1           0        5.302424    2.201793    5.173106
     72          1           0        6.077392    1.838374    3.566227
     73          1           0        7.681864   -4.000041    4.684348
     74          1           0        8.276611   -2.398985    5.251763
     75          1           0        9.443719   -3.552291    4.481498
     76          1           0        9.138822   -5.026173   -0.407692
     77          1           0        6.807551   -8.229388   -2.117689
     78          1           0        6.550240   -6.857270   -3.354950
     79          1           0        5.556564   -7.125604   -1.910535
     80         12           0       -7.788919    1.056174    0.305227
     81          6           0       -9.287883   -2.202704    0.196334
     82          6           0       -8.525040    1.341770   -3.013081
     83          6           0       -6.082658    3.730859    0.258618
     84          6           0       -6.186850    0.068888    3.238544
     85          7           0       -8.780774   -0.320009   -1.114145
     86          6           0       -9.363886   -1.506123   -1.027772
     87          6           0      -10.137359   -1.936950   -2.302794
     88          6           0       -9.348431   -1.040957   -3.376886
     89          6           0       -8.881074    0.086425   -2.458602
     90          6           0       -8.121181   -1.729960   -3.950013
     91          6           0      -11.657045   -1.551648   -2.238803
     92          6           0      -12.533220   -2.211276   -3.306015
     93          1           0      -13.898268   -2.588680   -2.950093
     94          7           0       -7.779544    2.550932   -1.000215
     95          6           0       -8.131076    2.496571   -2.302042
     96          6           0       -7.928709    3.854497   -2.830463
     97          6           0       -7.272961    4.675154   -1.776306
     98          6           0       -6.994672    3.656271   -0.784083
     99          6           0       -8.415676    4.281627   -4.184658
    100          6           0       -6.938667    6.133138   -1.682847
    101          8           0       -6.154861    6.587465   -0.776174
    102          6           0       -7.481163    6.999176   -2.739812
    103          7           0       -6.182743    1.724003    1.443883
    104          6           0       -5.661303    2.948492    1.252440
    105          6           0       -4.704690    3.313650    2.362366
    106          6           0       -4.876918    2.173428    3.470442
    107          6           0       -5.882275    1.258208    2.737628
    108          6           0       -3.232584    3.417954    1.964364
    109          6           0       -5.216768    2.639276    4.912717
    110          6           0       -6.604537    3.237800    4.948218
    111          7           0       -7.866761   -0.657343    1.618952
    112          6           0       -7.091941   -0.879047    2.778509
    113          6           0       -7.419041   -2.233888    3.268239
    114          6           0       -8.351766   -2.719120    2.339226
    115          6           0       -8.574048   -1.743880    1.329767
    116          6           0       -6.840632   -2.870696    4.402273
    117          6           0       -9.190867   -3.838702    1.977098
    118          8           0       -9.483932   -4.910976    2.504424
    119          6           0       -9.739265   -3.603526    0.503891
    120          6           0      -11.218207   -3.877751    0.509500
    121          8           0      -11.993056   -3.152415    1.157666
    122          8           0      -11.496788   -4.811289   -0.418537
    123          6           0      -12.953307   -5.109243   -0.458637
    124          1           0       -8.504192    1.442352   -4.098592
    125          1           0       -5.548393    4.679299    0.350783
    126          1           0       -5.803124   -0.274595    4.201588
    127          1           0      -10.046999   -2.986472   -2.556014
    128          1           0      -10.019958   -0.657139   -4.140502
    129          1           0       -7.914572   -2.665288   -3.451411
    130          1           0       -7.302035   -1.037023   -3.808973
    131          1           0       -8.228732   -1.853372   -5.031461
    132          1           0      -11.771839   -0.498530   -2.526059
    133          1           0      -12.060377   -1.752554   -1.265360
    134          1           0      -12.021163   -3.044525   -3.802444
    135          1           0      -12.707831   -1.488670   -4.106878
    136          1           0       -8.711777    3.420111   -4.795811
    137          1           0       -7.556312    4.707497   -4.713811
    138          1           0       -9.205472    5.033907   -4.130287
    139          1           0       -7.128231    6.651801   -3.707914
    140          1           0       -7.209512    8.016660   -2.452025
    141          1           0       -8.572287    6.899298   -2.748252
    142          1           0       -4.965586    4.270010    2.798730
    143          1           0       -3.954821    1.587770    3.599163
    144          1           0       -2.786695    4.403736    2.195678
    145          1           0       -3.148468    3.201062    0.907762
    146          1           0       -2.580212    2.667155    2.406987
    147          1           0       -4.530046    3.428959    5.227327
    148          1           0       -5.153567    1.845228    5.649253
    149          1           0       -6.438084    4.266786    4.615692
    150          1           0       -7.008050    3.209827    5.958378
    151          1           0       -7.259901    2.755872    4.213438
    152          1           0       -7.650218   -3.348823    4.937494
    153          1           0       -6.312757   -2.157864    5.032346
    154          1           0       -6.157271   -3.566322    3.907919
    155          1           0       -9.199720   -4.281429   -0.158620
    156          1           0      -13.062883   -6.188114   -0.311328
    157          1           0      -13.317311   -4.692084   -1.416354
    158          1           0      -13.566366   -4.722439    0.346964
 ---------------------------------------------------------------------

 SCF Done:  E(RCAM-B3LYP) =  -4069.81173126     A.U. after   19 cycles

 Excitation energies and oscillator strengths:

 Excited State   1:      Singlet-A      1.6697 eV  742.53 nm  f=0.0177  <S**2>=0.000
     309 -> 315       -0.10278
     310 -> 316        0.13847
     311 -> 313       -0.40771
     312 -> 314        0.55215
 This state for optimization and/or second-order correction.
 Total Energy, E(TD-HF/TD-DFT) =  -4069.75036930
 Copying the excited state density for this state as the 1-particle RhoCI density.

 Excited State   2:      Singlet-A      1.6854 eV  735.65 nm  f=0.7389  <S**2>=0.000
     309 -> 315        0.14239
     310 -> 316        0.10460
     311 -> 313        0.55132
     312 -> 314        0.40718

 Excited State   3:      Singlet-A      2.1854 eV  567.32 nm  f=0.0725  <S**2>=0.000
     309 -> 313       -0.11808
     310 -> 314        0.63178
     312 -> 316       -0.26808

 Excited State   4:      Singlet-A      2.1930 eV  565.36 nm  f=0.1234  <S**2>=0.000
     309 -> 313        0.62981
     310 -> 314        0.11708
     311 -> 315       -0.27382

 Excited State   5:      Singlet-A      2.7710 eV  447.44 nm  f=0.0000  <S**2>=0.000
     312 -> 313        0.70706

 The electronic state is 1-A.
 Alpha  occ. eigenvalues --  -46.87812 -46.87587 -19.26293 -19.26290 -19.19099
 Alpha  occ. eigenvalues --  -19.19030 -19.18820 -19.18655 -19.18179 -19.17976
 Alpha  occ. eigenvalues --  -14.42465 -14.42426 -14.41465 -14.41283 -14.39417
 Alpha  occ. eigenvalues --  -14.39281 -14.38602 -14.38525 -10.39090 -10.39028
 Alpha  occ. eigenvalues --  -10.35453 -10.35334 -10.34399 -10.34154 -10.31703
 Alpha  occ. eigenvalues --  -10.31686 -10.31420 -10.31237 -10.30958 -10.30922
 Alpha  occ. eigenvalues --  -10.30585 -10.30521 -10.30322 -10.30286 -10.30222
 Alpha  occ. eigenvalues --  -10.30066 -10.29936 -10.29813 -10.29644 -10.29365
 Alpha  occ. eigenvalues --  -10.29329 -10.29268 -10.28764 -10.28660 -10.28611
 Alpha  occ. eigenvalues --  -10.28559 -10.28378 -10.28335 -10.28132 -10.28080
 Alpha  occ. eigenvalues --  -10.27927 -10.27805 -10.27742 -10.27600 -10.27596
 Alpha  occ. eigenvalues --  -10.27520 -10.27494 -10.27465 -10.27430 -10.27419
 Alpha  occ. eigenvalues --  -10.27417 -10.27412 -10.27397 -10.27287 -10.27169
 Alpha  occ. eigenvalues --  -10.26979 -10.26724 -10.26641 -10.26410 -10.26373
 Alpha  occ. eigenvalues --  -10.26248 -10.26212 -10.26058 -10.26035 -10.25964
 Alpha  occ. eigenvalues --  -10.25856 -10.25855 -10.25750 -10.25447 -10.25294
 Alpha  occ. eigenvalues --  -10.24845 -10.24801 -10.24797 -10.24726 -10.24660
 Alpha  occ. eigenvalues --  -10.24615  -3.16555  -3.16337  -1.91436  -1.91219
 Alpha  occ. eigenvalues --   -1.91023  -1.90865  -1.90808  -1.90645  -1.16642
 Alpha  occ. eigenvalues --   -1.16583  -1.08636  -1.08583  -1.07221  -1.06909
 Alpha  occ. eigenvalues --   -1.06883  -1.06652  -1.04595  -1.04425  -1.03775
 Alpha  occ. eigenvalues --   -1.03590  -1.03248  -1.02963  -1.02426  -1.02037
 Alpha  occ. eigenvalues --   -0.91985  -0.91915  -0.89538  -0.89417  -0.89204
 Alpha  occ. eigenvalues --   -0.89089  -0.88304  -0.88140  -0.87883  -0.87712
 Alpha  occ. eigenvalues --   -0.87688  -0.87613  -0.87284  -0.87060  -0.84997
 Alpha  occ. eigenvalues --   -0.84936  -0.83955  -0.83796  -0.82977  -0.82872
 Alpha  occ. eigenvalues --   -0.82662  -0.82591  -0.81597  -0.81529  -0.80609
 Alpha  occ. eigenvalues --   -0.80375  -0.78809  -0.78568  -0.77235  -0.77077
 Alpha  occ. eigenvalues --   -0.76949  -0.76830  -0.75936  -0.75773  -0.74913
 Alpha  occ. eigenvalues --   -0.74722  -0.72789  -0.72624  -0.71686  -0.71507
 Alpha  occ. eigenvalues --   -0.69930  -0.69679  -0.68887  -0.68764  -0.67653
 Alpha  occ. eigenvalues --   -0.67531  -0.67234  -0.67143  -0.65302  -0.65208
 Alpha  occ. eigenvalues --   -0.64868  -0.64698  -0.64635  -0.64586  -0.64287
 Alpha  occ. eigenvalues --   -0.64126  -0.62309  -0.62211  -0.60454  -0.60272
 Alpha  occ. eigenvalues --   -0.59819  -0.59731  -0.59001  -0.58919  -0.58517
 Alpha  occ. eigenvalues --   -0.58353  -0.57596  -0.57484  -0.57322  -0.57163
 Alpha  occ. eigenvalues --   -0.56322  -0.56133  -0.55989  -0.55824  -0.55531
 Alpha  occ. eigenvalues --   -0.55389  -0.55355  -0.55171  -0.54538  -0.54415
 Alpha  occ. eigenvalues --   -0.53910  -0.53851  -0.53311  -0.53234  -0.53158
 Alpha  occ. eigenvalues --   -0.53078  -0.52928  -0.52837  -0.52767  -0.52614
 Alpha  occ. eigenvalues --   -0.52462  -0.52325  -0.51927  -0.51795  -0.51629
 Alpha  occ. eigenvalues --   -0.51600  -0.51210  -0.51129  -0.50581  -0.50420
 Alpha  occ. eigenvalues --   -0.50050  -0.49929  -0.49916  -0.49791  -0.49526
 Alpha  occ. eigenvalues --   -0.49426  -0.49226  -0.49137  -0.49110  -0.49036
 Alpha  occ. eigenvalues --   -0.48605  -0.48490  -0.48474  -0.48454  -0.48294
 Alpha  occ. eigenvalues --   -0.48278  -0.47708  -0.47529  -0.47309  -0.47050
 Alpha  occ. eigenvalues --   -0.46813  -0.46637  -0.46570  -0.46492  -0.46374
 Alpha  occ. eigenvalues --   -0.46198  -0.46176  -0.46006  -0.45834  -0.45747
 Alpha  occ. eigenvalues --   -0.45217  -0.45128  -0.44590  -0.44521  -0.44446
 Alpha  occ. eigenvalues --   -0.44409  -0.44161  -0.44102  -0.44061  -0.44030
 Alpha  occ. eigenvalues --   -0.44008  -0.43877  -0.43507  -0.43486  -0.43401
 Alpha  occ. eigenvalues --   -0.43316  -0.43041  -0.42865  -0.42828  -0.42712
 Alpha  occ. eigenvalues --   -0.42672  -0.42479  -0.42029  -0.41894  -0.41717
 Alpha  occ. eigenvalues --   -0.41597  -0.41549  -0.41394  -0.41155  -0.40918
 Alpha  occ. eigenvalues --   -0.40886  -0.40832  -0.40664  -0.40636  -0.40589
 Alpha  occ. eigenvalues --   -0.40416  -0.40250  -0.40173  -0.39466  -0.39347
 Alpha  occ. eigenvalues --   -0.38487  -0.38272  -0.37765  -0.37595  -0.37337
 Alpha  occ. eigenvalues --   -0.37279  -0.37190  -0.37134  -0.36725  -0.36705
 Alpha  occ. eigenvalues --   -0.36207  -0.36144  -0.34300  -0.34180  -0.33798
 Alpha  occ. eigenvalues --   -0.33781  -0.33200  -0.33102  -0.31350  -0.31214
 Alpha  occ. eigenvalues --   -0.31049  -0.30901  -0.30038  -0.29880  -0.29461
 Alpha  occ. eigenvalues --   -0.29335  -0.29258  -0.29136  -0.24095  -0.23962
 Alpha  occ. eigenvalues --   -0.21142  -0.21044
 Alpha virt. eigenvalues --   -0.08787  -0.08720  -0.01764  -0.01610  -0.00068
 Alpha virt. eigenvalues --    0.00035   0.02188   0.02283   0.03099   0.03293
 Alpha virt. eigenvalues --    0.04702   0.04798   0.05088   0.05229   0.06159

 Mulliken charges:
               1
     1  Mg   0.838567
     2  C   -0.002954
     3  C   -0.094144
     4  C   -0.045839
     5  C   -0.063981
     6  N   -0.256766
     7  C   -0.052496
     8  C   -0.013993
     9  C   -0.086997
    10  C    0.046316
    11  C    0.104798
    12  C    0.053488
    13  C   -0.071764
    14  H    0.036044
    15  N   -0.433151
    16  C    0.168437
    17  C   -0.177138
    18  C   -0.003942
    19  C    0.148678
    20  C    0.110187
    21  C    0.012379
    22  O   -0.249503
    23  C    0.062436
    24  N   -0.341109
    25  C    0.041216
    26  C   -0.028233
    27  C   -0.023942
    28  C    0.074722
    29  C    0.076143
    30  C    0.035172
    31  C   -0.004498
    32  N   -0.310462
    33  C    0.080319
    34  C   -0.169789
    35  C    0.008410
    36  C    0.082906
    37  C    0.127326
    38  C    0.046101
    39  O   -0.188313
    40  C   -0.005351
    41  C    0.212940
    42  O   -0.257173
    43  O   -0.304791
    44  C    0.157653
    45  H   -0.017597
    46  H   -0.016759
    47  H   -0.041529
    48  H    0.000985
    49  H   -0.004088
    50  H    0.025520
    51  H    0.016481
    52  H    0.016660
    53  H    0.011120
    54  H    0.044109
    55  H    0.017938
    56  H    0.017862
    57  H    0.005814
    58  H    0.026875
    59  H    0.039554
    60  H    0.037286
    61  H    0.035874
    62  H    0.031543
    63  H    0.016569
    64  H    0.009530
    65  H    0.023293
    66  H    0.012596
    67  H    0.004786
    68  H    0.006427
    69  H    0.004703
    70  H    0.008879
    71  H    0.017665
    72  H    0.028952
    73  H    0.047588
    74  H    0.009035
    75  H    0.046088
    76  H    0.035200
    77  H    0.043070
    78  H    0.046322
    79  H    0.053746
    80  Mg   0.837947
    81  C   -0.016879
    82  C   -0.087941
    83  C   -0.045529
    84  C   -0.064445
    85  N   -0.254562
    86  C   -0.049731
    87  C   -0.015123
    88  C   -0.090514
    89  C    0.045797
    90  C    0.114410
    91  C    0.062572
    92  C   -0.077796
    93  H    0.034746
    94  N   -0.423458
    95  C    0.162892
    96  C   -0.174842
    97  C   -0.007933
    98  C    0.152080
    99  C    0.099479
   100  C    0.015428
   101  O   -0.253198
   102  C    0.061249
   103  N   -0.350019
   104  C    0.037577
   105  C   -0.019913
   106  C   -0.034894
   107  C    0.088955
   108  C    0.073498
   109  C    0.034704
   110  C   -0.007646
   111  N   -0.324183
   112  C    0.078483
   113  C   -0.162840
   114  C    0.002336
   115  C    0.096261
   116  C    0.131481
   117  C    0.042548
   118  O   -0.187732
   119  C    0.000855
   120  C    0.211241
   121  O   -0.251115
   122  O   -0.305594
   123  C    0.152069
   124  H   -0.019971
   125  H   -0.015588
   126  H   -0.040119
   127  H   -0.000646
   128  H   -0.004555
   129  H    0.022658
   130  H    0.014510
   131  H    0.015952
   132  H    0.013853
   133  H    0.037674
   134  H    0.020752
   135  H    0.019449
   136  H    0.008573
   137  H    0.025792
   138  H    0.039580
   139  H    0.038018
   140  H    0.036238
   141  H    0.033819
   142  H    0.014236
   143  H    0.013044
   144  H    0.025109
   145  H    0.011687
   146  H    0.006323
   147  H    0.006224
   148  H    0.003762
   149  H    0.010838
   150  H    0.017793
   151  H    0.030032
   152  H    0.045898
   153  H    0.008612
   154  H    0.047750
   155  H    0.035194
   156  H    0.043897
   157  H    0.049373
   158  H    0.053518
 Sum of Mulliken charges =  -0.00000

 Dipole moment (field-independent basis, Debye):
    X=              2.7196    Y=              3.0982    Z=             -7.8455  Tot=              8.8627
 Quadrupole moment (field-independent basis, Debye-Ang):
   XX=           -486.9867   YY=           -561.6092   ZZ=           -446.2652
   XY=             -6.1000   XZ=             27.8782   YZ=             23.4889

 Normal termination of Gaussian 16 at Sun Sep 12 06:28:49 2021.
