 Gaussian 16, Revision A.03,
 Gaussian 16:  ES64L-G16RevA.03 25-Dec-2016

 -----------------------------------
 #p cam-b3lyp/Def2SVP td=(nstates=5)
 -----------------------------------

 --------------------------------
 TDDFT excited states in gaussian
 --------------------------------
 Symbolic Z-matrix:
 Charge =  0 Multiplicity = 1

                         Standard orientation:
 ---------------------------------------------------------------------
 Center     Atomic      Atomic             Coordinates (Angstroms)
 Number     Number       Type             X           Y           Z
 ---------------------------------------------------------------------
      1         12           0       -3.944008   -0.397751    0.064293
      2          6           0       -3.807133    3.136276    0.615772
      3          6           0       -4.745121    0.289816   -3.180478
      4          6           0       -4.514831   -3.491325   -0.336431
      5          6           0       -4.255290   -0.775221    3.514841
      6          7           0       -4.210534    1.511073   -1.024743
      7          6           0       -4.070820    2.795734   -0.712815
      8          6           0       -4.156136    3.743802   -1.946210
      9          6           0       -4.999602    2.809040   -2.924363
     10          6           0       -4.601933    1.453364   -2.367652
     11          6           0       -6.508422    2.977134   -2.777026
     12          6           0       -2.745979    4.072261   -2.542283
     13          6           0       -2.711419    5.238522   -3.534249
     14          1           0       -1.546256    6.110009   -3.550185
     15          7           0       -4.062436   -1.475299   -1.587287
     16          6           0       -4.385781   -1.028157   -2.824542
     17          6           0       -4.336797   -2.210730   -3.710997
     18          6           0       -4.144488   -3.413816   -2.854436
     19          6           0       -4.260636   -2.836967   -1.539471
     20          6           0       -4.417960   -2.123694   -5.204177
     21          6           0       -3.905988   -4.856417   -3.170907
     22          8           0       -3.998412   -5.771807   -2.283161
     23          6           0       -3.644801   -5.184472   -4.584131
     24          7           0       -4.550491   -1.910481    1.368694
     25          6           0       -4.666160   -3.176027    0.951564
     26          6           0       -4.833444   -4.118464    2.106453
     27          6           0       -4.563696   -3.256369    3.423185
     28          6           0       -4.356944   -1.871981    2.760619
     29          6           0       -6.201853   -4.804885    2.217325
     30          6           0       -3.476079   -3.778714    4.395123
     31          6           0       -2.115240   -3.681528    3.742611
     32          7           0       -3.844036    0.904389    1.797925
     33          6           0       -4.025606    0.537831    3.139321
     34          6           0       -3.972938    1.776979    3.936695
     35          6           0       -3.779690    2.786677    2.995946
     36          6           0       -3.741951    2.217343    1.691060
     37          6           0       -4.155111    1.870301    5.344722
     38          6           0       -3.620947    4.216771    2.787403
     39          8           0       -3.479657    5.190729    3.528306
     40          6           0       -3.754303    4.513667    1.228591
     41          6           0       -2.613793    5.413721    0.838140
     42          8           0       -1.435449    5.004089    0.870887
     43          8           0       -3.100669    6.525453    0.265824
     44          6           0       -2.019688    7.448511   -0.171893
     45          1           0       -5.229726    0.382671   -4.154376
     46          1           0       -4.607491   -4.576266   -0.418631
     47          1           0       -4.260168   -0.824073    4.605273
     48          1           0       -4.692898    4.675567   -1.766977
     49          1           0       -4.673261    2.904004   -3.959836
     50          1           0       -6.757144    3.619012   -1.932011
     51          1           0       -6.899273    1.971712   -2.619374
     52          1           0       -6.951903    3.328274   -3.709122
     53          1           0       -2.435671    3.260197   -3.199795
     54          1           0       -2.023507    4.254717   -1.745998
     55          1           0       -3.628127    5.827204   -3.489408
     56          1           0       -2.702274    4.827924   -4.543964
     57          1           0       -4.723287   -1.130614   -5.531457
     58          1           0       -5.233332   -2.775505   -5.517259
     59          1           0       -3.491144   -2.437695   -5.684537
     60          1           0       -4.492088   -4.863714   -5.190569
     61          1           0       -3.409273   -6.247879   -4.607409
     62          1           0       -2.785911   -4.607219   -4.927695
     63          1           0       -4.109221   -4.930523    2.056585
     64          1           0       -5.455382   -3.168536    4.044357
     65          1           0       -6.146329   -5.893731    2.223348
     66          1           0       -6.824568   -4.449600    1.396782
     67          1           0       -6.793513   -4.507699    3.082793
     68          1           0       -3.646856   -4.829696    4.625813
     69          1           0       -3.443830   -3.233134    5.338284
     70          1           0       -2.064016   -4.593820    3.149373
     71          1           0       -1.330704   -3.663668    4.499840
     72          1           0       -2.064381   -2.840059    3.051360
     73          1           0       -3.388326    2.555083    5.706776
     74          1           0       -4.070540    0.893545    5.820535
     75          1           0       -5.167532    2.271172    5.391214
     76          1           0       -4.722105    4.992297    1.082323
     77          1           0       -2.209534    8.412206    0.300848
     78          1           0       -2.004670    7.413589   -1.261370
     79          1           0       -1.018590    7.229845    0.201372
     80         12           0        3.964062   -1.161550    0.085115
     81          6           0        4.104521    2.422139   -0.043483
     82          6           0        3.100867   -1.097091   -3.214180
     83          6           0        3.393255   -4.276873    0.275875
     84          6           0        3.709592   -0.888667    3.550156
     85          7           0        3.672926    0.508321   -1.335807
     86          6           0        3.814171    1.824408   -1.287614
     87          6           0        3.713359    2.532978   -2.665039
     88          6           0        2.845706    1.426988   -3.441470
     89          6           0        3.253244    0.191108   -2.641969
     90          6           0        1.346400    1.621883   -3.288361
     91          6           0        5.116823    2.737214   -3.336292
     92          6           0        5.125082    3.692753   -4.531546
     93          1           0        6.294815    4.542958   -4.734883
     94          7           0        3.820335   -2.530746   -1.344292
     95          6           0        3.480111   -2.327670   -2.634369
     96          6           0        3.499193   -3.654637   -3.269146
     97          6           0        3.717598   -4.677813   -2.210786
     98          6           0        3.629507   -3.851764   -1.023360
     99          6           0        3.399658   -3.847622   -4.754507
    100          6           0        3.952486   -6.157246   -2.258771
    101          8           0        3.879136   -6.885154   -1.206348
    102          6           0        4.178657   -6.742346   -3.588434
    103          7           0        3.391441   -2.396448    1.656577
    104          6           0        3.263797   -3.723506    1.481839
    105          6           0        3.115336   -4.436129    2.804911
    106          6           0        3.413562   -3.332440    3.923183
    107          6           0        3.603629   -2.097403    3.015464
    108          6           0        1.750464   -5.071673    3.068716
    109          6           0        4.520115   -3.663846    4.961634
    110          6           0        5.869800   -3.706019    4.281957
    111          7           0        4.098106    0.436021    1.533512
    112          6           0        3.934962    0.334899    2.932526
    113          6           0        4.001293    1.705897    3.478803
    114          6           0        4.176799    2.518064    2.348286
    115          6           0        4.196771    1.712095    1.178021
    116          6           0        3.855086    2.063482    4.848788
    117          6           0        4.339050    3.874916    1.877828
    118          8           0        4.485365    4.970238    2.418749
    119          6           0        4.172752    3.884997    0.297123
    120          6           0        5.304471    4.687593   -0.283876
    121          8           0        6.478477    4.290042   -0.182566
    122          8           0        4.798981    5.673673   -1.047095
    123          6           0        5.883166    6.490783   -1.654293
    124          1           0        2.605510   -1.179602   -4.182009
    125          1           0        3.300172   -5.357200    0.408919
    126          1           0        3.736898   -0.728396    4.630081
    127          1           0        3.184543    3.478473   -2.651889
    128          1           0        3.161822    1.332492   -4.477078
    129          1           0        1.111903    2.405372   -2.583162
    130          1           0        0.960263    0.672428   -2.941259
    131          1           0        0.886999    1.794882   -4.265786
    132          1           0        5.412779    1.806701   -3.837594
    133          1           0        5.842083    3.056548   -2.613352
    134          1           0        4.204124    4.285307   -4.591918
    135          1           0        5.123157    3.100135   -5.449606
    136          1           0        3.080586   -2.927367   -5.259205
    137          1           0        2.580009   -4.552479   -4.931158
    138          1           0        4.315411   -4.254486   -5.188688
    139          1           0        3.322137   -6.533933   -4.225129
    140          1           0        4.415659   -7.792831   -3.408984
    141          1           0        5.040426   -6.245114   -4.047481
    142          1           0        3.840781   -5.235056    2.897388
    143          1           0        2.528297   -3.132463    4.544594
    144          1           0        1.807444   -6.156312    3.279418
    145          1           0        1.115186   -4.883308    2.213449
    146          1           0        1.181895   -4.623776    3.881928
    147          1           0        4.355455   -4.657052    5.386599
    148          1           0        4.560618   -2.962504    5.788359
    149          1           0        5.905387   -4.717561    3.866509
    150          1           0        6.667748   -3.547836    5.004646
    151          1           0        5.909486   -3.003027    3.441788
    152          1           0        4.619945    2.798320    5.062108
    153          1           0        3.944850    1.195100    5.498113
    154          1           0        2.838142    2.464722    4.838177
    155          1           0        3.200741    4.325949    0.072786
    156          1           0        5.697767    7.530759   -1.368373
    157          1           0        5.865699    6.254698   -2.734904
    158          1           0        6.889895    6.344944   -1.280558
 ---------------------------------------------------------------------

 SCF Done:  E(RCAM-B3LYP) =  -4069.81128822     A.U. after   19 cycles

 Excitation energies and oscillator strengths:

 Excited State   1:      Singlet-A      1.6383 eV  756.78 nm  f=0.0078  <S**2>=0.000
     309 -> 315       -0.11434
     310 -> 316        0.11808
     311 -> 313       -0.47656
     312 -> 314        0.49650
 This state for optimization and/or second-order correction.
 Total Energy, E(TD-HF/TD-DFT) =  -4069.75108140
 Copying the excited state density for this state as the 1-particle RhoCI density.

 Excited State   2:      Singlet-A      1.7112 eV  724.56 nm  f=0.6675  <S**2>=0.000
     309 -> 315        0.13283
     310 -> 316        0.12665
     311 -> 313        0.49313
     312 -> 314        0.47342

 Excited State   3:      Singlet-A      2.1783 eV  569.17 nm  f=0.0087  <S**2>=0.000
     309 -> 313       -0.36662
     310 -> 314        0.53189
     311 -> 315        0.15043
     312 -> 316       -0.21985

 Excited State   4:      Singlet-A      2.1971 eV  564.31 nm  f=0.1603  <S**2>=0.000
     309 -> 313        0.52586
     310 -> 314        0.36053
     311 -> 315       -0.23348
     312 -> 316       -0.16177

 Excited State   5:      Singlet-A      2.2333 eV  555.16 nm  f=0.0000  <S**2>=0.000
     312 -> 313        0.70708

 The electronic state is 1-A.
 Alpha  occ. eigenvalues --  -46.87913 -46.87386 -19.26306 -19.26094 -19.19058
 Alpha  occ. eigenvalues --  -19.18919 -19.18883 -19.18460 -19.18232 -19.17660
 Alpha  occ. eigenvalues --  -14.42579 -14.42234 -14.41567 -14.41089 -14.39520
 Alpha  occ. eigenvalues --  -14.39078 -14.38696 -14.38298 -10.39123 -10.38797
 Alpha  occ. eigenvalues --  -10.35557 -10.35144 -10.34453 -10.33831 -10.31658
 Alpha  occ. eigenvalues --  -10.31572 -10.31533 -10.31045 -10.31026 -10.30767
 Alpha  occ. eigenvalues --  -10.30690 -10.30613 -10.30333 -10.30094 -10.30057
 Alpha  occ. eigenvalues --  -10.30023 -10.29912 -10.29746 -10.29603 -10.29376
 Alpha  occ. eigenvalues --  -10.29178 -10.29104 -10.28925 -10.28791 -10.28550
 Alpha  occ. eigenvalues --  -10.28494 -10.28478 -10.28278 -10.28104 -10.27936
 Alpha  occ. eigenvalues --  -10.27902 -10.27860 -10.27706 -10.27693 -10.27673
 Alpha  occ. eigenvalues --  -10.27628 -10.27549 -10.27518 -10.27424 -10.27325
 Alpha  occ. eigenvalues --  -10.27318 -10.27231 -10.27190 -10.27182 -10.27155
 Alpha  occ. eigenvalues --  -10.26961 -10.26628 -10.26568 -10.26523 -10.26370
 Alpha  occ. eigenvalues --  -10.26346 -10.26224 -10.26143 -10.25976 -10.25934
 Alpha  occ. eigenvalues --  -10.25823 -10.25672 -10.25517 -10.25455 -10.25185
 Alpha  occ. eigenvalues --  -10.24935 -10.24899 -10.24893 -10.24567 -10.24542
 Alpha  occ. eigenvalues --  -10.24404  -3.16656  -3.16137  -1.91537  -1.91124
 Alpha  occ. eigenvalues --   -1.91019  -1.90966  -1.90608  -1.90444  -1.16658
 Alpha  occ. eigenvalues --   -1.16381  -1.08683  -1.08257  -1.07316  -1.06714
 Alpha  occ. eigenvalues --   -1.06678  -1.06665  -1.04709  -1.04223  -1.03879
 Alpha  occ. eigenvalues --   -1.03388  -1.03348  -1.02759  -1.02526  -1.01824
 Alpha  occ. eigenvalues --   -0.92076  -0.91665  -0.89646  -0.89354  -0.89246
 Alpha  occ. eigenvalues --   -0.88934  -0.88407  -0.87987  -0.87978  -0.87813
 Alpha  occ. eigenvalues --   -0.87471  -0.87423  -0.87412  -0.86880  -0.85141
 Alpha  occ. eigenvalues --   -0.84775  -0.84059  -0.83646  -0.83107  -0.82785
 Alpha  occ. eigenvalues --   -0.82713  -0.82424  -0.81665  -0.81329  -0.80702
 Alpha  occ. eigenvalues --   -0.80179  -0.78928  -0.78371  -0.77361  -0.77063
 Alpha  occ. eigenvalues --   -0.76912  -0.76668  -0.76034  -0.75587  -0.75007
 Alpha  occ. eigenvalues --   -0.74563  -0.72893  -0.72416  -0.71786  -0.71323
 Alpha  occ. eigenvalues --   -0.70052  -0.69551  -0.69021  -0.68596  -0.67754
 Alpha  occ. eigenvalues --   -0.67396  -0.67329  -0.66988  -0.65434  -0.65029
 Alpha  occ. eigenvalues --   -0.64961  -0.64735  -0.64508  -0.64409  -0.64388
 Alpha  occ. eigenvalues --   -0.63963  -0.62360  -0.62018  -0.60569  -0.60091
 Alpha  occ. eigenvalues --   -0.59951  -0.59551  -0.59100  -0.58720  -0.58612
 Alpha  occ. eigenvalues --   -0.58146  -0.57662  -0.57413  -0.57210  -0.56964
 Alpha  occ. eigenvalues --   -0.56427  -0.56053  -0.55932  -0.55644  -0.55640
 Alpha  occ. eigenvalues --   -0.55441  -0.55200  -0.55000  -0.54614  -0.54249
 Alpha  occ. eigenvalues --   -0.54059  -0.53698  -0.53422  -0.53361  -0.53017
 Alpha  occ. eigenvalues --   -0.52973  -0.52908  -0.52898  -0.52659  -0.52582
 Alpha  occ. eigenvalues --   -0.52458  -0.52198  -0.52012  -0.51773  -0.51519
 Alpha  occ. eigenvalues --   -0.51435  -0.51304  -0.50920  -0.50737  -0.50279
 Alpha  occ. eigenvalues --   -0.50180  -0.50059  -0.49759  -0.49658  -0.49636
 Alpha  occ. eigenvalues --   -0.49327  -0.49250  -0.49230  -0.48938  -0.48829
 Alpha  occ. eigenvalues --   -0.48690  -0.48574  -0.48537  -0.48294  -0.48135
 Alpha  occ. eigenvalues --   -0.48079  -0.47824  -0.47413  -0.47366  -0.46938
 Alpha  occ. eigenvalues --   -0.46886  -0.46711  -0.46478  -0.46468  -0.46342
 Alpha  occ. eigenvalues --   -0.46257  -0.46024  -0.45909  -0.45808  -0.45531
 Alpha  occ. eigenvalues --   -0.45306  -0.44968  -0.44678  -0.44653  -0.44290
 Alpha  occ. eigenvalues --   -0.44268  -0.44237  -0.44209  -0.44118  -0.43878
 Alpha  occ. eigenvalues --   -0.43841  -0.43667  -0.43577  -0.43520  -0.43306
 Alpha  occ. eigenvalues --   -0.43153  -0.43123  -0.42821  -0.42714  -0.42664
 Alpha  occ. eigenvalues --   -0.42611  -0.42327  -0.42141  -0.41812  -0.41742
 Alpha  occ. eigenvalues --   -0.41689  -0.41363  -0.41259  -0.41239  -0.41026
 Alpha  occ. eigenvalues --   -0.40960  -0.40743  -0.40693  -0.40507  -0.40486
 Alpha  occ. eigenvalues --   -0.40435  -0.40262  -0.40035  -0.39574  -0.39226
 Alpha  occ. eigenvalues --   -0.38600  -0.38131  -0.37931  -0.37462  -0.37445
 Alpha  occ. eigenvalues --   -0.37412  -0.37026  -0.36952  -0.36777  -0.36519
 Alpha  occ. eigenvalues --   -0.36286  -0.35974  -0.34402  -0.33974  -0.33822
 Alpha  occ. eigenvalues --   -0.33577  -0.33296  -0.32897  -0.31447  -0.31150
 Alpha  occ. eigenvalues --   -0.31020  -0.30692  -0.30090  -0.29565  -0.29562
 Alpha  occ. eigenvalues --   -0.29424  -0.29049  -0.28872  -0.24197  -0.23747
 Alpha  occ. eigenvalues --   -0.21249  -0.20839
 Alpha virt. eigenvalues --   -0.08891  -0.08500  -0.01868  -0.01416  -0.00177
 Alpha virt. eigenvalues --    0.00241   0.02102   0.02399   0.02642   0.03604
 Alpha virt. eigenvalues --    0.04568   0.04959   0.05054   0.05463   0.05946

 Mulliken charges:
               1
     1  Mg   0.838562
     2  C   -0.003045
     3  C   -0.095417
     4  C   -0.044964
     5  C   -0.063992
     6  N   -0.256626
     7  C   -0.053136
     8  C   -0.013553
     9  C   -0.086851
    10  C    0.046021
    11  C    0.104803
    12  C    0.051327
    13  C   -0.071482
    14  H    0.035399
    15  N   -0.433304
    16  C    0.168220
    17  C   -0.178266
    18  C   -0.003925
    19  C    0.149234
    20  C    0.110412
    21  C    0.013043
    22  O   -0.248214
    23  C    0.062699
    24  N   -0.340975
    25  C    0.040994
    26  C   -0.028721
    27  C   -0.024038
    28  C    0.074701
    29  C    0.075985
    30  C    0.037301
    31  C   -0.014689
    32  N   -0.310723
    33  C    0.080914
    34  C   -0.169780
    35  C    0.008817
    36  C    0.083489
    37  C    0.127239
    38  C    0.046811
    39  O   -0.186721
    40  C   -0.005800
    41  C    0.213736
    42  O   -0.257197
    43  O   -0.305110
    44  C    0.156346
    45  H   -0.017943
    46  H   -0.016209
    47  H   -0.041593
    48  H    0.001658
    49  H   -0.005008
    50  H    0.025883
    51  H    0.016761
    52  H    0.016645
    53  H    0.010172
    54  H    0.044376
    55  H    0.019171
    56  H    0.016735
    57  H    0.005398
    58  H    0.027288
    59  H    0.037171
    60  H    0.037308
    61  H    0.036285
    62  H    0.029151
    63  H    0.017511
    64  H    0.009823
    65  H    0.023757
    66  H    0.012632
    67  H    0.004854
    68  H    0.006726
    69  H    0.003669
    70  H    0.013062
    71  H    0.021527
    72  H    0.030818
    73  H    0.048109
    74  H    0.008754
    75  H    0.046443
    76  H    0.035328
    77  H    0.044096
    78  H    0.045082
    79  H    0.056525
    80  Mg   0.837000
    81  C   -0.014736
    82  C   -0.088186
    83  C   -0.045007
    84  C   -0.064903
    85  N   -0.254478
    86  C   -0.048308
    87  C   -0.014898
    88  C   -0.091634
    89  C    0.045513
    90  C    0.111765
    91  C    0.062758
    92  C   -0.077055
    93  H    0.034156
    94  N   -0.423432
    95  C    0.162596
    96  C   -0.175761
    97  C   -0.007680
    98  C    0.151366
    99  C    0.099992
   100  C    0.015636
   101  O   -0.253331
   102  C    0.061461
   103  N   -0.350113
   104  C    0.036755
   105  C   -0.020192
   106  C   -0.034903
   107  C    0.089474
   108  C    0.074221
   109  C    0.034714
   110  C   -0.007252
   111  N   -0.325022
   112  C    0.079617
   113  C   -0.161366
   114  C    0.005456
   115  C    0.095831
   116  C    0.130181
   117  C    0.046906
   118  O   -0.186488
   119  C   -0.001410
   120  C    0.210335
   121  O   -0.252019
   122  O   -0.305176
   123  C    0.152335
   124  H   -0.022334
   125  H   -0.015769
   126  H   -0.040828
   127  H    0.000137
   128  H   -0.006212
   129  H    0.029795
   130  H    0.014717
   131  H    0.011773
   132  H    0.013514
   133  H    0.037818
   134  H    0.019747
   135  H    0.018615
   136  H    0.006812
   137  H    0.023964
   138  H    0.039001
   139  H    0.037548
   140  H    0.035932
   141  H    0.033189
   142  H    0.013728
   143  H    0.010958
   144  H    0.023541
   145  H    0.014723
   146  H    0.002782
   147  H    0.005370
   148  H    0.003354
   149  H    0.010731
   150  H    0.017501
   151  H    0.030528
   152  H    0.045403
   153  H    0.006812
   154  H    0.052534
   155  H    0.043715
   156  H    0.043074
   157  H    0.048385
   158  H    0.053232
 Sum of Mulliken charges =  -0.00000

 Dipole moment (field-independent basis, Debye):
    X=             -4.3450    Y=             -1.5002    Z=             -7.1195  Tot=              8.4744
 Quadrupole moment (field-independent basis, Debye-Ang):
   XX=           -519.8999   YY=           -548.5151   ZZ=           -450.1247
   XY=             -9.7703   XZ=             -3.3808   YZ=            -46.5830

 Normal termination of Gaussian 16 at Thu Sep  9 07:13:19 2021.
