 Gaussian 16, Revision A.03,
 Gaussian 16:  ES64L-G16RevA.03 25-Dec-2016

 -----------------------------------
 #p cam-b3lyp/Def2SVP td=(nstates=5)
 -----------------------------------

 --------------------------------
 TDDFT excited states in gaussian
 --------------------------------
 Symbolic Z-matrix:
 Charge =  0 Multiplicity = 1

                         Standard orientation:
 ---------------------------------------------------------------------
 Center     Atomic      Atomic             Coordinates (Angstroms)
 Number     Number       Type             X           Y           Z
 ---------------------------------------------------------------------
      1         12           0        6.193805    1.094298    0.613745
      2          6           0        6.720361   -2.306929   -0.369419
      3          6           0        7.216744    2.000382   -2.512862
      4          6           0        6.172589    4.108657    1.598535
      5          6           0        6.314844    0.002269    3.921083
      6          7           0        6.857082   -0.094443   -1.131994
      7          6           0        6.956645   -1.392948   -1.398717
      8          6           0        7.262354   -1.694364   -2.896404
      9          6           0        7.941848   -0.309182   -3.298343
     10          6           0        7.273412    0.594550   -2.277370
     11          6           0        9.449285   -0.280377   -3.067461
     12          6           0        5.961589   -1.956868   -3.727567
     13          6           0        6.183798   -2.574906   -5.111042
     14          1           0        5.208823   -3.529603   -5.616339
     15          7           0        6.156541    2.778841   -0.417649
     16          6           0        6.599648    2.962687   -1.684591
     17          6           0        6.353220    4.386223   -2.000026
     18          6           0        5.905801    5.058699   -0.748752
     19          6           0        6.087901    4.001150    0.212398
     20          6           0        6.497921    4.961191   -3.375607
     21          6           0        5.405083    6.439111   -0.462613
     22          8           0        5.291183    6.887910    0.729100
     23          6           0        5.131683    7.294252   -1.631813
     24          7           0        6.455909    1.978203    2.486617
     25          6           0        6.339841    3.300910    2.647734
     26          6           0        6.285518    3.671348    4.100236
     27          6           0        6.143833    2.297604    4.901801
     28          6           0        6.228365    1.316961    3.706199
     29          6           0        7.492313    4.453312    4.637069
     30          6           0        4.945241    2.171978    5.875461
     31          6           0        3.650264    2.147228    5.094744
     32          7           0        6.289644   -0.822182    1.628124
     33          6           0        6.353884   -1.041511    3.011758
     34          6           0        6.514358   -2.493484    3.211987
     35          6           0        6.549192   -3.019595    1.922088
     36          6           0        6.445117   -1.960502    0.975631
     37          6           0        6.665346   -3.150268    4.465092
     38          6           0        6.674881   -4.227624    1.122886
     39          8           0        6.699332   -5.433733    1.372281
     40          6           0        6.913203   -3.802853   -0.393227
     41          6           0        5.980029   -4.618642   -1.245860
     42          8           0        4.744520   -4.456863   -1.177215
     43          8           0        6.689622   -5.284455   -2.169826
     44          6           0        5.820785   -6.090941   -3.068079
     45          1           0        7.741454    2.412361   -3.377092
     46          1           0        6.057784    5.123631    1.984651
     47          1           0        6.274919   -0.420433    4.926659
     48          1           0        7.961969   -2.513951   -3.061452
     49          1           0        7.673540   -0.002457   -4.309112
     50          1           0        9.789134   -1.173315   -2.542976
     51          1           0        9.634463    0.608875   -2.464607
     52          1           0        9.981906   -0.122598   -4.005650
     53          1           0        5.522576   -1.002709   -4.018959
     54          1           0        5.262191   -2.575711   -3.164359
     55          1           0        7.194551   -2.971018   -5.212948
     56          1           0        6.128690   -1.778813   -5.853604
     57          1           0        6.998716    4.266935   -4.049222
     58          1           0        7.182649    5.805432   -3.297418
     59          1           0        5.544113    5.297876   -3.782086
     60          1           0        6.043993    7.404209   -2.218455
     61          1           0        4.697202    8.212336   -1.237862
     62          1           0        4.411226    6.790542   -2.276924
     63          1           0        5.420830    4.299081    4.311640
     64          1           0        7.015188    2.096156    5.525366
     65          1           0        7.228554    5.410274    5.088025
     66          1           0        8.197917    4.588313    3.817809
     67          1           0        8.101676    3.913054    5.361096
     68          1           0        4.903443    3.035265    6.538736
     69          1           0        4.987827    1.277707    6.497327
     70          1           0        3.444043    3.204458    4.931745
     71          1           0        2.859647    1.681571    5.684066
     72          1           0        3.784370    1.686684    4.115765
     73          1           0        6.033020   -4.037030    4.422847
     74          1           0        6.379403   -2.498815    5.290590
     75          1           0        7.733859   -3.364733    4.453216
     76          1           0        7.959129   -4.011074   -0.616397
     77          1           0        6.176749   -7.120113   -3.019830
     78          1           0        5.834646   -5.595760   -4.039165
     79          1           0        4.784770   -6.216462   -2.751446
     80         12           0       -6.966020    0.100170   -0.287196
     81          6           0       -4.554599   -2.547617   -0.056181
     82          6           0       -4.555941    1.959058   -1.826904
     83          6           0       -8.914877    2.597316   -0.103755
     84          6           0       -8.764839   -1.506097    2.228714
     85          7           0       -4.865745   -0.346996   -0.817442
     86          6           0       -4.076756   -1.407729   -0.735720
     87          6           0       -2.727880   -1.265717   -1.490652
     88          6           0       -2.621059    0.336609   -1.492806
     89          6           0       -4.106768    0.680734   -1.409517
     90          6           0       -1.931465    0.895448   -0.259325
     91          6           0       -2.796297   -1.838798   -2.949727
     92          6           0       -1.439776   -2.015006   -3.635703
     93          1           0       -1.257365   -3.150109   -4.536124
     94          7           0       -6.955591    1.813664   -1.288403
     95          6           0       -5.893186    2.411238   -1.867609
     96          6           0       -6.405037    3.657754   -2.457840
     97          6           0       -7.822646    3.827944   -2.038183
     98          6           0       -7.949168    2.739805   -1.089478
     99          6           0       -5.594038    4.509267   -3.390904
    100          6           0       -8.884441    4.815444   -2.417186
    101          8           0       -9.974324    4.921190   -1.750996
    102          6           0       -8.571063    5.718736   -3.534039
    103          7           0       -8.490996    0.604587    1.032777
    104          6           0       -9.216837    1.722522    0.855872
    105          6           0      -10.427241    1.735590    1.758725
    106          6           0      -10.494419    0.275782    2.408367
    107          6           0       -9.203741   -0.326617    1.811162
    108          6           0      -10.417860    2.786387    2.868741
    109          6           0      -11.823834   -0.509466    2.238873
    110          6           0      -12.028445   -0.870175    0.785115
    111          7           0       -6.831069   -1.784539    0.760517
    112          6           0       -7.672294   -2.246838    1.796235
    113          6           0       -7.114727   -3.530299    2.269810
    114          6           0       -5.965802   -3.715764    1.486191
    115          6           0       -5.806612   -2.615008    0.601603
    116          6           0       -7.639255   -4.325394    3.327541
    117          6           0       -4.845599   -4.587258    1.213531
    118          8           0       -4.503787   -5.706916    1.592067
    119          6           0       -3.812315   -3.808349    0.290488
    120          6           0       -3.417204   -4.721485   -0.837605
    121          8           0       -4.254414   -5.077213   -1.685633
    122          8           0       -2.077757   -4.847888   -0.853685
    123          6           0       -1.636478   -5.735654   -1.962265
    124          1           0       -3.811467    2.703208   -2.111320
    125          1           0       -9.676675    3.379757   -0.073400
    126          1           0       -9.321553   -2.116725    2.942774
    127          1           0       -1.874098   -1.694588   -0.979871
    128          1           0       -2.196439    0.702914   -2.423881
    129          1           0       -1.731670    0.127597    0.473213
    130          1           0       -2.607629    1.637323    0.145002
    131          1           0       -1.026082    1.437683   -0.546740
    132          1           0       -3.244151   -1.084912   -3.609892
    133          1           0       -3.334621   -2.766392   -2.969883
    134          1           0       -0.606975   -1.950631   -2.924896
    135          1           0       -1.280736   -1.171588   -4.311980
    136          1           0       -4.535671    4.220862   -3.381358
    137          1           0       -5.602095    5.526311   -2.984199
    138          1           0       -6.001912    4.530442   -4.403760
    139          1           0       -7.675067    6.287793   -3.297763
    140          1           0       -9.484416    6.289174   -3.713630
    141          1           0       -8.336294    5.114479   -4.417416
    142          1           0      -11.332325    1.908975    1.189651
    143          1           0      -10.351084    0.307916    3.498436
    144          1           0      -11.294642    3.460505    2.839031
    145          1           0       -9.499496    3.353468    2.794171
    146          1           0      -10.362304    2.388709    3.880654
    147          1           0      -12.672514    0.116291    2.525803
    148          1           0      -11.871845   -1.412075    2.838849
    149          1           0      -12.469093    0.038880    0.364960
    150          1           0      -12.705917   -1.716594    0.692131
    151          1           0      -11.068718   -1.034449    0.281544
    152          1           0       -7.609462   -5.352579    2.989160
    153          1           0       -8.650575   -4.021473    3.589523
    154          1           0       -6.922623   -4.093239    4.119888
    155          1           0       -2.959654   -3.533674    0.912653
    156          1           0       -1.033514   -6.531235   -1.513754
    157          1           0       -1.134304   -5.074077   -2.692946
    158          1           0       -2.397209   -6.311210   -2.476547
 ---------------------------------------------------------------------

 SCF Done:  E(RCAM-B3LYP) =  -4069.81167359     A.U. after   19 cycles

 Excitation energies and oscillator strengths:

 Excited State   1:      Singlet-A      1.6640 eV  745.11 nm  f=0.0049  <S**2>=0.000
     309 -> 315       -0.11325
     310 -> 316       -0.12788
     311 -> 313       -0.45310
     312 -> 314        0.51603
 This state for optimization and/or second-order correction.
 Total Energy, E(TD-HF/TD-DFT) =  -4069.75052361
 Copying the excited state density for this state as the 1-particle RhoCI density.

 Excited State   2:      Singlet-A      1.6898 eV  733.72 nm  f=0.7330  <S**2>=0.000
     309 -> 315        0.13389
     310 -> 316       -0.11664
     311 -> 313        0.51471
     312 -> 314        0.45206

 Excited State   3:      Singlet-A      2.1846 eV  567.55 nm  f=0.0843  <S**2>=0.000
     309 -> 313        0.12030
     310 -> 314        0.63156
     312 -> 316        0.26709

 Excited State   4:      Singlet-A      2.1930 eV  565.35 nm  f=0.1142  <S**2>=0.000
     309 -> 313        0.62931
     310 -> 314       -0.11927
     311 -> 315       -0.27379

 Excited State   5:      Singlet-A      2.5824 eV  480.11 nm  f=0.0000  <S**2>=0.000
     312 -> 313        0.70685

 The electronic state is 1-A.
 Alpha  occ. eigenvalues --  -46.88006 -46.87508 -19.26471 -19.25967 -19.19217
 Alpha  occ. eigenvalues --  -19.19030 -19.18853 -19.18596 -19.18334 -19.17844
 Alpha  occ. eigenvalues --  -14.42654 -14.42336 -14.41646 -14.41209 -14.39612
 Alpha  occ. eigenvalues --  -14.39203 -14.38786 -14.38443 -10.39274 -10.38780
 Alpha  occ. eigenvalues --  -10.35665 -10.35277 -10.34556 -10.34014 -10.31864
 Alpha  occ. eigenvalues --  -10.31597 -10.31315 -10.31134 -10.31120 -10.30849
 Alpha  occ. eigenvalues --  -10.30762 -10.30702 -10.30404 -10.30245 -10.30199
 Alpha  occ. eigenvalues --  -10.30104 -10.30010 -10.29824 -10.29745 -10.29456
 Alpha  occ. eigenvalues --  -10.29298 -10.29251 -10.28959 -10.28767 -10.28567
 Alpha  occ. eigenvalues --  -10.28484 -10.28384 -10.28313 -10.28241 -10.27981
 Alpha  occ. eigenvalues --  -10.27941 -10.27925 -10.27847 -10.27786 -10.27700
 Alpha  occ. eigenvalues --  -10.27668 -10.27617 -10.27602 -10.27516 -10.27403
 Alpha  occ. eigenvalues --  -10.27366 -10.27339 -10.27321 -10.27309 -10.27258
 Alpha  occ. eigenvalues --  -10.26950 -10.26795 -10.26649 -10.26464 -10.26406
 Alpha  occ. eigenvalues --  -10.26340 -10.26328 -10.26208 -10.26037 -10.25967
 Alpha  occ. eigenvalues --  -10.25813 -10.25791 -10.25706 -10.25584 -10.25292
 Alpha  occ. eigenvalues --  -10.25018 -10.24982 -10.24862 -10.24711 -10.24633
 Alpha  occ. eigenvalues --  -10.24540  -3.16750  -3.16258  -1.91632  -1.91218
 Alpha  occ. eigenvalues --   -1.91140  -1.91060  -1.90729  -1.90566  -1.16821
 Alpha  occ. eigenvalues --   -1.16279  -1.08790  -1.08438  -1.07432  -1.06851
 Alpha  occ. eigenvalues --   -1.06836  -1.06631  -1.04784  -1.04329  -1.03958
 Alpha  occ. eigenvalues --   -1.03508  -1.03433  -1.02890  -1.02608  -1.01958
 Alpha  occ. eigenvalues --   -0.92164  -0.91800  -0.89702  -0.89391  -0.89352
 Alpha  occ. eigenvalues --   -0.88948  -0.88466  -0.88088  -0.88041  -0.87872
 Alpha  occ. eigenvalues --   -0.87639  -0.87519  -0.87484  -0.86994  -0.85186
 Alpha  occ. eigenvalues --   -0.84808  -0.84111  -0.83737  -0.83178  -0.82849
 Alpha  occ. eigenvalues --   -0.82815  -0.82466  -0.81773  -0.81345  -0.80793
 Alpha  occ. eigenvalues --   -0.80231  -0.78995  -0.78496  -0.77408  -0.77126
 Alpha  occ. eigenvalues --   -0.76978  -0.76685  -0.76112  -0.75620  -0.75073
 Alpha  occ. eigenvalues --   -0.74646  -0.72960  -0.72545  -0.71859  -0.71408
 Alpha  occ. eigenvalues --   -0.70081  -0.69635  -0.69073  -0.68641  -0.67836
 Alpha  occ. eigenvalues --   -0.67437  -0.67434  -0.67011  -0.65488  -0.65064
 Alpha  occ. eigenvalues --   -0.65045  -0.64813  -0.64598  -0.64452  -0.64440
 Alpha  occ. eigenvalues --   -0.64054  -0.62485  -0.62009  -0.60644  -0.60207
 Alpha  occ. eigenvalues --   -0.60004  -0.59606  -0.59177  -0.58823  -0.58693
 Alpha  occ. eigenvalues --   -0.58246  -0.57768  -0.57496  -0.57319  -0.57072
 Alpha  occ. eigenvalues --   -0.56498  -0.56171  -0.56045  -0.55717  -0.55618
 Alpha  occ. eigenvalues --   -0.55516  -0.55263  -0.55062  -0.54703  -0.54270
 Alpha  occ. eigenvalues --   -0.54100  -0.53711  -0.53496  -0.53423  -0.53109
 Alpha  occ. eigenvalues --   -0.53069  -0.52968  -0.52951  -0.52691  -0.52610
 Alpha  occ. eigenvalues --   -0.52521  -0.52274  -0.52070  -0.51824  -0.51727
 Alpha  occ. eigenvalues --   -0.51465  -0.51378  -0.51010  -0.50793  -0.50363
 Alpha  occ. eigenvalues --   -0.50213  -0.50122  -0.49828  -0.49735  -0.49716
 Alpha  occ. eigenvalues --   -0.49404  -0.49324  -0.49282  -0.49018  -0.48903
 Alpha  occ. eigenvalues --   -0.48775  -0.48658  -0.48626  -0.48350  -0.48239
 Alpha  occ. eigenvalues --   -0.48173  -0.47891  -0.47489  -0.47417  -0.46984
 Alpha  occ. eigenvalues --   -0.46962  -0.46760  -0.46549  -0.46547  -0.46362
 Alpha  occ. eigenvalues --   -0.46341  -0.46116  -0.45992  -0.45903  -0.45600
 Alpha  occ. eigenvalues --   -0.45378  -0.45065  -0.44759  -0.44706  -0.44335
 Alpha  occ. eigenvalues --   -0.44316  -0.44299  -0.44284  -0.44207  -0.43951
 Alpha  occ. eigenvalues --   -0.43922  -0.43758  -0.43678  -0.43580  -0.43314
 Alpha  occ. eigenvalues --   -0.43212  -0.43190  -0.42885  -0.42835  -0.42741
 Alpha  occ. eigenvalues --   -0.42600  -0.42422  -0.42194  -0.41889  -0.41802
 Alpha  occ. eigenvalues --   -0.41735  -0.41483  -0.41329  -0.41272  -0.41069
 Alpha  occ. eigenvalues --   -0.41038  -0.40818  -0.40750  -0.40575  -0.40528
 Alpha  occ. eigenvalues --   -0.40460  -0.40338  -0.40006  -0.39616  -0.39306
 Alpha  occ. eigenvalues --   -0.38652  -0.38209  -0.37963  -0.37506  -0.37471
 Alpha  occ. eigenvalues --   -0.37452  -0.37116  -0.37011  -0.36900  -0.36493
 Alpha  occ. eigenvalues --   -0.36381  -0.36012  -0.34482  -0.34092  -0.33969
 Alpha  occ. eigenvalues --   -0.33587  -0.33383  -0.33012  -0.31558  -0.31232
 Alpha  occ. eigenvalues --   -0.31154  -0.30809  -0.30193  -0.29741  -0.29654
 Alpha  occ. eigenvalues --   -0.29509  -0.29184  -0.29052  -0.24280  -0.23876
 Alpha  occ. eigenvalues --   -0.21323  -0.20964
 Alpha virt. eigenvalues --   -0.08972  -0.08639  -0.01951  -0.01535  -0.00264
 Alpha virt. eigenvalues --    0.00118   0.02021   0.02381   0.02816   0.03366
 Alpha virt. eigenvalues --    0.04514   0.04903   0.04908   0.05462   0.05962

 Mulliken charges:
               1
     1  Mg   0.836940
     2  C   -0.003425
     3  C   -0.094537
     4  C   -0.045943
     5  C   -0.063681
     6  N   -0.256804
     7  C   -0.052661
     8  C   -0.013821
     9  C   -0.086857
    10  C    0.045832
    11  C    0.104713
    12  C    0.053578
    13  C   -0.071760
    14  H    0.035760
    15  N   -0.433157
    16  C    0.167713
    17  C   -0.177631
    18  C   -0.004432
    19  C    0.148205
    20  C    0.110173
    21  C    0.011614
    22  O   -0.249433
    23  C    0.062861
    24  N   -0.341083
    25  C    0.041103
    26  C   -0.028217
    27  C   -0.024133
    28  C    0.074804
    29  C    0.076044
    30  C    0.035038
    31  C   -0.004538
    32  N   -0.310660
    33  C    0.080446
    34  C   -0.169010
    35  C    0.008836
    36  C    0.082835
    37  C    0.127118
    38  C    0.046539
    39  O   -0.187259
    40  C   -0.005446
    41  C    0.213300
    42  O   -0.257862
    43  O   -0.304507
    44  C    0.157747
    45  H   -0.017403
    46  H   -0.016669
    47  H   -0.040746
    48  H    0.001432
    49  H   -0.004213
    50  H    0.025768
    51  H    0.016654
    52  H    0.016968
    53  H    0.010131
    54  H    0.043337
    55  H    0.018638
    56  H    0.017924
    57  H    0.005979
    58  H    0.027247
    59  H    0.038407
    60  H    0.037864
    61  H    0.035712
    62  H    0.030076
    63  H    0.016456
    64  H    0.009986
    65  H    0.023456
    66  H    0.012647
    67  H    0.005161
    68  H    0.006827
    69  H    0.005409
    70  H    0.008527
    71  H    0.018779
    72  H    0.028041
    73  H    0.048662
    74  H    0.009570
    75  H    0.046417
    76  H    0.035626
    77  H    0.043796
    78  H    0.046265
    79  H    0.052909
    80  Mg   0.837477
    81  C   -0.016883
    82  C   -0.087871
    83  C   -0.045763
    84  C   -0.065302
    85  N   -0.254539
    86  C   -0.049717
    87  C   -0.015463
    88  C   -0.090466
    89  C    0.045785
    90  C    0.114601
    91  C    0.062657
    92  C   -0.078009
    93  H    0.033775
    94  N   -0.423431
    95  C    0.162729
    96  C   -0.174850
    97  C   -0.008143
    98  C    0.152016
    99  C    0.099557
   100  C    0.015344
   101  O   -0.253553
   102  C    0.061311
   103  N   -0.350119
   104  C    0.037387
   105  C   -0.019737
   106  C   -0.034798
   107  C    0.089076
   108  C    0.073783
   109  C    0.034822
   110  C   -0.007617
   111  N   -0.324188
   112  C    0.078657
   113  C   -0.163355
   114  C    0.002575
   115  C    0.096036
   116  C    0.131522
   117  C    0.042256
   118  O   -0.186803
   119  C    0.001331
   120  C    0.211026
   121  O   -0.252326
   122  O   -0.303727
   123  C    0.152835
   124  H   -0.020138
   125  H   -0.015992
   126  H   -0.040733
   127  H    0.002564
   128  H   -0.005145
   129  H    0.023673
   130  H    0.013923
   131  H    0.015794
   132  H    0.012688
   133  H    0.037603
   134  H    0.025109
   135  H    0.017456
   136  H    0.008217
   137  H    0.025763
   138  H    0.039097
   139  H    0.038034
   140  H    0.035983
   141  H    0.033599
   142  H    0.014113
   143  H    0.012224
   144  H    0.024795
   145  H    0.011644
   146  H    0.005425
   147  H    0.005966
   148  H    0.003547
   149  H    0.010765
   150  H    0.017705
   151  H    0.030291
   152  H    0.046081
   153  H    0.008154
   154  H    0.047040
   155  H    0.036965
   156  H    0.046205
   157  H    0.050220
   158  H    0.051483
 Sum of Mulliken charges =  -0.00000

 Dipole moment (field-independent basis, Debye):
    X=              4.6606    Y=              6.0047    Z=             -3.9546  Tot=              8.5683
 Quadrupole moment (field-independent basis, Debye-Ang):
   XX=           -499.4139   YY=           -565.3073   ZZ=           -458.1054
   XY=              9.4914   XZ=            -39.0282   YZ=             -1.4584

 Normal termination of Gaussian 16 at Sat Sep 11 12:52:27 2021.
