 Gaussian 16, Revision A.03,
 Gaussian 16:  ES64L-G16RevA.03 25-Dec-2016

 -----------------------------------
 #p cam-b3lyp/Def2SVP td=(nstates=5)
 -----------------------------------

 --------------------------------
 TDDFT excited states in gaussian
 --------------------------------
 Symbolic Z-matrix:
 Charge =  0 Multiplicity = 1

                         Standard orientation:
 ---------------------------------------------------------------------
 Center     Atomic      Atomic             Coordinates (Angstroms)
 Number     Number       Type             X           Y           Z
 ---------------------------------------------------------------------
      1         12           0        4.199821    0.247722    0.806608
      2          6           0        4.489643   -2.828238   -1.000788
      3          6           0        5.595166    1.794567   -1.895863
      4          6           0        4.373667    2.892896    2.547141
      5          6           0        3.903279   -1.657237    3.709857
      6          7           0        4.908378   -0.526103   -1.142696
      7          6           0        4.908227   -1.716254   -1.734903
      8          6           0        5.323766   -1.659750   -3.235406
      9          6           0        6.167317   -0.307018   -3.212231
     10          6           0        5.494851    0.378457   -2.035865
     11          6           0        7.642059   -0.514205   -2.882514
     12          6           0        4.088175   -1.548107   -4.190697
     13          6           0        4.379957   -1.814883   -5.670240
     14          1           0        3.370348   -2.488754   -6.472696
     15          7           0        4.421110    2.131869    0.255362
     16          6           0        4.997358    2.579365   -0.886116
     17          6           0        4.918868    4.054993   -0.830965
     18          6           0        4.421594    4.434001    0.520762
     19          6           0        4.410330    3.152709    1.179201
     20          6           0        5.247014    4.940459   -1.993729
     21          6           0        4.030212    5.744673    1.126641
     22          8           0        3.847701    5.885196    2.384225
     23          6           0        3.951314    6.895330    0.208596
     24          7           0        4.367155    0.588485    2.859293
     25          6           0        4.363231    1.830699    3.355147
     26          6           0        4.207658    1.822608    4.847015
     27          6           0        3.860413    0.316253    5.247100
     28          6           0        3.963404   -0.330384    3.843703
     29          6           0        5.427515    2.295565    5.649680
     30          6           0        2.568766    0.087574    6.071584
     31          6           0        1.356851    0.413916    5.227866
     32          7           0        4.016035   -1.861572    1.284254
     33          6           0        3.928136   -2.432098    2.562318
     34          6           0        3.929611   -3.895638    2.383104
     35          6           0        4.035657   -4.076130    1.005417
     36          6           0        4.123000   -2.806209    0.366697
     37          6           0        3.898225   -4.862968    3.426044
     38          6           0        4.120301   -5.046831   -0.073671
     39          8           0        4.005819   -6.271000   -0.149807
     40          6           0        4.540144   -4.280674   -1.405047
     41          6           0        3.618011   -4.737600   -2.502406
     42          8           0        2.402658   -4.455523   -2.475622
     43          8           0        4.344823   -5.224208   -3.520001
     44          6           0        3.491640   -5.668094   -4.654548
     45          1           0        6.236046    2.348935   -2.584260
     46          1           0        4.320370    3.782242    3.178537
     47          1           0        3.728427   -2.314513    4.563595
     48          1           0        5.954366   -2.486141   -3.563804
     49          1           0        6.026144    0.276243   -4.121956
     50          1           0        7.844055   -1.544661   -2.590489
     51          1           0        7.853564    0.164213   -2.055769
     52          1           0        8.273487   -0.185934   -3.708537
     53          1           0        3.771755   -0.506685   -4.248841
     54          1           0        3.282853   -2.203965   -3.858083
     55          1           0        5.353352   -2.287184   -5.805672
     56          1           0        4.471462   -0.855084   -6.178780
     57          1           0        5.740571    4.387151   -2.791724
     58          1           0        5.998775    5.650999   -1.650658
     59          1           0        4.372364    5.478579   -2.359442
     60          1           0        4.921241    7.043803   -0.266532
     61          1           0        3.571245    7.727000    0.800814
     62          1           0        3.250181    6.660274   -0.592722
     63          1           0        3.390784    2.472299    5.158535
     64          1           0        4.645777   -0.137724    5.851899
     65          1           0        5.214953    3.130098    6.318318
     66          1           0        6.216958    2.551474    4.943577
     67          1           0        5.911424    1.521353    6.244528
     68          1           0        2.547167    0.752178    6.934590
     69          1           0        2.466871   -0.934259    6.437271
     70          1           0        1.268838    1.494388    5.335874
     71          1           0        0.473298   -0.090895    5.619925
     72          1           0        1.538182    0.205565    4.173259
     73          1           0        3.190937   -5.629601    3.109837
     74          1           0        3.599150   -4.414527    4.373175
     75          1           0        4.937704   -5.190581    3.428942
     76          1           0        5.577783   -4.545828   -1.605346
     77          1           0        3.741552   -6.709884   -4.855671
     78          1           0        3.644328   -4.946986   -5.457726
     79          1           0        2.423131   -5.748276   -4.451573
     80         12           0       -3.638191    0.740343   -0.381672
     81          6           0       -6.451387   -1.420287    0.163021
     82          6           0       -5.824272    3.010718   -1.685913
     83          6           0       -1.141173    2.477015   -1.285145
     84          6           0       -1.600852   -2.074381   -0.112800
     85          7           0       -5.830571    0.686963   -0.669523
     86          6           0       -6.801946   -0.161476   -0.367950
     87          6           0       -8.234044    0.399895   -0.576532
     88          6           0       -7.893990    1.526216   -1.669527
     89          6           0       -6.434905    1.789778   -1.303102
     90          6           0       -7.942135    1.011930   -3.098700
     91          6           0       -8.825562    1.030256    0.732958
     92          6           0      -10.327833    1.317959    0.686444
     93          1           0      -11.108062    1.143581    1.908445
     94          7           0       -3.521257    2.656221   -0.885967
     95          6           0       -4.511539    3.430177   -1.377518
     96          6           0       -3.912045    4.754164   -1.605180
     97          6           0       -2.447120    4.653675   -1.363089
     98          6           0       -2.306938    3.222339   -1.185022
     99          6           0       -4.727343    5.970824   -1.934497
    100          6           0       -1.351467    5.675126   -1.314268
    101          8           0       -0.115071    5.337394   -1.324823
    102          6           0       -1.767440    7.084851   -1.348040
    103          7           0       -1.678965    0.245225   -0.870164
    104          6           0       -0.781227    1.197890   -1.177453
    105          6           0        0.618917    0.633992   -1.222007
    106          6           0        0.502536   -0.851429   -0.641010
    107          6           0       -1.026473   -0.923613   -0.435302
    108          6           0        1.274961    0.590507   -2.601907
    109          6           0        1.426968   -1.214442    0.553273
    110          6           0        1.017720   -0.430703    1.779521
    111          7           0       -3.916775   -1.336997    0.142835
    112          6           0       -2.933203   -2.349956    0.166980
    113          6           0       -3.623630   -3.620027    0.471383
    114          6           0       -4.974878   -3.258731    0.581365
    115          6           0       -5.119177   -1.865552    0.341113
    116          6           0       -3.008280   -4.900325    0.562456
    117          6           0       -6.313345   -3.740981    0.835576
    118          8           0       -6.797321   -4.816748    1.185176
    119          6           0       -7.345042   -2.594548    0.451297
    120          6           0       -8.333681   -2.462833    1.577252
    121          8           0       -7.966084   -2.069708    2.698381
    122          8           0       -9.578911   -2.612447    1.090033
    123          6           0      -10.595535   -2.479102    2.167309
    124          1           0       -6.388120    3.696826   -2.318536
    125          1           0       -0.231984    3.048441   -1.485986
    126          1           0       -1.023260   -2.979942    0.084706
    127          1           0       -8.945333   -0.309387   -0.982447
    128          1           0       -8.493227    2.419824   -1.515438
    129          1           0       -8.081867   -0.058172   -3.137309
    130          1           0       -6.993738    1.285887   -3.542027
    131          1           0       -8.706853    1.549071   -3.667053
    132          1           0       -8.441779    2.052650    0.843199
    133          1           0       -8.600942    0.418881    1.585247
    134          1           0      -10.817632    0.816471   -0.157089
    135          1           0      -10.471233    2.382399    0.485383
    136          1           0       -5.755083    5.703869   -2.209968
    137          1           0       -4.304280    6.401429   -2.848535
    138          1           0       -4.699416    6.723326   -1.143541
    139          1           0       -2.338080    7.271370   -2.254700
    140          1           0       -0.851181    7.663188   -1.214354
    141          1           0       -2.444252    7.270159   -0.506492
    142          1           0        1.286857    1.206961   -0.590612
    143          1           0        0.753477   -1.606724   -1.400219
    144          1           0        2.237619    1.134120   -2.644846
    145          1           0        0.577818    0.994089   -3.324157
    146          1           0        1.461097   -0.408095   -2.993493
    147          1           0        2.458969   -0.930210    0.333408
    148          1           0        1.428347   -2.272667    0.792322
    149          1           0        1.519047    0.531193    1.636274
    150          1           0        1.364882   -0.925877    2.684123
    151          1           0       -0.062143   -0.242202    1.783838
    152          1           0       -3.430381   -5.387544    1.431327
    153          1           0       -1.926182   -4.816825    0.638975
    154          1           0       -3.320040   -5.334830   -0.391111
    155          1           0       -7.825562   -2.886093   -0.483414
    156          1           0      -11.202314   -3.389675    2.148470
    157          1           0      -11.115817   -1.522922    1.970394
    158          1           0      -10.243042   -2.481007    3.192104
 ---------------------------------------------------------------------

 SCF Done:  E(RCAM-B3LYP) =  -4069.79827647     A.U. after   19 cycles

 Excitation energies and oscillator strengths:

 Excited State   1:      Singlet-A      1.6230 eV  763.90 nm  f=0.0015  <S**2>=0.000
     309 -> 315        0.11221
     310 -> 316       -0.11029
     311 -> 313        0.48731
     312 -> 314       -0.48651
 This state for optimization and/or second-order correction.
 Total Energy, E(TD-HF/TD-DFT) =  -4069.73863080
 Copying the excited state density for this state as the 1-particle RhoCI density.

 Excited State   2:      Singlet-A      1.7096 eV  725.21 nm  f=0.6610  <S**2>=0.000
     309 -> 315        0.13111
     310 -> 316        0.12784
     311 -> 313        0.48312
     312 -> 314        0.48356

 Excited State   3:      Singlet-A      2.1684 eV  571.78 nm  f=0.0683  <S**2>=0.000
     309 -> 313        0.57905
     310 -> 314        0.13998
     311 -> 315       -0.24879
     312 -> 313        0.25763

 Excited State   4:      Singlet-A      2.1797 eV  568.81 nm  f=0.1229  <S**2>=0.000
     309 -> 313       -0.13138
     310 -> 314        0.62672
     312 -> 316       -0.25978

 Excited State   5:      Singlet-A      2.2347 eV  554.81 nm  f=0.0104  <S**2>=0.000
     309 -> 313       -0.23753
     311 -> 315        0.10073
     312 -> 313        0.65510

 The electronic state is 1-A.
 Alpha  occ. eigenvalues --  -46.88007 -46.87386 -19.26620 -19.26176 -19.19509
 Alpha  occ. eigenvalues --  -19.18977 -19.18724 -19.18537 -19.18271 -19.17817
 Alpha  occ. eigenvalues --  -14.42574 -14.42230 -14.41394 -14.41053 -14.39431
 Alpha  occ. eigenvalues --  -14.39097 -14.38316 -14.38231 -10.39485 -10.38901
 Alpha  occ. eigenvalues --  -10.35367 -10.35155 -10.34515 -10.33991 -10.31931
 Alpha  occ. eigenvalues --  -10.31607 -10.31576 -10.31024 -10.31011 -10.30813
 Alpha  occ. eigenvalues --  -10.30708 -10.30578 -10.30115 -10.30109 -10.30057
 Alpha  occ. eigenvalues --  -10.29988 -10.29785 -10.29657 -10.29578 -10.29199
 Alpha  occ. eigenvalues --  -10.29166 -10.29133 -10.28904 -10.28701 -10.28525
 Alpha  occ. eigenvalues --  -10.28510 -10.28249 -10.28248 -10.28173 -10.27930
 Alpha  occ. eigenvalues --  -10.27837 -10.27795 -10.27734 -10.27568 -10.27547
 Alpha  occ. eigenvalues --  -10.27400 -10.27373 -10.27363 -10.27355 -10.27302
 Alpha  occ. eigenvalues --  -10.27237 -10.27230 -10.27223 -10.27112 -10.26912
 Alpha  occ. eigenvalues --  -10.26826 -10.26804 -10.26523 -10.26417 -10.26329
 Alpha  occ. eigenvalues --  -10.25998 -10.25965 -10.25878 -10.25834 -10.25806
 Alpha  occ. eigenvalues --  -10.25731 -10.25513 -10.25359 -10.25333 -10.24943
 Alpha  occ. eigenvalues --  -10.24888 -10.24827 -10.24781 -10.24606 -10.24421
 Alpha  occ. eigenvalues --  -10.24257  -3.16734  -3.16136  -1.91632  -1.91195
 Alpha  occ. eigenvalues --   -1.91044  -1.91019  -1.90607  -1.90444  -1.16980
 Alpha  occ. eigenvalues --   -1.16467  -1.08762  -1.08425  -1.07063  -1.06954
 Alpha  occ. eigenvalues --   -1.06923  -1.06761  -1.04695  -1.04239  -1.03786
 Alpha  occ. eigenvalues --   -1.03388  -1.03276  -1.02742  -1.02445  -1.01829
 Alpha  occ. eigenvalues --   -0.92085  -0.91725  -0.89497  -0.89336  -0.89218
 Alpha  occ. eigenvalues --   -0.88940  -0.88238  -0.88107  -0.87802  -0.87750
 Alpha  occ. eigenvalues --   -0.87463  -0.87391  -0.87113  -0.86940  -0.85069
 Alpha  occ. eigenvalues --   -0.84781  -0.83879  -0.83729  -0.82844  -0.82802
 Alpha  occ. eigenvalues --   -0.82526  -0.82470  -0.81711  -0.81368  -0.80634
 Alpha  occ. eigenvalues --   -0.80218  -0.78738  -0.78394  -0.77248  -0.77041
 Alpha  occ. eigenvalues --   -0.76894  -0.76679  -0.76021  -0.75613  -0.74882
 Alpha  occ. eigenvalues --   -0.74529  -0.72821  -0.72410  -0.71730  -0.71309
 Alpha  occ. eigenvalues --   -0.69972  -0.69543  -0.68894  -0.68627  -0.67674
 Alpha  occ. eigenvalues --   -0.67364  -0.67220  -0.67033  -0.65422  -0.65075
 Alpha  occ. eigenvalues --   -0.64944  -0.64726  -0.64525  -0.64426  -0.64231
 Alpha  occ. eigenvalues --   -0.64058  -0.62449  -0.62069  -0.60348  -0.60139
 Alpha  occ. eigenvalues --   -0.59955  -0.59567  -0.59052  -0.58725  -0.58564
 Alpha  occ. eigenvalues --   -0.58189  -0.57785  -0.57324  -0.57281  -0.57032
 Alpha  occ. eigenvalues --   -0.56431  -0.56176  -0.55950  -0.55692  -0.55531
 Alpha  occ. eigenvalues --   -0.55429  -0.55265  -0.55137  -0.54674  -0.54265
 Alpha  occ. eigenvalues --   -0.54060  -0.53702  -0.53334  -0.53249  -0.53080
 Alpha  occ. eigenvalues --   -0.52999  -0.52996  -0.52829  -0.52682  -0.52532
 Alpha  occ. eigenvalues --   -0.52520  -0.52284  -0.51971  -0.51626  -0.51517
 Alpha  occ. eigenvalues --   -0.51452  -0.51258  -0.51019  -0.50381  -0.50273
 Alpha  occ. eigenvalues --   -0.50064  -0.49948  -0.49770  -0.49584  -0.49484
 Alpha  occ. eigenvalues --   -0.49332  -0.49223  -0.49123  -0.48983  -0.48878
 Alpha  occ. eigenvalues --   -0.48646  -0.48416  -0.48336  -0.48318  -0.48214
 Alpha  occ. eigenvalues --   -0.48007  -0.47674  -0.47372  -0.47268  -0.46869
 Alpha  occ. eigenvalues --   -0.46829  -0.46714  -0.46448  -0.46401  -0.46290
 Alpha  occ. eigenvalues --   -0.46235  -0.46017  -0.45843  -0.45786  -0.45524
 Alpha  occ. eigenvalues --   -0.45169  -0.45037  -0.44788  -0.44474  -0.44338
 Alpha  occ. eigenvalues --   -0.44234  -0.44188  -0.44048  -0.44010  -0.43932
 Alpha  occ. eigenvalues --   -0.43867  -0.43741  -0.43581  -0.43415  -0.43340
 Alpha  occ. eigenvalues --   -0.43179  -0.43075  -0.42968  -0.42761  -0.42659
 Alpha  occ. eigenvalues --   -0.42551  -0.42382  -0.42055  -0.41927  -0.41788
 Alpha  occ. eigenvalues --   -0.41495  -0.41414  -0.41304  -0.41161  -0.40846
 Alpha  occ. eigenvalues --   -0.40774  -0.40639  -0.40553  -0.40526  -0.40409
 Alpha  occ. eigenvalues --   -0.40228  -0.40077  -0.39888  -0.39498  -0.38884
 Alpha  occ. eigenvalues --   -0.38385  -0.38064  -0.37863  -0.37446  -0.37362
 Alpha  occ. eigenvalues --   -0.37215  -0.37045  -0.36971  -0.36845  -0.36548
 Alpha  occ. eigenvalues --   -0.36206  -0.35872  -0.34199  -0.34153  -0.33754
 Alpha  occ. eigenvalues --   -0.33656  -0.33194  -0.32890  -0.31256  -0.31182
 Alpha  occ. eigenvalues --   -0.30994  -0.30705  -0.30124  -0.29717  -0.29337
 Alpha  occ. eigenvalues --   -0.29132  -0.29074  -0.28929  -0.24114  -0.23744
 Alpha  occ. eigenvalues --   -0.21185  -0.20834
 Alpha virt. eigenvalues --   -0.08793  -0.08532  -0.01852  -0.01419   0.00026
 Alpha virt. eigenvalues --    0.00135   0.02111   0.02480   0.03382   0.04443
 Alpha virt. eigenvalues --    0.04647   0.04968   0.05135   0.05379   0.05996

 Mulliken charges:
               1
     1  Mg   0.646637
     2  C    0.003814
     3  C   -0.092326
     4  C   -0.044435
     5  C   -0.051545
     6  N   -0.242512
     7  C   -0.058696
     8  C   -0.009185
     9  C   -0.086696
    10  C    0.046103
    11  C    0.105057
    12  C    0.031847
    13  C   -0.068407
    14  H    0.036157
    15  N   -0.429737
    16  C    0.171195
    17  C   -0.172355
    18  C    0.002162
    19  C    0.151805
    20  C    0.109319
    21  C    0.021297
    22  O   -0.250085
    23  C    0.055836
    24  N   -0.325592
    25  C    0.045774
    26  C   -0.027765
    27  C   -0.020630
    28  C    0.062363
    29  C    0.076967
    30  C    0.035115
    31  C    0.009163
    32  N   -0.315690
    33  C    0.068909
    34  C   -0.175371
    35  C    0.018937
    36  C    0.055468
    37  C    0.129077
    38  C    0.040043
    39  O   -0.188398
    40  C   -0.005364
    41  C    0.215858
    42  O   -0.262133
    43  O   -0.303378
    44  C    0.156778
    45  H   -0.017600
    46  H   -0.016914
    47  H   -0.043758
    48  H   -0.000561
    49  H   -0.003374
    50  H    0.026103
    51  H    0.017893
    52  H    0.017132
    53  H    0.018277
    54  H    0.053422
    55  H    0.017547
    56  H    0.018621
    57  H    0.004284
    58  H    0.026236
    59  H    0.049070
    60  H    0.033216
    61  H    0.033322
    62  H    0.047437
    63  H    0.017774
    64  H    0.008825
    65  H    0.023477
    66  H    0.012613
    67  H    0.004948
    68  H    0.005920
    69  H    0.003081
    70  H    0.004808
    71  H    0.017816
    72  H    0.010632
    73  H    0.045159
    74  H    0.009425
    75  H    0.046020
    76  H    0.036146
    77  H    0.044423
    78  H    0.047404
    79  H    0.053533
    80  Mg   0.837644
    81  C   -0.017750
    82  C   -0.088460
    83  C   -0.044366
    84  C   -0.069646
    85  N   -0.254674
    86  C   -0.049491
    87  C   -0.015137
    88  C   -0.090371
    89  C    0.045400
    90  C    0.114635
    91  C    0.062620
    92  C   -0.077542
    93  H    0.034280
    94  N   -0.423128
    95  C    0.162301
    96  C   -0.175552
    97  C   -0.009742
    98  C    0.152219
    99  C    0.099632
   100  C    0.017307
   101  O   -0.258763
   102  C    0.061540
   103  N   -0.349771
   104  C    0.033764
   105  C   -0.036844
   106  C   -0.019879
   107  C    0.091042
   108  C    0.067768
   109  C    0.008935
   110  C   -0.019566
   111  N   -0.324192
   112  C    0.077502
   113  C   -0.161515
   114  C    0.001800
   115  C    0.096803
   116  C    0.131386
   117  C    0.042667
   118  O   -0.187835
   119  C    0.000933
   120  C    0.211192
   121  O   -0.251386
   122  O   -0.305622
   123  C    0.152197
   124  H   -0.020916
   125  H   -0.016838
   126  H   -0.027445
   127  H   -0.000967
   128  H   -0.004985
   129  H    0.022260
   130  H    0.014266
   131  H    0.015394
   132  H    0.013911
   133  H    0.037535
   134  H    0.020594
   135  H    0.019299
   136  H    0.008427
   137  H    0.024381
   138  H    0.038964
   139  H    0.037955
   140  H    0.032839
   141  H    0.035730
   142  H    0.023808
   143  H    0.030562
   144  H    0.038668
   145  H    0.004893
   146  H    0.010151
   147  H    0.101623
   148  H    0.019997
   149  H    0.037232
   150  H    0.057342
   151  H    0.025998
   152  H    0.044502
   153  H    0.015594
   154  H    0.048275
   155  H    0.034705
   156  H    0.043637
   157  H    0.049228
   158  H    0.053306
 Sum of Mulliken charges =  -0.00000

 Dipole moment (field-independent basis, Debye):
    X=              1.2555    Y=              6.3548    Z=             -4.9962  Tot=              8.1806
 Quadrupole moment (field-independent basis, Debye-Ang):
   XX=           -461.2944   YY=           -540.7008   ZZ=           -480.6848
   XY=            -30.6305   XZ=              1.8618   YZ=             -9.7327

 Normal termination of Gaussian 16 at Wed Sep  8 13:37:26 2021.
