 Gaussian 16, Revision A.03,
 Gaussian 16:  ES64L-G16RevA.03 25-Dec-2016

 -----------------------------------
 #p cam-b3lyp/Def2SVP td=(nstates=5)
 -----------------------------------

 --------------------------------
 TDDFT excited states in gaussian
 --------------------------------
 Symbolic Z-matrix:
 Charge =  0 Multiplicity = 1

                         Standard orientation:
 ---------------------------------------------------------------------
 Center     Atomic      Atomic             Coordinates (Angstroms)
 Number     Number       Type             X           Y           Z
 ---------------------------------------------------------------------
      1         12           0       -3.765592    0.600822    0.961930
      2          6           0       -4.602848   -2.055390   -1.286569
      3          6           0       -3.978717   -1.675795    3.494648
      4          6           0       -3.477260    3.009015    3.004991
      5          6           0       -4.724005    2.825650   -1.543514
      6          7           0       -4.236689   -1.562167    0.975723
      7          6           0       -4.480309   -2.474511    0.040068
      8          6           0       -4.518385   -3.930871    0.592282
      9          6           0       -4.878637   -3.614211    2.112789
     10          6           0       -4.299554   -2.214022    2.213083
     11          6           0       -6.378409   -3.545923    2.382091
     12          6           0       -3.132742   -4.649663    0.469555
     13          6           0       -3.162442   -6.166250    0.680347
     14          1           0       -2.265402   -7.000167   -0.105307
     15          7           0       -3.258565    0.607356    2.871310
     16          6           0       -3.401028   -0.413393    3.750550
     17          6           0       -2.877750    0.084197    5.041001
     18          6           0       -2.595019    1.538316    4.887065
     19          6           0       -3.130477    1.785246    3.572650
     20          6           0       -2.648944   -0.796656    6.230747
     21          6           0       -1.954807    2.547750    5.786678
     22          8           0       -2.017130    3.803242    5.553375
     23          6           0       -1.320234    2.027501    7.011300
     24          7           0       -4.262265    2.625274    0.849926
     25          6           0       -3.977478    3.462213    1.853626
     26          6           0       -4.162541    4.892442    1.441151
     27          6           0       -4.401634    4.869852   -0.137481
     28          6           0       -4.392681    3.336680   -0.355600
     29          6           0       -5.316913    5.641168    2.121478
     30          6           0       -3.460177    5.743620   -1.003856
     31          6           0       -2.053474    5.190969   -0.950349
     32          7           0       -4.361791    0.453448   -1.119865
     33          6           0       -4.739029    1.506704   -1.965452
     34          6           0       -5.160219    0.904704   -3.243835
     35          6           0       -5.013511   -0.466883   -3.046171
     36          6           0       -4.556230   -0.707925   -1.719113
     37          6           0       -5.662705    1.611069   -4.372104
     38          6           0       -5.160172   -1.786209   -3.639237
     39          8           0       -5.421685   -2.205514   -4.767638
     40          6           0       -5.016639   -2.873389   -2.484567
     41          6           0       -4.067889   -3.933489   -2.973822
     42          8           0       -2.862275   -3.674109   -3.165093
     43          8           0       -4.669540   -5.131300   -2.912117
     44          6           0       -3.772277   -6.231332   -3.355968
     45          1           0       -4.246473   -2.243784    4.387752
     46          1           0       -3.287170    3.876316    3.640674
     47          1           0       -4.955302    3.462096   -2.399604
     48          1           0       -5.288434   -4.564142    0.151355
     49          1           0       -4.366297   -4.286350    2.800873
     50          1           0       -6.952113   -3.598518    1.456878
     51          1           0       -6.541876   -2.588668    2.877503
     52          1           0       -6.678243   -4.309865    3.099913
     53          1           0       -2.501020   -4.358071    1.308579
     54          1           0       -2.667061   -4.428289   -0.491414
     55          1           0       -4.180384   -6.554703    0.637839
     56          1           0       -2.834743   -6.376030    1.698584
     57          1           0       -3.104011   -1.777189    6.096533
     58          1           0       -3.195759   -0.355134    7.063670
     59          1           0       -1.591998   -0.875780    6.485574
     60          1           0       -2.065980    1.500920    7.607224
     61          1           0       -0.837722    2.881188    7.485905
     62          1           0       -0.570850    1.285943    6.732978
     63          1           0       -3.272102    5.480664    1.659182
     64          1           0       -5.401978    5.211387   -0.404577
     65          1           0       -5.004995    6.547323    2.641378
     66          1           0       -5.811678    4.949874    2.803101
     67          1           0       -6.136970    5.916132    1.458666
     68          1           0       -3.420516    6.760061   -0.613701
     69          1           0       -3.766488    5.801044   -2.048426
     70          1           0       -1.656892    5.623164   -0.032328
     71          1           0       -1.481133    5.522951   -1.817197
     72          1           0       -2.055727    4.107892   -0.826158
     73          1           0       -5.180452    1.172921   -5.245848
     74          1           0       -5.452849    2.677808   -4.297069
     75          1           0       -6.726583    1.388179   -4.292483
     76          1           0       -6.014787   -3.270113   -2.301721
     77          1           0       -4.285959   -6.760401   -4.158746
     78          1           0       -3.511538   -6.798289   -2.462111
     79          1           0       -2.854501   -5.930190   -3.862267
     80         12           0        3.894227    0.586646   -1.147169
     81          6           0        4.277898   -2.234435    1.037633
     82          6           0        3.760056    2.541415    1.644861
     83          6           0        3.106342    3.027615   -3.014878
     84          6           0        2.923893   -1.649991   -3.637474
     85          7           0        4.015541    0.099939    1.007047
     86          6           0        4.223514   -0.999167    1.716314
     87          6           0        4.462311   -0.752205    3.230097
     88          6           0        3.714176    0.662447    3.363910
     89          6           0        3.865448    1.155878    1.926439
     90          6           0        2.231501    0.532496    3.670749
     91          6           0        5.986447   -0.631597    3.582912
     92          6           0        6.307857   -0.699105    5.077536
     93          1           0        7.543819   -1.355461    5.494735
     94          7           0        3.975119    2.540589   -0.809361
     95          6           0        3.930906    3.161915    0.387831
     96          6           0        4.003678    4.602075    0.096618
     97          6           0        3.928340    4.786823   -1.378146
     98          6           0        3.639776    3.430564   -1.799303
     99          6           0        4.211562    5.638333    1.162626
    100          6           0        4.077079    5.987998   -2.262036
    101          8           0        3.736581    5.961238   -3.497425
    102          6           0        4.545360    7.223073   -1.616438
    103          7           0        2.925204    0.701989   -2.982940
    104          6           0        2.756799    1.883260   -3.602756
    105          6           0        2.286290    1.690956   -5.024739
    106          6           0        2.406145    0.121645   -5.308420
    107          6           0        2.860621   -0.354119   -3.911105
    108          6           0        0.860281    2.154149   -5.321990
    109          6           0        3.243398   -0.308230   -6.544092
    110          6           0        4.701804    0.019949   -6.318850
    111          7           0        3.813819   -1.561602   -1.363094
    112          6           0        3.350218   -2.289799   -2.480639
    113          6           0        3.382302   -3.720043   -2.112125
    114          6           0        3.844212   -3.723200   -0.787312
    115          6           0        4.063922   -2.387885   -0.353552
    116          6           0        2.969468   -4.801862   -2.939989
    117          6           0        4.185769   -4.551909    0.346391
    118          8           0        4.280115   -5.763267    0.539885
    119          6           0        4.361313   -3.617903    1.620441
    120          6           0        5.637838   -4.010966    2.312178
    121          8           0        6.736653   -3.841985    1.754818
    122          8           0        5.368038   -4.316931    3.594356
    123          6           0        6.604693   -4.702569    4.324959
    124          1           0        3.478393    3.215401    2.454368
    125          1           0        2.921100    3.826581   -3.736546
    126          1           0        2.730028   -2.415963   -4.391387
    127          1           0        4.001730   -1.480029    3.887301
    128          1           0        4.237478    1.322618    4.050712
    129          1           0        1.900424   -0.494624    3.631217
    130          1           0        1.722876    1.123120    2.920089
    131          1           0        2.002569    1.003560    4.630971
    132          1           0        6.324994    0.389259    3.363855
    133          1           0        6.559009   -1.370269    3.056454
    134          1           0        5.458974   -1.068909    5.665404
    135          1           0        6.465490    0.317877    5.444865
    136          1           0        4.064385    5.218870    2.165525
    137          1           0        3.406877    6.373698    1.054999
    138          1           0        5.172194    6.149726    1.071318
    139          1           0        3.858711    7.496329   -0.818753
    140          1           0        4.673914    7.944981   -2.425256
    141          1           0        5.513970    7.025270   -1.143913
    142          1           0        2.925048    2.223324   -5.718766
    143          1           0        1.422665   -0.335588   -5.491569
    144          1           0        0.804541    2.899235   -6.137952
    145          1           0        0.434744    2.554753   -4.411506
    146          1           0        0.159879    1.359829   -5.574367
    147          1           0        2.931435    0.254583   -7.427316
    148          1           0        3.149511   -1.362084   -6.784031
    149          1           0        4.763200    1.075898   -6.598633
    150          1           0        5.335439   -0.594479   -6.955269
    151          1           0        4.962688   -0.055379   -5.256823
    152          1           0        3.714743   -5.578637   -2.831899
    153          1           0        2.865388   -4.491283   -3.977530
    154          1           0        2.004688   -5.039367   -2.483851
    155          1           0        3.488345   -3.765274    2.257456
    156          1           0        6.426576   -5.693604    4.753707
    157          1           0        6.803653   -3.875919    5.032651
    158          1           0        7.497710   -4.883364    3.738204
 ---------------------------------------------------------------------

 SCF Done:  E(RCAM-B3LYP) =  -4069.81264661     A.U. after   19 cycles

 Excitation energies and oscillator strengths:

 Excited State   1:      Singlet-A      1.6623 eV  745.86 nm  f=0.2742  <S**2>=0.000
     309 -> 315        0.11316
     310 -> 316       -0.12689
     311 -> 313       -0.45551
     312 -> 314        0.51293
 This state for optimization and/or second-order correction.
 Total Energy, E(TD-HF/TD-DFT) =  -4069.75155810
 Copying the excited state density for this state as the 1-particle RhoCI density.

 Excited State   2:      Singlet-A      1.6777 eV  739.00 nm  f=0.3696  <S**2>=0.000
     309 -> 315       -0.12978
     310 -> 316       -0.11639
     311 -> 313        0.51223
     312 -> 314        0.45533

 Excited State   3:      Singlet-A      2.1840 eV  567.70 nm  f=0.1004  <S**2>=0.000
     310 -> 314        0.64239
     312 -> 316        0.27233

 Excited State   4:      Singlet-A      2.1888 eV  566.45 nm  f=0.0971  <S**2>=0.000
     309 -> 313        0.64121
     311 -> 315        0.27486

 Excited State   5:      Singlet-A      2.2344 eV  554.89 nm  f=0.0000  <S**2>=0.000
     312 -> 313        0.70698

 The electronic state is 1-A.
 Alpha  occ. eigenvalues --  -46.87924 -46.87420 -19.26384 -19.26320 -19.19152
 Alpha  occ. eigenvalues --  -19.19094 -19.19074 -19.18527 -19.18324 -19.17900
 Alpha  occ. eigenvalues --  -14.42564 -14.42274 -14.41573 -14.41091 -14.39547
 Alpha  occ. eigenvalues --  -14.39118 -14.38718 -14.38356 -10.39206 -10.39018
 Alpha  occ. eigenvalues --  -10.35714 -10.35208 -10.34538 -10.34081 -10.31764
 Alpha  occ. eigenvalues --  -10.31748 -10.31506 -10.31090 -10.31029 -10.30838
 Alpha  occ. eigenvalues --  -10.30696 -10.30656 -10.30342 -10.30148 -10.30111
 Alpha  occ. eigenvalues --  -10.30047 -10.29837 -10.29788 -10.29612 -10.29407
 Alpha  occ. eigenvalues --  -10.29178 -10.29155 -10.28794 -10.28635 -10.28620
 Alpha  occ. eigenvalues --  -10.28509 -10.28436 -10.28194 -10.28171 -10.28022
 Alpha  occ. eigenvalues --  -10.27947 -10.27844 -10.27772 -10.27756 -10.27659
 Alpha  occ. eigenvalues --  -10.27592 -10.27568 -10.27530 -10.27425 -10.27284
 Alpha  occ. eigenvalues --  -10.27269 -10.27231 -10.27226 -10.27108 -10.27030
 Alpha  occ. eigenvalues --  -10.26931 -10.26755 -10.26688 -10.26616 -10.26288
 Alpha  occ. eigenvalues --  -10.26262 -10.26219 -10.26141 -10.25986 -10.25970
 Alpha  occ. eigenvalues --  -10.25776 -10.25617 -10.25555 -10.25517 -10.25008
 Alpha  occ. eigenvalues --  -10.24986 -10.24930 -10.24669 -10.24646 -10.24446
 Alpha  occ. eigenvalues --  -10.24433  -3.16666  -3.16171  -1.91547  -1.91133
 Alpha  occ. eigenvalues --   -1.91053  -1.90976  -1.90641  -1.90478  -1.16738
 Alpha  occ. eigenvalues --   -1.16604  -1.08779  -1.08521  -1.07484  -1.06880
 Alpha  occ. eigenvalues --   -1.06784  -1.06770  -1.04698  -1.04282  -1.03887
 Alpha  occ. eigenvalues --   -1.03422  -1.03373  -1.02776  -1.02544  -1.01862
 Alpha  occ. eigenvalues --   -0.92101  -0.91785  -0.89624  -0.89242  -0.89209
 Alpha  occ. eigenvalues --   -0.89014  -0.88392  -0.88012  -0.87913  -0.87777
 Alpha  occ. eigenvalues --   -0.87535  -0.87468  -0.87444  -0.86898  -0.85058
 Alpha  occ. eigenvalues --   -0.84842  -0.84031  -0.83584  -0.83188  -0.82748
 Alpha  occ. eigenvalues --   -0.82711  -0.82488  -0.81691  -0.81446  -0.80724
 Alpha  occ. eigenvalues --   -0.80260  -0.78962  -0.78398  -0.77317  -0.77001
 Alpha  occ. eigenvalues --   -0.76958  -0.76705  -0.76013  -0.75680  -0.75004
 Alpha  occ. eigenvalues --   -0.74524  -0.72901  -0.72448  -0.71785  -0.71356
 Alpha  occ. eigenvalues --   -0.69977  -0.69442  -0.68971  -0.68662  -0.67789
 Alpha  occ. eigenvalues --   -0.67389  -0.67295  -0.67055  -0.65360  -0.65123
 Alpha  occ. eigenvalues --   -0.64969  -0.64718  -0.64552  -0.64465  -0.64373
 Alpha  occ. eigenvalues --   -0.63916  -0.62406  -0.62124  -0.60613  -0.60099
 Alpha  occ. eigenvalues --   -0.59891  -0.59634  -0.59109  -0.58757  -0.58632
 Alpha  occ. eigenvalues --   -0.58209  -0.57713  -0.57445  -0.57412  -0.56991
 Alpha  occ. eigenvalues --   -0.56455  -0.56074  -0.55992  -0.55759  -0.55686
 Alpha  occ. eigenvalues --   -0.55443  -0.55285  -0.55007  -0.54623  -0.54260
 Alpha  occ. eigenvalues --   -0.53956  -0.53792  -0.53467  -0.53342  -0.53055
 Alpha  occ. eigenvalues --   -0.53008  -0.52964  -0.52902  -0.52738  -0.52506
 Alpha  occ. eigenvalues --   -0.52495  -0.52097  -0.52058  -0.51718  -0.51597
 Alpha  occ. eigenvalues --   -0.51511  -0.51302  -0.50997  -0.50795  -0.50265
 Alpha  occ. eigenvalues --   -0.50131  -0.50094  -0.49807  -0.49640  -0.49575
 Alpha  occ. eigenvalues --   -0.49360  -0.49313  -0.49176  -0.49042  -0.48936
 Alpha  occ. eigenvalues --   -0.48709  -0.48653  -0.48572  -0.48399  -0.48167
 Alpha  occ. eigenvalues --   -0.48082  -0.47815  -0.47438  -0.47392  -0.46898
 Alpha  occ. eigenvalues --   -0.46881  -0.46624  -0.46497  -0.46485  -0.46371
 Alpha  occ. eigenvalues --   -0.46283  -0.46024  -0.45931  -0.45825  -0.45636
 Alpha  occ. eigenvalues --   -0.45312  -0.44931  -0.44719  -0.44637  -0.44366
 Alpha  occ. eigenvalues --   -0.44277  -0.44264  -0.44160  -0.44157  -0.43962
 Alpha  occ. eigenvalues --   -0.43841  -0.43768  -0.43613  -0.43473  -0.43403
 Alpha  occ. eigenvalues --   -0.43194  -0.43145  -0.42811  -0.42810  -0.42739
 Alpha  occ. eigenvalues --   -0.42682  -0.42278  -0.42083  -0.41831  -0.41739
 Alpha  occ. eigenvalues --   -0.41594  -0.41476  -0.41275  -0.41250  -0.41051
 Alpha  occ. eigenvalues --   -0.40915  -0.40796  -0.40660  -0.40566  -0.40527
 Alpha  occ. eigenvalues --   -0.40249  -0.40204  -0.40123  -0.39498  -0.39100
 Alpha  occ. eigenvalues --   -0.38555  -0.38075  -0.37791  -0.37527  -0.37424
 Alpha  occ. eigenvalues --   -0.37330  -0.37028  -0.36975  -0.36823  -0.36665
 Alpha  occ. eigenvalues --   -0.36295  -0.35973  -0.34412  -0.34023  -0.33906
 Alpha  occ. eigenvalues --   -0.33760  -0.33320  -0.32925  -0.31599  -0.31166
 Alpha  occ. eigenvalues --   -0.31084  -0.30746  -0.30178  -0.29810  -0.29621
 Alpha  occ. eigenvalues --   -0.29472  -0.29100  -0.28977  -0.24207  -0.23789
 Alpha  occ. eigenvalues --   -0.21260  -0.20870
 Alpha virt. eigenvalues --   -0.08924  -0.08553  -0.01891  -0.01434  -0.00243
 Alpha virt. eigenvalues --    0.00164   0.02045   0.02339   0.02557   0.03584
 Alpha virt. eigenvalues --    0.04640   0.04916   0.04973   0.05251   0.06150

 Mulliken charges:
               1
     1  Mg   0.838933
     2  C   -0.002736
     3  C   -0.093689
     4  C   -0.046405
     5  C   -0.063820
     6  N   -0.256926
     7  C   -0.051684
     8  C   -0.014255
     9  C   -0.087076
    10  C    0.046509
    11  C    0.104754
    12  C    0.053396
    13  C   -0.073029
    14  H    0.039243
    15  N   -0.433064
    16  C    0.168061
    17  C   -0.177376
    18  C   -0.005024
    19  C    0.148437
    20  C    0.109966
    21  C    0.010489
    22  O   -0.250661
    23  C    0.061913
    24  N   -0.341345
    25  C    0.041742
    26  C   -0.027901
    27  C   -0.024063
    28  C    0.075542
    29  C    0.076205
    30  C    0.034970
    31  C   -0.005032
    32  N   -0.310608
    33  C    0.080837
    34  C   -0.170311
    35  C    0.007979
    36  C    0.083281
    37  C    0.127450
    38  C    0.045541
    39  O   -0.188500
    40  C   -0.005176
    41  C    0.213108
    42  O   -0.258358
    43  O   -0.304412
    44  C    0.157839
    45  H   -0.017249
    46  H   -0.017632
    47  H   -0.040997
    48  H    0.001104
    49  H   -0.003177
    50  H    0.025462
    51  H    0.016150
    52  H    0.017149
    53  H    0.011959
    54  H    0.043531
    55  H    0.017302
    56  H    0.019243
    57  H    0.006920
    58  H    0.026934
    59  H    0.038122
    60  H    0.038658
    61  H    0.034322
    62  H    0.029640
    63  H    0.015508
    64  H    0.009638
    65  H    0.022755
    66  H    0.012554
    67  H    0.005147
    68  H    0.006017
    69  H    0.005403
    70  H    0.006167
    71  H    0.023361
    72  H    0.028860
    73  H    0.046749
    74  H    0.009778
    75  H    0.046498
    76  H    0.035658
    77  H    0.043187
    78  H    0.047806
    79  H    0.052412
    80  Mg   0.837266
    81  C   -0.017424
    82  C   -0.088395
    83  C   -0.045738
    84  C   -0.058151
    85  N   -0.254588
    86  C   -0.050265
    87  C   -0.014836
    88  C   -0.091369
    89  C    0.044743
    90  C    0.113501
    91  C    0.062775
    92  C   -0.077382
    93  H    0.034424
    94  N   -0.423447
    95  C    0.162233
    96  C   -0.174410
    97  C   -0.008411
    98  C    0.152239
    99  C    0.099374
   100  C    0.014822
   101  O   -0.254039
   102  C    0.061382
   103  N   -0.350059
   104  C    0.038045
   105  C   -0.020440
   106  C   -0.036149
   107  C    0.088694
   108  C    0.072407
   109  C    0.034442
   110  C   -0.007467
   111  N   -0.324494
   112  C    0.077750
   113  C   -0.160674
   114  C    0.001147
   115  C    0.096771
   116  C    0.132025
   117  C    0.041911
   118  O   -0.189796
   119  C    0.001032
   120  C    0.211102
   121  O   -0.250810
   122  O   -0.306346
   123  C    0.152147
   124  H   -0.017996
   125  H   -0.016290
   126  H   -0.037477
   127  H   -0.002979
   128  H   -0.004561
   129  H    0.020812
   130  H    0.018870
   131  H    0.013584
   132  H    0.014417
   133  H    0.037666
   134  H    0.018995
   135  H    0.019737
   136  H    0.009608
   137  H    0.026133
   138  H    0.038907
   139  H    0.037933
   140  H    0.035576
   141  H    0.033887
   142  H    0.013361
   143  H    0.019822
   144  H    0.022908
   145  H    0.010645
   146  H    0.011430
   147  H    0.006220
   148  H    0.004646
   149  H    0.010204
   150  H    0.017147
   151  H    0.029402
   152  H    0.043841
   153  H    0.009580
   154  H    0.050110
   155  H    0.032799
   156  H    0.042952
   157  H    0.049152
   158  H    0.053736
 Sum of Mulliken charges =  -0.00000

 Dipole moment (field-independent basis, Debye):
    X=             -2.5776    Y=              1.6939    Z=              6.2186  Tot=              6.9415
 Quadrupole moment (field-independent basis, Debye-Ang):
   XX=           -519.9833   YY=           -508.7252   ZZ=           -490.9522
   XY=             21.9265   XZ=              0.1886   YZ=            -11.1132

 Normal termination of Gaussian 16 at Fri Sep  3 15:41:19 2021.
