 Gaussian 16, Revision A.03,
 Gaussian 16:  ES64L-G16RevA.03 25-Dec-2016

 -----------------------------------
 #p cam-b3lyp/Def2SVP td=(nstates=5)
 -----------------------------------

 --------------------------------
 TDDFT excited states in gaussian
 --------------------------------
 Symbolic Z-matrix:
 Charge =  0 Multiplicity = 1

                         Standard orientation:
 ---------------------------------------------------------------------
 Center     Atomic      Atomic             Coordinates (Angstroms)
 Number     Number       Type             X           Y           Z
 ---------------------------------------------------------------------
      1         12           0        4.073556   -1.713558    0.013537
      2          6           0        5.560169    1.412033   -0.899085
      3          6           0        5.338963   -1.231118    3.145479
      4          6           0        3.163790   -4.668591    0.718327
      5          6           0        3.918273   -2.463989   -3.386228
      6          7           0        5.278625   -0.076382    0.889954
      7          6           0        5.731527    1.093405    0.449899
      8          6           0        6.339483    1.983346    1.574963
      9          6           0        6.719127    0.841866    2.621334
     10          6           0        5.695502   -0.205595    2.220160
     11          6           0        8.116817    0.266935    2.415379
     12          6           0        5.293295    2.983394    2.172565
     13          6           0        5.879559    4.102459    3.038211
     14          1           0        5.259898    5.418346    2.995674
     15          7           0        3.796957   -2.585710    1.764449
     16          6           0        4.381469   -2.247684    2.938915
     17          6           0        3.852058   -3.193558    3.944761
     18          6           0        3.058577   -4.227390    3.223877
     19          6           0        3.333259   -3.879080    1.853254
     20          6           0        4.073977   -3.037575    5.417911
     21          6           0        2.198941   -5.357347    3.695422
     22          8           0        1.788326   -6.275073    2.905644
     23          6           0        1.919625   -5.411000    5.141847
     24          7           0        3.806967   -3.431132   -1.142537
     25          6           0        3.349515   -4.564500   -0.599215
     26          6           0        2.972643   -5.562331   -1.653844
     27          6           0        3.040000   -4.781737   -3.045206
     28          6           0        3.551951   -3.415891   -2.524974
     29          6           0        3.850793   -6.818901   -1.730620
     30          6           0        1.766163   -4.804765   -3.926811
     31          6           0        0.659766   -4.026676   -3.250378
     32          7           0        4.465113   -0.659273   -1.842861
     33          6           0        4.355641   -1.172645   -3.143299
     34          6           0        4.828367   -0.122145   -4.063650
     35          6           0        5.197967    0.930120   -3.228198
     36          6           0        4.995172    0.550670   -1.870559
     37          6           0        4.928957   -0.237058   -5.478256
     38          6           0        5.740172    2.277685   -3.165439
     39          8           0        6.015271    3.141434   -3.999556
     40          6           0        6.110780    2.598610   -1.650353
     41          6           0        5.553710    3.957514   -1.324222
     42          8           0        4.321497    4.150331   -1.281329
     43          8           0        6.543381    4.749870   -0.884601
     44          6           0        6.052991    6.104661   -0.515531
     45          1           0        5.881081   -1.301087    4.090547
     46          1           0        2.745640   -5.658873    0.910496
     47          1           0        3.819622   -2.595208   -4.465350
     48          1           0        7.233962    2.534820    1.284778
     49          1           0        6.551843    1.160737    3.649954
     50          1           0        8.573248    0.646966    1.501503
     51          1           0        7.980990   -0.812923    2.352516
     52          1           0        8.740040    0.439946    3.293125
     53          1           0        4.689432    2.468088    2.919473
     54          1           0        4.682907    3.421314    1.382010
     55          1           0        6.958900    4.184103    2.906808
     56          1           0        5.754283    3.825701    4.085069
     57          1           0        4.830258   -2.283231    5.631334
     58          1           0        4.511888   -3.969703    5.774393
     59          1           0        3.145822   -2.838803    5.953961
     60          1           0        2.860725   -5.480644    5.687767
     61          1           0        1.217860   -6.232367    5.282323
     62          1           0        1.456863   -4.472073    5.447161
     63          1           0        1.959207   -5.930514   -1.499525
     64          1           0        3.821376   -5.173746   -3.696708
     65          1           0        3.293700   -7.749747   -1.621632
     66          1           0        4.625755   -6.735504   -0.969194
     67          1           0        4.447325   -6.904888   -2.638459
     68          1           0        1.409709   -5.826704   -4.051418
     69          1           0        1.922779   -4.384673   -4.920413
     70          1           0        0.232847   -4.757184   -2.564134
     71          1           0       -0.079212   -3.701024   -3.983231
     72          1           0        1.058109   -3.208973   -2.649404
     73          1           0        4.545652    0.697278   -5.888212
     74          1           0        4.363981   -1.092800   -5.847188
     75          1           0        6.004984   -0.365635   -5.594399
     76          1           0        7.197902    2.574572   -1.581718
     77          1           0        6.634944    6.824509   -1.091191
     78          1           0        6.103571    6.166988    0.571650
     79          1           0        5.041041    6.354859   -0.835995
     80         12           0       -4.234287    1.743038    0.313753
     81          6           0       -5.421635   -1.596052   -0.251703
     82          6           0       -3.368186    1.833611   -2.984171
     83          6           0       -2.774830    4.503885    0.875181
     84          6           0       -4.134883    0.983243    3.713541
     85          7           0       -4.421963    0.249549   -1.306900
     86          6           0       -4.945424   -0.962033   -1.418188
     87          6           0       -5.032603   -1.493792   -2.873930
     88          6           0       -3.863642   -0.605646   -3.524773
     89          6           0       -3.903658    0.587264   -2.571865
     90          6           0       -2.491314   -1.250719   -3.425149
     91          6           0       -6.421460   -1.191466   -3.538540
     92          6           0       -6.688930   -1.947569   -4.841817
     93          1           0       -8.053253   -2.383827   -5.125973
     94          7           0       -3.667555    3.174143   -0.938974
     95          6           0       -3.378706    3.040200   -2.250420
     96          6           0       -2.994493    4.381481   -2.716808
     97          6           0       -2.921174    5.285274   -1.536761
     98          6           0       -3.102014    4.330406   -0.461764
     99          6           0       -2.815396    4.717776   -4.168785
    100          6           0       -2.708983    6.762408   -1.398084
    101          8           0       -2.443752    7.301189   -0.265735
    102          6           0       -2.728445    7.547084   -2.641224
    103          7           0       -3.352190    2.551412    2.013987
    104          6           0       -2.836172    3.792990    2.001312
    105          6           0       -2.508629    4.261859    3.398908
    106          6           0       -3.139089    3.166157    4.378466
    107          6           0       -3.667850    2.163340    3.329578
    108          6           0       -1.022177    4.429778    3.712983
    109          6           0       -4.117747    3.678359    5.470510
    110          6           0       -5.382468    4.199400    4.826798
    111          7           0       -4.859376    0.090320    1.557061
    112          6           0       -4.699297   -0.033995    2.954567
    113          6           0       -5.176472   -1.380953    3.329330
    114          6           0       -5.562690   -1.959889    2.111074
    115          6           0       -5.322983   -1.046232    1.049347
    116          6           0       -5.167131   -1.931422    4.641970
    117          6           0       -6.108746   -3.140129    1.480554
    118          8           0       -6.581045   -4.201625    1.885395
    119          6           0       -5.923916   -3.004204   -0.092268
    120          6           0       -7.231000   -3.360083   -0.746025
    121          8           0       -8.237486   -2.650045   -0.574438
    122          8           0       -7.024502   -4.349575   -1.634075
    123          6           0       -8.289966   -4.729965   -2.316514
    124          1           0       -2.852895    1.884988   -3.943705
    125          1           0       -2.370143    5.483942    1.138228
    126          1           0       -4.227921    0.706553    4.765901
    127          1           0       -4.806061   -2.547188   -2.987088
    128          1           0       -4.118928   -0.295610   -4.534757
    129          1           0       -2.510914   -2.149039   -2.826167
    130          1           0       -1.849079   -0.507331   -2.971330
    131          1           0       -2.085453   -1.429719   -4.424939
    132          1           0       -6.421000   -0.160791   -3.915980
    133          1           0       -7.221685   -1.369448   -2.846755
    134          1           0       -5.982393   -2.772924   -4.991968
    135          1           0       -6.495752   -1.273579   -5.679936
    136          1           0       -2.772352    3.813773   -4.788723
    137          1           0       -1.821413    5.166128   -4.272924
    138          1           0       -3.562598    5.426454   -4.532286
    139          1           0       -1.959807    7.175661   -3.314791
    140          1           0       -2.648778    8.590346   -2.329568
    141          1           0       -3.689898    7.386105   -3.141537
    142          1           0       -2.968152    5.221265    3.602580
    143          1           0       -2.363511    2.639493    4.953744
    144          1           0       -0.761014    5.448549    4.056443
    145          1           0       -0.455028    4.169391    2.829194
    146          1           0       -0.625717    3.737828    4.454086
    147          1           0       -3.675657    4.518848    6.011147
    148          1           0       -4.378128    2.923913    6.205366
    149          1           0       -5.110950    5.219630    4.539590
    150          1           0       -6.204696    4.195582    5.539525
    151          1           0       -5.612087    3.648207    3.907493
    152          1           0       -6.118271   -2.428828    4.777751
    153          1           0       -5.009014   -1.161898    5.394690
    154          1           0       -4.313461   -2.609848    4.562882
    155          1           0       -5.120970   -3.680755   -0.387437
    156          1           0       -8.424352   -5.805333   -2.164139
    157          1           0       -8.183982   -4.378445   -3.360034
    158          1           0       -9.215737   -4.341260   -1.908718
 ---------------------------------------------------------------------

 SCF Done:  E(RCAM-B3LYP) =  -4069.81184069     A.U. after   19 cycles

 Excitation energies and oscillator strengths:

 Excited State   1:      Singlet-A      1.6501 eV  751.39 nm  f=0.0333  <S**2>=0.000
     309 -> 315        0.11448
     310 -> 316        0.12226
     311 -> 313        0.46843
     312 -> 314        0.50318
 This state for optimization and/or second-order correction.
 Total Energy, E(TD-HF/TD-DFT) =  -4069.75120216
 Copying the excited state density for this state as the 1-particle RhoCI density.

 Excited State   2:      Singlet-A      1.7031 eV  727.97 nm  f=0.6588  <S**2>=0.000
     309 -> 315        0.13279
     310 -> 316       -0.12339
     311 -> 313        0.50078
     312 -> 314       -0.46631

 Excited State   3:      Singlet-A      2.1839 eV  567.73 nm  f=0.0173  <S**2>=0.000
     309 -> 313        0.35623
     310 -> 314        0.53723
     311 -> 315       -0.14841
     312 -> 316       -0.22497

 Excited State   4:      Singlet-A      2.1964 eV  564.48 nm  f=0.1607  <S**2>=0.000
     309 -> 313        0.53296
     310 -> 314       -0.35217
     311 -> 315       -0.23469
     312 -> 316        0.15597

 Excited State   5:      Singlet-A      2.3486 eV  527.91 nm  f=0.0000  <S**2>=0.000
     312 -> 313        0.70707

 The electronic state is 1-A.
 Alpha  occ. eigenvalues --  -46.87901 -46.87441 -19.26333 -19.26198 -19.19080
 Alpha  occ. eigenvalues --  -19.18997 -19.18854 -19.18442 -19.18283 -19.17833
 Alpha  occ. eigenvalues --  -14.42549 -14.42281 -14.41560 -14.41151 -14.39500
 Alpha  occ. eigenvalues --  -14.39117 -14.38699 -14.38384 -10.39142 -10.38924
 Alpha  occ. eigenvalues --  -10.35484 -10.35115 -10.34501 -10.34014 -10.31697
 Alpha  occ. eigenvalues --  -10.31630 -10.31515 -10.31106 -10.30990 -10.30788
 Alpha  occ. eigenvalues --  -10.30687 -10.30616 -10.30316 -10.30181 -10.30145
 Alpha  occ. eigenvalues --  -10.30041 -10.29926 -10.29738 -10.29705 -10.29355
 Alpha  occ. eigenvalues --  -10.29194 -10.29172 -10.28819 -10.28572 -10.28534
 Alpha  occ. eigenvalues --  -10.28528 -10.28461 -10.28198 -10.28167 -10.27952
 Alpha  occ. eigenvalues --  -10.27903 -10.27831 -10.27766 -10.27681 -10.27652
 Alpha  occ. eigenvalues --  -10.27571 -10.27562 -10.27500 -10.27437 -10.27390
 Alpha  occ. eigenvalues --  -10.27265 -10.27247 -10.27233 -10.27217 -10.27118
 Alpha  occ. eigenvalues --  -10.26845 -10.26758 -10.26531 -10.26414 -10.26409
 Alpha  occ. eigenvalues --  -10.26310 -10.26146 -10.26105 -10.26050 -10.26027
 Alpha  occ. eigenvalues --  -10.25835 -10.25740 -10.25706 -10.25529 -10.25264
 Alpha  occ. eigenvalues --  -10.24977 -10.24945 -10.24888 -10.24645 -10.24635
 Alpha  occ. eigenvalues --  -10.24467  -3.16643  -3.16192  -1.91525  -1.91112
 Alpha  occ. eigenvalues --   -1.91074  -1.90954  -1.90663  -1.90499  -1.16684
 Alpha  occ. eigenvalues --   -1.16488  -1.08741  -1.08446  -1.07249  -1.06781
 Alpha  occ. eigenvalues --   -1.06704  -1.06690  -1.04679  -1.04277  -1.03867
 Alpha  occ. eigenvalues --   -1.03444  -1.03341  -1.02824  -1.02519  -1.01893
 Alpha  occ. eigenvalues --   -0.92073  -0.91773  -0.89663  -0.89317  -0.89269
 Alpha  occ. eigenvalues --   -0.88965  -0.88419  -0.88055  -0.88003  -0.87773
 Alpha  occ. eigenvalues --   -0.87597  -0.87475  -0.87353  -0.86841  -0.85063
 Alpha  occ. eigenvalues --   -0.84806  -0.84085  -0.83724  -0.83042  -0.82724
 Alpha  occ. eigenvalues --   -0.82685  -0.82435  -0.81669  -0.81416  -0.80683
 Alpha  occ. eigenvalues --   -0.80238  -0.78895  -0.78389  -0.77335  -0.77025
 Alpha  occ. eigenvalues --   -0.76947  -0.76728  -0.76010  -0.75641  -0.75012
 Alpha  occ. eigenvalues --   -0.74632  -0.72892  -0.72492  -0.71770  -0.71386
 Alpha  occ. eigenvalues --   -0.70082  -0.69619  -0.68958  -0.68629  -0.67735
 Alpha  occ. eigenvalues --   -0.67391  -0.67284  -0.66991  -0.65375  -0.65082
 Alpha  occ. eigenvalues --   -0.64956  -0.64719  -0.64573  -0.64466  -0.64397
 Alpha  occ. eigenvalues --   -0.64032  -0.62378  -0.62103  -0.60534  -0.60098
 Alpha  occ. eigenvalues --   -0.59893  -0.59597  -0.59094  -0.58791  -0.58608
 Alpha  occ. eigenvalues --   -0.58222  -0.57678  -0.57414  -0.57361  -0.57034
 Alpha  occ. eigenvalues --   -0.56414  -0.56043  -0.55991  -0.55705  -0.55603
 Alpha  occ. eigenvalues --   -0.55462  -0.55227  -0.55086  -0.54635  -0.54332
 Alpha  occ. eigenvalues --   -0.53973  -0.53732  -0.53401  -0.53293  -0.53032
 Alpha  occ. eigenvalues --   -0.53006  -0.52926  -0.52826  -0.52716  -0.52614
 Alpha  occ. eigenvalues --   -0.52395  -0.52269  -0.52064  -0.51713  -0.51688
 Alpha  occ. eigenvalues --   -0.51446  -0.51311  -0.51012  -0.50640  -0.50207
 Alpha  occ. eigenvalues --   -0.50170  -0.49990  -0.49764  -0.49674  -0.49587
 Alpha  occ. eigenvalues --   -0.49311  -0.49260  -0.49182  -0.48981  -0.48914
 Alpha  occ. eigenvalues --   -0.48687  -0.48571  -0.48507  -0.48368  -0.48207
 Alpha  occ. eigenvalues --   -0.48086  -0.47787  -0.47388  -0.47380  -0.46918
 Alpha  occ. eigenvalues --   -0.46890  -0.46631  -0.46527  -0.46468  -0.46364
 Alpha  occ. eigenvalues --   -0.46274  -0.46057  -0.45931  -0.45907  -0.45652
 Alpha  occ. eigenvalues --   -0.45322  -0.45028  -0.44689  -0.44593  -0.44331
 Alpha  occ. eigenvalues --   -0.44286  -0.44266  -0.44173  -0.44097  -0.43936
 Alpha  occ. eigenvalues --   -0.43878  -0.43699  -0.43589  -0.43482  -0.43388
 Alpha  occ. eigenvalues --   -0.43208  -0.43127  -0.42828  -0.42754  -0.42743
 Alpha  occ. eigenvalues --   -0.42705  -0.42369  -0.42140  -0.41809  -0.41801
 Alpha  occ. eigenvalues --   -0.41617  -0.41468  -0.41277  -0.41235  -0.40978
 Alpha  occ. eigenvalues --   -0.40870  -0.40794  -0.40695  -0.40539  -0.40464
 Alpha  occ. eigenvalues --   -0.40330  -0.40292  -0.40034  -0.39627  -0.39291
 Alpha  occ. eigenvalues --   -0.38592  -0.38191  -0.37819  -0.37480  -0.37443
 Alpha  occ. eigenvalues --   -0.37345  -0.37087  -0.36993  -0.36796  -0.36612
 Alpha  occ. eigenvalues --   -0.36287  -0.36042  -0.34393  -0.34044  -0.33838
 Alpha  occ. eigenvalues --   -0.33686  -0.33290  -0.32959  -0.31386  -0.31132
 Alpha  occ. eigenvalues --   -0.31008  -0.30754  -0.30143  -0.29743  -0.29545
 Alpha  occ. eigenvalues --   -0.29434  -0.29076  -0.28981  -0.24185  -0.23818
 Alpha  occ. eigenvalues --   -0.21237  -0.20895
 Alpha virt. eigenvalues --   -0.08876  -0.08557  -0.01850  -0.01465  -0.00134
 Alpha virt. eigenvalues --    0.00225   0.02086   0.02410   0.02842   0.03489
 Alpha virt. eigenvalues --    0.04628   0.04923   0.05029   0.05339   0.06121

 Mulliken charges:
               1
     1  Mg   0.838860
     2  C   -0.002545
     3  C   -0.094195
     4  C   -0.045628
     5  C   -0.064751
     6  N   -0.256805
     7  C   -0.052457
     8  C   -0.014021
     9  C   -0.087011
    10  C    0.046564
    11  C    0.104758
    12  C    0.053451
    13  C   -0.072317
    14  H    0.037497
    15  N   -0.433320
    16  C    0.168797
    17  C   -0.176984
    18  C   -0.003436
    19  C    0.149117
    20  C    0.110180
    21  C    0.013001
    22  O   -0.248354
    23  C    0.062227
    24  N   -0.341040
    25  C    0.041148
    26  C   -0.028612
    27  C   -0.023844
    28  C    0.074450
    29  C    0.075989
    30  C    0.036579
    31  C   -0.009198
    32  N   -0.310197
    33  C    0.079765
    34  C   -0.171297
    35  C    0.008096
    36  C    0.082585
    37  C    0.127669
    38  C    0.045492
    39  O   -0.189097
    40  C   -0.005037
    41  C    0.212470
    42  O   -0.256795
    43  O   -0.304917
    44  C    0.157451
    45  H   -0.017261
    46  H   -0.016114
    47  H   -0.042552
    48  H    0.001084
    49  H   -0.003930
    50  H    0.025578
    51  H    0.016451
    52  H    0.016929
    53  H    0.010667
    54  H    0.044803
    55  H    0.017869
    56  H    0.017606
    57  H    0.005885
    58  H    0.027386
    59  H    0.039605
    60  H    0.037182
    61  H    0.037274
    62  H    0.031219
    63  H    0.017125
    64  H    0.009653
    65  H    0.023928
    66  H    0.012898
    67  H    0.004735
    68  H    0.006799
    69  H    0.003199
    70  H    0.010279
    71  H    0.016747
    72  H    0.029970
    73  H    0.045998
    74  H    0.008059
    75  H    0.046442
    76  H    0.035292
    77  H    0.042800
    78  H    0.046807
    79  H    0.054540
    80  Mg   0.837668
    81  C   -0.016643
    82  C   -0.086666
    83  C   -0.043358
    84  C   -0.065706
    85  N   -0.254475
    86  C   -0.050296
    87  C   -0.014981
    88  C   -0.090898
    89  C    0.045221
    90  C    0.110262
    91  C    0.062771
    92  C   -0.077526
    93  H    0.034352
    94  N   -0.424163
    95  C    0.163054
    96  C   -0.171075
    97  C   -0.006180
    98  C    0.152855
    99  C    0.097887
   100  C    0.017199
   101  O   -0.253593
   102  C    0.060673
   103  N   -0.349951
   104  C    0.037627
   105  C   -0.019909
   106  C   -0.034229
   107  C    0.088550
   108  C    0.073284
   109  C    0.035034
   110  C   -0.007523
   111  N   -0.323906
   112  C    0.077984
   113  C   -0.163915
   114  C    0.002408
   115  C    0.095610
   116  C    0.131391
   117  C    0.042434
   118  O   -0.188511
   119  C    0.000821
   120  C    0.211090
   121  O   -0.251326
   122  O   -0.305602
   123  C    0.152189
   124  H   -0.018002
   125  H   -0.015369
   126  H   -0.042085
   127  H   -0.001272
   128  H   -0.004767
   129  H    0.025178
   130  H    0.016783
   131  H    0.016766
   132  H    0.013947
   133  H    0.037511
   134  H    0.020053
   135  H    0.019476
   136  H    0.008818
   137  H    0.030988
   138  H    0.038943
   139  H    0.040983
   140  H    0.035569
   141  H    0.032935
   142  H    0.013957
   143  H    0.010483
   144  H    0.023985
   145  H    0.015392
   146  H    0.003083
   147  H    0.005228
   148  H    0.002732
   149  H    0.010829
   150  H    0.017340
   151  H    0.030737
   152  H    0.045526
   153  H    0.007248
   154  H    0.046255
   155  H    0.035465
   156  H    0.043600
   157  H    0.049174
   158  H    0.053345
 Sum of Mulliken charges =  -0.00000

 Dipole moment (field-independent basis, Debye):
    X=              4.4969    Y=             -0.0116    Z=              0.4443  Tot=              4.5188
 Quadrupole moment (field-independent basis, Debye-Ang):
   XX=           -528.7583   YY=           -538.2107   ZZ=           -453.1230
   XY=            -20.4897   XZ=             53.4403   YZ=             30.4018

 Normal termination of Gaussian 16 at Thu Sep  9 16:12:17 2021.
