 Gaussian 16, Revision A.03,
 Gaussian 16:  ES64L-G16RevA.03 25-Dec-2016

 -----------------------------------
 #p cam-b3lyp/Def2SVP td=(nstates=5)
 -----------------------------------

 --------------------------------
 TDDFT excited states in gaussian
 --------------------------------
 Symbolic Z-matrix:
 Charge =  0 Multiplicity = 1

                         Standard orientation:
 ---------------------------------------------------------------------
 Center     Atomic      Atomic             Coordinates (Angstroms)
 Number     Number       Type             X           Y           Z
 ---------------------------------------------------------------------
      1         12           0        6.775105   -0.424366   -0.022937
      2          6           0        6.799397    2.858982   -1.448156
      3          6           0        7.646957    1.018585    2.943683
      4          6           0        7.203319   -3.341245    1.145424
      5          6           0        7.026545   -1.673904   -3.266560
      6          7           0        7.144979    1.681875    0.549417
      7          6           0        7.062617    2.851728   -0.076548
      8          6           0        7.207660    4.074649    0.877811
      9          6           0        8.017554    3.376406    2.060403
     10          6           0        7.549347    1.945335    1.863573
     11          6           0        9.530765    3.427897    1.875898
     12          6           0        5.821954    4.611319    1.371304
     13          6           0        5.854709    5.990153    2.036961
     14          1           0        4.732475    6.893479    1.832167
     15          7           0        6.862168   -1.055433    1.847096
     16          6           0        7.221239   -0.327331    2.931634
     17          6           0        7.126894   -1.244510    4.087731
     18          6           0        6.867426   -2.613711    3.562319
     19          6           0        6.994960   -2.393225    2.144399
     20          6           0        7.230074   -0.788105    5.510686
     21          6           0        6.564591   -3.916557    4.232406
     22          8           0        6.602787   -5.029496    3.604329
     23          6           0        6.305176   -3.864727    5.682599
     24          7           0        7.293389   -2.244779   -0.903342
     25          6           0        7.353909   -3.368472   -0.180406
     26          6           0        7.462375   -4.578531   -1.060140
     27          6           0        7.217986   -4.063915   -2.551850
     28          6           0        7.085134   -2.548839   -2.260020
     29          6           0        8.795247   -5.336862   -0.993835
     30          6           0        6.095186   -4.760441   -3.360919
     31          6           0        4.748449   -4.435487   -2.754454
     32          7           0        6.716141    0.402189   -2.029021
     33          6           0        6.863948   -0.298983   -3.234503
     34          6           0        6.860521    0.700298   -4.318705
     35          6           0        6.726733    1.922676   -3.663161
     36          6           0        6.677749    1.703075   -2.256865
     37          6           0        7.029942    0.426778   -5.704677
     38          6           0        6.638533    3.365170   -3.822185
     39          8           0        6.534689    4.126713   -4.784869
     40          6           0        6.804588    4.038387   -2.388646
     41          6           0        5.712845    5.062488   -2.238238
     42          8           0        4.516086    4.716001   -2.166954
     43          8           0        6.258769    6.257355   -1.964739
     44          6           0        5.228143    7.312688   -1.774377
     45          1           0        8.147117    1.330017    3.862808
     46          1           0        7.245391   -4.373654    1.498694
     47          1           0        7.015966   -1.996130   -4.309399
     48          1           0        7.785821    4.903759    0.469485
     49          1           0        7.708581    3.745082    3.038327
     50          1           0        9.799460    3.823164    0.896363
     51          1           0        9.871555    2.397308    1.977105
     52          1           0       10.001599    3.980439    2.689402
     53          1           0        5.481416    4.007334    2.212313
     54          1           0        5.099412    4.622370    0.554520
     55          1           0        6.797703    6.502945    1.845349
     56          1           0        5.838259    5.848191    3.117598
     57          1           0        7.586086    0.239226    5.576950
     58          1           0        8.017319   -1.379090    5.978330
     59          1           0        6.295258   -0.925182    6.054434
     60          1           0        7.173969   -3.443372    6.188769
     61          1           0        6.019766   -4.875110    5.973318
     62          1           0        5.478837   -3.178208    5.869159
     63          1           0        6.701098   -5.315370   -0.807252
     64          1           0        8.105288   -4.179191   -3.174811
     65          1           0        8.688065   -6.388025   -0.724996
     66          1           0        9.443953   -4.817195   -0.289265
     67          1           0        9.389871   -5.296675   -1.906098
     68          1           0        6.213124   -5.842696   -3.318962
     69          1           0        6.077497   -4.469224   -4.411219
     70          1           0        4.661155   -5.165217   -1.950274
     71          1           0        3.956579   -4.570638   -3.491942
     72          1           0        4.745894   -3.445539   -2.297855
     73          1           0        6.292200    1.034910   -6.228011
     74          1           0        6.893407   -0.633009   -5.918720
     75          1           0        8.059607    0.752951   -5.850478
     76          1           0        7.795697    4.490470   -2.367551
     77          1           0        5.457783    8.115678   -2.474881
     78          1           0        5.224610    7.554201   -0.711332
     79          1           0        4.213376    7.056287   -2.080718
     80         12           0       -6.438057   -1.020854    0.259160
     81          6           0       -8.659236    1.779023   -0.066536
     82          6           0       -4.059456    1.180554    1.322483
     83          6           0       -4.329921   -3.388541    0.127841
     84          6           0       -8.566280   -2.779273   -1.867888
     85          7           0       -6.475064    1.171556    0.549411
     86          6           0       -7.393134    2.121319    0.452368
     87          6           0       -6.953962    3.500197    1.013966
     88          6           0       -5.364196    3.321607    0.873867
     89          6           0       -5.281239    1.798697    0.954741
     90          6           0       -4.826449    3.758071   -0.478793
     91          6           0       -7.379921    3.699043    2.510970
     92          6           0       -7.258617    5.133885    3.028938
     93          1           0       -8.250833    5.614379    3.986592
     94          7           0       -4.654191   -1.200758    1.110046
     95          6           0       -3.833363   -0.202321    1.498191
     96          6           0       -2.635687   -0.856648    2.047386
     97          6           0       -2.746084   -2.320144    1.800980
     98          6           0       -3.930424   -2.358394    0.966739
     99          6           0       -1.571621   -0.109055    2.797245
    100          6           0       -1.914992   -3.490203    2.232784
    101          8           0       -2.059234   -4.649628    1.705771
    102          6           0       -0.864012   -3.217613    3.224063
    103          7           0       -6.329424   -2.749872   -0.890207
    104          6           0       -5.335153   -3.637288   -0.711775
    105          6           0       -5.614210   -4.924847   -1.449812
    106          6           0       -7.123076   -4.805674   -1.966248
    107          6           0       -7.439740   -3.369885   -1.493378
    108          6           0       -4.694104   -5.226547   -2.632516
    109          6           0       -8.096539   -5.947622   -1.564996
    110          6           0       -8.337280   -5.920074   -0.072786
    111          7           0       -8.370506   -0.673797   -0.642647
    112          6           0       -9.068139   -1.531311   -1.521306
    113          6           0      -10.282692   -0.812614   -1.958083
    114          6           0      -10.194993    0.431883   -1.316192
    115          6           0       -8.999340    0.492635   -0.550537
    116          6           0      -11.256541   -1.304122   -2.872502
    117          6           0      -10.836703    1.711987   -1.120652
    118          8           0      -11.916689    2.201477   -1.448922
    119          6           0       -9.808035    2.688632   -0.403433
    120          6           0      -10.524248    3.363520    0.734143
    121          8           0      -10.926186    2.703385    1.708455
    122          8           0      -10.424658    4.697368    0.588147
    123          6           0      -11.110303    5.410724    1.698478
    124          1           0       -3.177331    1.808975    1.448328
    125          1           0       -3.691673   -4.275159    0.132922
    126          1           0       -9.329756   -3.296136   -2.453248
    127          1           0       -7.284848    4.353259    0.433817
    128          1           0       -4.840337    3.776968    1.710277
    129          1           0       -5.620669    4.006615   -1.166961
    130          1           0       -4.251625    2.920214   -0.851106
    131          1           0       -4.115442    4.579870   -0.354459
    132          1           0       -6.647825    3.202261    3.160571
    133          1           0       -8.377035    3.338951    2.674427
    134          1           0       -7.129338    5.856685    2.214207
    135          1           0       -6.336492    5.216497    3.609348
    136          1           0       -1.680122    0.975695    2.674994
    137          1           0       -0.616387   -0.342574    2.314675
    138          1           0       -1.516011   -0.397464    3.849099
    139          1           0       -0.181198   -2.468758    2.829795
    140          1           0       -0.437620   -4.191267    3.473144
    141          1           0       -1.328540   -2.781676    4.115575
    142          1           0       -5.536561   -5.776344   -0.784956
    143          1           0       -7.178036   -4.794053   -3.064738
    144          1           0       -4.175095   -6.199674   -2.544601
    145          1           0       -3.978093   -4.420438   -2.722234
    146          1           0       -5.177338   -5.215965   -3.607994
    147          1           0       -7.652336   -6.920402   -1.789800
    148          1           0       -9.050611   -5.902610   -2.079485
    149          1           0       -7.476053   -6.464287    0.326214
    150          1           0       -9.270462   -6.422370    0.174025
    151          1           0       -8.288467   -4.895885    0.314897
    152          1           0      -12.225030   -1.055266   -2.459453
    153          1           0      -11.152482   -2.376223   -3.025944
    154          1           0      -10.990182   -0.733752   -3.766366
    155          1           0       -9.460214    3.403667   -1.149970
    156          1           0      -11.836195    6.090389    1.241504
    157          1           0      -10.304208    5.867127    2.303174
    158          1           0      -11.748960    4.826610    2.350691
 ---------------------------------------------------------------------

 SCF Done:  E(RCAM-B3LYP) =  -4069.81178214     A.U. after   19 cycles

 Excitation energies and oscillator strengths:

 Excited State   1:      Singlet-A      1.6683 eV  743.19 nm  f=0.2240  <S**2>=0.000
     309 -> 315       -0.10667
     310 -> 316        0.13507
     311 -> 313       -0.42405
     312 -> 314        0.53986
 This state for optimization and/or second-order correction.
 Total Energy, E(TD-HF/TD-DFT) =  -4069.75047419
 Copying the excited state density for this state as the 1-particle RhoCI density.

 Excited State   2:      Singlet-A      1.6852 eV  735.71 nm  f=0.5499  <S**2>=0.000
     309 -> 315        0.13964
     310 -> 316        0.10863
     311 -> 313        0.53891
     312 -> 314        0.42339

 Excited State   3:      Singlet-A      2.1849 eV  567.47 nm  f=0.0378  <S**2>=0.000
     309 -> 313        0.21076
     310 -> 314        0.60768
     312 -> 316       -0.25705

 Excited State   4:      Singlet-A      2.1940 eV  565.12 nm  f=0.1502  <S**2>=0.000
     309 -> 313        0.60515
     310 -> 314       -0.20896
     311 -> 315       -0.26412

 Excited State   5:      Singlet-A      2.6032 eV  476.28 nm  f=0.0000  <S**2>=0.000
     312 -> 313        0.70693

 The electronic state is 1-A.
 Alpha  occ. eigenvalues --  -46.87963 -46.87548 -19.26500 -19.26270 -19.19242
 Alpha  occ. eigenvalues --  -19.19079 -19.18949 -19.18604 -19.18334 -19.17950
 Alpha  occ. eigenvalues --  -14.42619 -14.42380 -14.41598 -14.41248 -14.39568
 Alpha  occ. eigenvalues --  -14.39238 -14.38750 -14.38489 -10.39295 -10.39006
 Alpha  occ. eigenvalues --  -10.35582 -10.35283 -10.34557 -10.34127 -10.31904
 Alpha  occ. eigenvalues --  -10.31690 -10.31575 -10.31189 -10.31087 -10.30906
 Alpha  occ. eigenvalues --  -10.30734 -10.30660 -10.30344 -10.30290 -10.30249
 Alpha  occ. eigenvalues --  -10.30055 -10.30029 -10.29788 -10.29785 -10.29411
 Alpha  occ. eigenvalues --  -10.29322 -10.29295 -10.28953 -10.28800 -10.28602
 Alpha  occ. eigenvalues --  -10.28583 -10.28533 -10.28303 -10.28291 -10.28002
 Alpha  occ. eigenvalues --  -10.27952 -10.27891 -10.27889 -10.27743 -10.27655
 Alpha  occ. eigenvalues --  -10.27587 -10.27571 -10.27543 -10.27533 -10.27422
 Alpha  occ. eigenvalues --  -10.27372 -10.27360 -10.27356 -10.27338 -10.27279
 Alpha  occ. eigenvalues --  -10.26963 -10.26949 -10.26604 -10.26553 -10.26398
 Alpha  occ. eigenvalues --  -10.26314 -10.26227 -10.26162 -10.26056 -10.25974
 Alpha  occ. eigenvalues --  -10.25832 -10.25826 -10.25755 -10.25509 -10.25299
 Alpha  occ. eigenvalues --  -10.24993 -10.24932 -10.24763 -10.24698 -10.24655
 Alpha  occ. eigenvalues --  -10.24579  -3.16707  -3.16297  -1.91589  -1.91180
 Alpha  occ. eigenvalues --   -1.91175  -1.91017  -1.90768  -1.90605  -1.16849
 Alpha  occ. eigenvalues --   -1.16563  -1.08795  -1.08559  -1.07348  -1.06863
 Alpha  occ. eigenvalues --   -1.06861  -1.06855  -1.04751  -1.04379  -1.03913
 Alpha  occ. eigenvalues --   -1.03550  -1.03391  -1.02928  -1.02567  -1.02000
 Alpha  occ. eigenvalues --   -0.92139  -0.91878  -0.89637  -0.89392  -0.89380
 Alpha  occ. eigenvalues --   -0.89026  -0.88396  -0.88120  -0.88022  -0.87840
 Alpha  occ. eigenvalues --   -0.87688  -0.87571  -0.87432  -0.87012  -0.85168
 Alpha  occ. eigenvalues --   -0.84886  -0.84037  -0.83781  -0.83102  -0.82829
 Alpha  occ. eigenvalues --   -0.82820  -0.82541  -0.81766  -0.81501  -0.80765
 Alpha  occ. eigenvalues --   -0.80340  -0.78955  -0.78527  -0.77372  -0.77103
 Alpha  occ. eigenvalues --   -0.77036  -0.76796  -0.76097  -0.75723  -0.75016
 Alpha  occ. eigenvalues --   -0.74701  -0.72925  -0.72589  -0.71824  -0.71466
 Alpha  occ. eigenvalues --   -0.69988  -0.69664  -0.69049  -0.68716  -0.67800
 Alpha  occ. eigenvalues --   -0.67496  -0.67417  -0.67100  -0.65472  -0.65162
 Alpha  occ. eigenvalues --   -0.65016  -0.64781  -0.64663  -0.64549  -0.64388
 Alpha  occ. eigenvalues --   -0.64103  -0.62477  -0.62185  -0.60588  -0.60234
 Alpha  occ. eigenvalues --   -0.59985  -0.59677  -0.59140  -0.58884  -0.58659
 Alpha  occ. eigenvalues --   -0.58320  -0.57764  -0.57456  -0.57448  -0.57135
 Alpha  occ. eigenvalues --   -0.56469  -0.56174  -0.56097  -0.55793  -0.55677
 Alpha  occ. eigenvalues --   -0.55470  -0.55349  -0.55152  -0.54667  -0.54396
 Alpha  occ. eigenvalues --   -0.54089  -0.53793  -0.53449  -0.53398  -0.53123
 Alpha  occ. eigenvalues --   -0.53086  -0.53035  -0.52924  -0.52800  -0.52556
 Alpha  occ. eigenvalues --   -0.52513  -0.52313  -0.52059  -0.51806  -0.51785
 Alpha  occ. eigenvalues --   -0.51551  -0.51349  -0.51099  -0.50727  -0.50371
 Alpha  occ. eigenvalues --   -0.50149  -0.50064  -0.49865  -0.49763  -0.49684
 Alpha  occ. eigenvalues --   -0.49381  -0.49375  -0.49269  -0.49090  -0.48988
 Alpha  occ. eigenvalues --   -0.48764  -0.48600  -0.48581  -0.48449  -0.48277
 Alpha  occ. eigenvalues --   -0.48231  -0.47852  -0.47486  -0.47448  -0.47010
 Alpha  occ. eigenvalues --   -0.46944  -0.46744  -0.46603  -0.46509  -0.46440
 Alpha  occ. eigenvalues --   -0.46307  -0.46165  -0.45989  -0.45986  -0.45724
 Alpha  occ. eigenvalues --   -0.45314  -0.45106  -0.44742  -0.44660  -0.44412
 Alpha  occ. eigenvalues --   -0.44363  -0.44287  -0.44249  -0.44181  -0.44010
 Alpha  occ. eigenvalues --   -0.43980  -0.43833  -0.43666  -0.43545  -0.43460
 Alpha  occ. eigenvalues --   -0.43277  -0.43180  -0.42888  -0.42839  -0.42798
 Alpha  occ. eigenvalues --   -0.42759  -0.42453  -0.42138  -0.41867  -0.41861
 Alpha  occ. eigenvalues --   -0.41711  -0.41562  -0.41354  -0.41297  -0.41035
 Alpha  occ. eigenvalues --   -0.40978  -0.40870  -0.40684  -0.40617  -0.40591
 Alpha  occ. eigenvalues --   -0.40454  -0.40391  -0.40129  -0.39512  -0.39334
 Alpha  occ. eigenvalues --   -0.38591  -0.38249  -0.37957  -0.37557  -0.37453
 Alpha  occ. eigenvalues --   -0.37447  -0.37162  -0.37089  -0.36898  -0.36686
 Alpha  occ. eigenvalues --   -0.36351  -0.36117  -0.34446  -0.34143  -0.33982
 Alpha  occ. eigenvalues --   -0.33774  -0.33347  -0.33064  -0.31478  -0.31193
 Alpha  occ. eigenvalues --   -0.31162  -0.30860  -0.30195  -0.29855  -0.29610
 Alpha  occ. eigenvalues --   -0.29482  -0.29216  -0.29103  -0.24241  -0.23923
 Alpha  occ. eigenvalues --   -0.21284  -0.21004
 Alpha virt. eigenvalues --   -0.08933  -0.08680  -0.01903  -0.01572  -0.00217
 Alpha virt. eigenvalues --    0.00085   0.02046   0.02312   0.02890   0.03320
 Alpha virt. eigenvalues --    0.04538   0.04843   0.04889   0.05252   0.05956

 Mulliken charges:
               1
     1  Mg   0.837410
     2  C   -0.003558
     3  C   -0.094838
     4  C   -0.045368
     5  C   -0.063489
     6  N   -0.256823
     7  C   -0.052836
     8  C   -0.013853
     9  C   -0.086843
    10  C    0.045898
    11  C    0.104741
    12  C    0.053667
    13  C   -0.071518
    14  H    0.034950
    15  N   -0.433200
    16  C    0.167880
    17  C   -0.177733
    18  C   -0.004197
    19  C    0.148357
    20  C    0.110229
    21  C    0.012095
    22  O   -0.248504
    23  C    0.062739
    24  N   -0.341179
    25  C    0.041245
    26  C   -0.028349
    27  C   -0.024117
    28  C    0.074998
    29  C    0.076019
    30  C    0.034919
    31  C   -0.004495
    32  N   -0.310510
    33  C    0.080411
    34  C   -0.169442
    35  C    0.008409
    36  C    0.082815
    37  C    0.127285
    38  C    0.046053
    39  O   -0.188253
    40  C   -0.005268
    41  C    0.213043
    42  O   -0.258128
    43  O   -0.304469
    44  C    0.157770
    45  H   -0.017503
    46  H   -0.016062
    47  H   -0.040929
    48  H    0.001215
    49  H   -0.004384
    50  H    0.025671
    51  H    0.016789
    52  H    0.016852
    53  H    0.010072
    54  H    0.043211
    55  H    0.018674
    56  H    0.017854
    57  H    0.005763
    58  H    0.027371
    59  H    0.038576
    60  H    0.037557
    61  H    0.036492
    62  H    0.030135
    63  H    0.017522
    64  H    0.009637
    65  H    0.023814
    66  H    0.012392
    67  H    0.004944
    68  H    0.007003
    69  H    0.004666
    70  H    0.010154
    71  H    0.019039
    72  H    0.027925
    73  H    0.047656
    74  H    0.009549
    75  H    0.046279
    76  H    0.035448
    77  H    0.043468
    78  H    0.046194
    79  H    0.052993
    80  Mg   0.837896
    81  C   -0.016831
    82  C   -0.087646
    83  C   -0.045371
    84  C   -0.064894
    85  N   -0.254573
    86  C   -0.049763
    87  C   -0.015103
    88  C   -0.090460
    89  C    0.045609
    90  C    0.114122
    91  C    0.062602
    92  C   -0.077604
    93  H    0.034238
    94  N   -0.423615
    95  C    0.162826
    96  C   -0.173927
    97  C   -0.007843
    98  C    0.152318
    99  C    0.099220
   100  C    0.015686
   101  O   -0.252932
   102  C    0.061133
   103  N   -0.350011
   104  C    0.037652
   105  C   -0.019898
   106  C   -0.034755
   107  C    0.088898
   108  C    0.073612
   109  C    0.034797
   110  C   -0.007621
   111  N   -0.324075
   112  C    0.078371
   113  C   -0.163274
   114  C    0.002210
   115  C    0.096098
   116  C    0.131507
   117  C    0.042262
   118  O   -0.188209
   119  C    0.000932
   120  C    0.211208
   121  O   -0.251239
   122  O   -0.305525
   123  C    0.152142
   124  H   -0.018351
   125  H   -0.015590
   126  H   -0.040693
   127  H   -0.000619
   128  H   -0.004702
   129  H    0.022337
   130  H    0.015799
   131  H    0.017179
   132  H    0.013613
   133  H    0.037455
   134  H    0.020967
   135  H    0.019280
   136  H    0.009165
   137  H    0.027034
   138  H    0.038448
   139  H    0.038425
   140  H    0.037085
   141  H    0.032819
   142  H    0.014224
   143  H    0.012379
   144  H    0.024817
   145  H    0.012144
   146  H    0.005591
   147  H    0.006054
   148  H    0.003505
   149  H    0.010852
   150  H    0.017669
   151  H    0.030162
   152  H    0.045732
   153  H    0.008316
   154  H    0.046980
   155  H    0.035217
   156  H    0.043773
   157  H    0.049402
   158  H    0.053368
 Sum of Mulliken charges =  -0.00000

 Dipole moment (field-independent basis, Debye):
    X=              6.3915    Y=              1.7572    Z=              4.4300  Tot=              7.9727
 Quadrupole moment (field-independent basis, Debye-Ang):
   XX=           -558.1710   YY=           -493.6308   ZZ=           -495.3640
   XY=             17.4008   XZ=             28.2857   YZ=             55.3041

 Normal termination of Gaussian 16 at Sat Sep 11 16:40:01 2021.
