 Gaussian 16, Revision A.03,
 Gaussian 16:  ES64L-G16RevA.03 25-Dec-2016

 -----------------------------------
 #p cam-b3lyp/Def2SVP td=(nstates=5)
 -----------------------------------

 --------------------------------
 TDDFT excited states in gaussian
 --------------------------------
 Symbolic Z-matrix:
 Charge =  0 Multiplicity = 1

                         Standard orientation:
 ---------------------------------------------------------------------
 Center     Atomic      Atomic             Coordinates (Angstroms)
 Number     Number       Type             X           Y           Z
 ---------------------------------------------------------------------
      1         12           0        5.444724   -0.497105    0.667443
      2          6           0        5.771044    2.518099   -1.233683
      3          6           0        5.948034    1.389031    3.466057
      4          6           0        5.613541   -3.195993    2.323982
      5          6           0        6.097773   -2.248002   -2.274248
      6          7           0        5.800959    1.669275    0.951245
      7          6           0        5.843320    2.725794    0.145550
      8          6           0        5.895844    4.083053    0.908742
      9          6           0        6.512773    3.572836    2.287537
     10          6           0        6.029662    2.133647    2.252007
     11          6           0        8.037857    3.578549    2.311789
     12          6           0        4.473762    4.705707    1.112988
     13          6           0        4.459779    6.172267    1.553850
     14          1           0        3.406222    7.043365    1.055299
     15          7           0        5.253958   -0.824362    2.606350
     16          6           0        5.484422    0.062785    3.603918
     17          6           0        5.202645   -0.658315    4.863798
     18          6           0        4.973261   -2.090740    4.526700
     19          6           0        5.301127   -2.099357    3.123915
     20          6           0        5.124526    0.016964    6.198581
     21          6           0        4.539169   -3.267525    5.342098
     22          8           0        4.626893   -4.466355    4.906568
     23          6           0        4.085174   -2.983555    6.715521
     24          7           0        6.019325   -2.439470    0.162777
     25          6           0        5.943545   -3.434803    1.053032
     26          6           0        6.132186   -4.770179    0.396433
     27          6           0        6.111530   -4.496220   -1.176550
     28          6           0        5.989287   -2.952726   -1.145681
     29          6           0        7.417987   -5.522305    0.766613
     30          6           0        5.088214   -5.300488   -2.017024
     31          6           0        3.682331   -4.869342   -1.663892
     32          7           0        5.688326    0.001274   -1.430966
     33          6           0        5.977142   -0.883783   -2.479743
     34          6           0        6.154935   -0.069196   -3.695845
     35          6           0        5.972368    1.243039   -3.263926
     36          6           0        5.723891    1.249864   -1.861605
     37          6           0        6.503815   -0.560904   -4.984620
     38          6           0        5.953791    2.642876   -3.656315
     39          8           0        6.007772    3.243082   -4.730713
     40          6           0        5.943524    3.533230   -2.336091
     41          6           0        4.875376    4.579601   -2.501850
     42          8           0        3.669513    4.261367   -2.546420
     43          8           0        5.417229    5.796942   -2.343672
     44          6           0        4.405126    6.879846   -2.466637
     45          1           0        6.327302    1.837087    4.386569
     46          1           0        5.573157   -4.159660    2.835991
     47          1           0        6.219812   -2.731471   -3.245236
     48          1           0        6.551204    4.830777    0.461712
     49          1           0        6.084784    4.095213    3.142914
     50          1           0        8.451049    3.810564    1.330279
     51          1           0        8.327832    2.573559    2.619039
     52          1           0        8.410421    4.248198    3.087382
     53          1           0        4.001647    4.246404    1.981440
     54          1           0        3.870791    4.594597    0.211097
     55          1           0        5.436322    6.638258    1.419220
     56          1           0        4.290693    6.203734    2.630242
     57          1           0        5.501327    1.038010    6.153516
     58          1           0        5.820558   -0.500554    6.858447
     59          1           0        4.120019   -0.022308    6.620193
     60          1           0        4.889599   -2.496354    7.266960
     61          1           0        3.729871   -3.931970    7.116917
     62          1           0        3.263840   -2.267516    6.674950
     63          1           0        5.319854   -5.449548    0.651386
     64          1           0        7.071648   -4.718161   -1.643015
     65          1           0        7.240806   -6.516319    1.178009
     66          1           0        7.980515   -4.904259    1.465807
     67          1           0        8.133077   -5.633594   -0.048052
     68          1           0        5.164006   -6.363554   -1.790987
     69          1           0        5.224199   -5.179428   -3.091782
     70          1           0        3.461892   -5.461286   -0.776288
     71          1           0        2.995094   -5.111486   -2.475238
     72          1           0        3.649404   -3.819519   -1.371876
     73          1           0        5.864985   -0.035811   -5.694650
     74          1           0        6.363508   -1.639737   -5.048150
     75          1           0        7.553809   -0.272798   -5.033232
     76          1           0        6.936559    3.972527   -2.246533
     77          1           0        4.754658    7.559076   -3.244267
     78          1           0        4.263718    7.286983   -1.465314
     79          1           0        3.434150    6.588734   -2.868879
     80         12           0       -5.060439   -0.819931   -0.523434
     81          6           0       -7.622671    1.499090    0.444110
     82          6           0       -3.220962    1.866743   -1.539675
     83          6           0       -2.980568   -2.850656   -1.795332
     84          6           0       -7.499517   -3.309144   -0.503144
     85          7           0       -5.475821    1.352415   -0.498513
     86          6           0       -6.457269    2.120822   -0.050584
     87          6           0       -6.141292    3.640551   -0.063411
     88          6           0       -5.016783    3.642683   -1.209861
     89          6           0       -4.508862    2.210470   -1.056698
     90          6           0       -5.585363    3.800637   -2.610256
     91          6           0       -5.565406    4.142913    1.306994
     92          6           0       -5.524540    5.664093    1.468512
     93          1           0       -5.775957    6.230645    2.790737
     94          7           0       -3.170914   -0.550650   -1.067277
     95          6           0       -2.584941    0.611033   -1.425629
     96          6           0       -1.191380    0.273884   -1.754954
     97          6           0       -1.046246   -1.206802   -1.720363
     98          6           0       -2.428818   -1.603103   -1.542817
     99          6           0       -0.134593    1.315142   -1.983894
    100          6           0        0.138945   -2.116118   -1.841498
    101          8           0        0.003905   -3.377969   -2.021295
    102          6           0        1.461339   -1.473668   -1.836998
    103          7           0       -5.252590   -2.748444   -1.275929
    104          6           0       -4.180367   -3.427026   -1.720667
    105          6           0       -4.513462   -4.881345   -1.953880
    106          6           0       -5.975449   -5.090964   -1.340517
    107          6           0       -6.284387   -3.637226   -0.920274
    108          6           0       -4.502783   -5.340760   -3.411698
    109          6           0       -6.140306   -6.216908   -0.283279
    110          6           0       -5.387008   -5.856040    0.976760
    111          7           0       -7.134401   -0.960563    0.065578
    112          6           0       -7.974713   -2.091045   -0.034300
    113          6           0       -9.326817   -1.666706    0.383024
    114          6           0       -9.183252   -0.302368    0.677080
    115          6           0       -7.841313    0.100193    0.439137
    116          6           0      -10.487409   -2.490519    0.405233
    117          6           0       -9.864235    0.891269    1.124510
    118          8           0      -10.989869    1.139650    1.554624
    119          6           0       -8.913511    2.139907    0.872713
    120          6           0       -8.900083    2.973435    2.124741
    121          8           0       -8.411285    2.525628    3.176946
    122          8           0       -9.265812    4.231946    1.820195
    123          6           0       -9.257089    5.099738    3.027954
    124          1           0       -2.658479    2.616700   -2.096500
    125          1           0       -2.278539   -3.617558   -2.130720
    126          1           0       -8.292569   -4.049083   -0.375749
    127          1           0       -6.970282    4.274436   -0.354527
    128          1           0       -4.225821    4.353745   -0.985976
    129          1           0       -6.664712    3.766705   -2.613049
    130          1           0       -5.179531    2.979711   -3.186836
    131          1           0       -5.199649    4.713579   -3.072956
    132          1           0       -4.491252    3.920792    1.346989
    133          1           0       -6.100397    3.706596    2.127996
    134          1           0       -6.129429    6.175550    0.709913
    135          1           0       -4.505231    6.006438    1.274053
    136          1           0       -0.573204    2.312980   -2.107756
    137          1           0        0.323759    1.097504   -2.954666
    138          1           0        0.641772    1.303304   -1.215910
    139          1           0        1.519703   -0.761640   -2.656802
    140          1           0        2.183858   -2.292081   -1.842340
    141          1           0        1.567024   -0.897083   -0.911250
    142          1           0       -3.817431   -5.526090   -1.431448
    143          1           0       -6.708599   -5.356348   -2.116343
    144          1           0       -3.813688   -6.186064   -3.597897
    145          1           0       -4.243726   -4.494721   -4.034306
    146          1           0       -5.472534   -5.633038   -3.810897
    147          1           0       -5.702553   -7.148353   -0.650602
    148          1           0       -7.174875   -6.424679   -0.031295
    149          1           0       -4.363167   -6.168268    0.750151
    150          1           0       -5.785754   -6.400133    1.830568
    151          1           0       -5.374266   -4.770749    1.130507
    152          1           0      -11.003131   -2.276918    1.332006
    153          1           0      -10.228462   -3.544383    0.327204
    154          1           0      -11.001775   -2.126952   -0.488362
    155          1           0       -9.313259    2.689229    0.019465
    156          1           0      -10.253311    5.545575    3.108227
    157          1           0       -8.404890    5.791927    2.892317
    158          1           0       -9.163949    4.614996    3.992738
 ---------------------------------------------------------------------

 SCF Done:  E(RCAM-B3LYP) =  -4069.81392288     A.U. after   18 cycles

 Excitation energies and oscillator strengths:

 Excited State   1:      Singlet-A      1.6574 eV  748.06 nm  f=0.2730  <S**2>=0.000
     309 -> 315        0.11449
     310 -> 316        0.12538
     311 -> 313       -0.46028
     312 -> 314        0.51002
 This state for optimization and/or second-order correction.
 Total Energy, E(TD-HF/TD-DFT) =  -4069.75301390
 Copying the excited state density for this state as the 1-particle RhoCI density.

 Excited State   2:      Singlet-A      1.6915 eV  732.98 nm  f=0.5099  <S**2>=0.000
     309 -> 315       -0.13307
     310 -> 316        0.11822
     311 -> 313        0.50857
     312 -> 314        0.45912

 Excited State   3:      Singlet-A      2.1866 eV  567.03 nm  f=0.0154  <S**2>=0.000
     309 -> 313       -0.31577
     310 -> 314        0.56068
     311 -> 315       -0.13225
     312 -> 316       -0.23758

 Excited State   4:      Singlet-A      2.1980 eV  564.08 nm  f=0.1628  <S**2>=0.000
     309 -> 313        0.55778
     310 -> 314        0.31244
     311 -> 315        0.24542
     312 -> 316       -0.13679

 Excited State   5:      Singlet-A      2.4179 eV  512.77 nm  f=0.0000  <S**2>=0.000
     312 -> 313        0.70670

 The electronic state is 1-A.
 Alpha  occ. eigenvalues --  -46.88043 -46.87430 -19.26695 -19.26225 -19.19483
 Alpha  occ. eigenvalues --  -19.19024 -19.18928 -19.18545 -19.18436 -19.17840
 Alpha  occ. eigenvalues --  -14.42675 -14.42269 -14.41625 -14.41129 -14.39613
 Alpha  occ. eigenvalues --  -14.39114 -14.38840 -14.38370 -10.39514 -10.38948
 Alpha  occ. eigenvalues --  -10.35556 -10.35164 -10.34665 -10.34024 -10.32088
 Alpha  occ. eigenvalues --  -10.31663 -10.31645 -10.31136 -10.31081 -10.30798
 Alpha  occ. eigenvalues --  -10.30769 -10.30705 -10.30326 -10.30187 -10.30109
 Alpha  occ. eigenvalues --  -10.30078 -10.29892 -10.29829 -10.29705 -10.29443
 Alpha  occ. eigenvalues --  -10.29166 -10.29120 -10.29020 -10.28867 -10.28601
 Alpha  occ. eigenvalues --  -10.28542 -10.28518 -10.28357 -10.28151 -10.28003
 Alpha  occ. eigenvalues --  -10.27929 -10.27916 -10.27773 -10.27742 -10.27636
 Alpha  occ. eigenvalues --  -10.27622 -10.27459 -10.27454 -10.27446 -10.27403
 Alpha  occ. eigenvalues --  -10.27335 -10.27259 -10.27209 -10.27179 -10.27051
 Alpha  occ. eigenvalues --  -10.26862 -10.26697 -10.26537 -10.26473 -10.26440
 Alpha  occ. eigenvalues --  -10.26176 -10.26085 -10.26026 -10.25981 -10.25915
 Alpha  occ. eigenvalues --  -10.25793 -10.25700 -10.25657 -10.25446 -10.25255
 Alpha  occ. eigenvalues --  -10.25065 -10.24955 -10.24629 -10.24578 -10.24472
 Alpha  occ. eigenvalues --  -10.24162  -3.16776  -3.16181  -1.91660  -1.91243
 Alpha  occ. eigenvalues --   -1.91086  -1.91064  -1.90652  -1.90488  -1.17048
 Alpha  occ. eigenvalues --   -1.16515  -1.08911  -1.08459  -1.07322  -1.07088
 Alpha  occ. eigenvalues --   -1.06807  -1.06765  -1.04808  -1.04263  -1.03941
 Alpha  occ. eigenvalues --   -1.03439  -1.03435  -1.02807  -1.02611  -1.01877
 Alpha  occ. eigenvalues --   -0.92216  -0.91765  -0.89590  -0.89428  -0.89285
 Alpha  occ. eigenvalues --   -0.88943  -0.88318  -0.88079  -0.88026  -0.87874
 Alpha  occ. eigenvalues --   -0.87569  -0.87447  -0.87433  -0.86741  -0.85214
 Alpha  occ. eigenvalues --   -0.84789  -0.83948  -0.83696  -0.83031  -0.82839
 Alpha  occ. eigenvalues --   -0.82637  -0.82401  -0.81855  -0.81416  -0.80810
 Alpha  occ. eigenvalues --   -0.80231  -0.78972  -0.78301  -0.77380  -0.77119
 Alpha  occ. eigenvalues --   -0.76887  -0.76715  -0.76148  -0.75595  -0.74967
 Alpha  occ. eigenvalues --   -0.74594  -0.72951  -0.72454  -0.71857  -0.71364
 Alpha  occ. eigenvalues --   -0.69810  -0.69571  -0.69083  -0.68603  -0.67843
 Alpha  occ. eigenvalues --   -0.67454  -0.67379  -0.66981  -0.65532  -0.65080
 Alpha  occ. eigenvalues --   -0.65067  -0.64803  -0.64555  -0.64458  -0.64307
 Alpha  occ. eigenvalues --   -0.64004  -0.62568  -0.62102  -0.60583  -0.60047
 Alpha  occ. eigenvalues --   -0.60025  -0.59574  -0.59176  -0.58774  -0.58699
 Alpha  occ. eigenvalues --   -0.58197  -0.57889  -0.57440  -0.57365  -0.57002
 Alpha  occ. eigenvalues --   -0.56525  -0.56278  -0.55939  -0.55705  -0.55686
 Alpha  occ. eigenvalues --   -0.55472  -0.55202  -0.55062  -0.54650  -0.54320
 Alpha  occ. eigenvalues --   -0.54149  -0.53707  -0.53455  -0.53435  -0.53157
 Alpha  occ. eigenvalues --   -0.53003  -0.52924  -0.52917  -0.52700  -0.52380
 Alpha  occ. eigenvalues --   -0.52296  -0.52212  -0.52110  -0.51852  -0.51678
 Alpha  occ. eigenvalues --   -0.51453  -0.51341  -0.50992  -0.50677  -0.50158
 Alpha  occ. eigenvalues --   -0.50116  -0.49948  -0.49717  -0.49660  -0.49619
 Alpha  occ. eigenvalues --   -0.49434  -0.49313  -0.49247  -0.48940  -0.48896
 Alpha  occ. eigenvalues --   -0.48848  -0.48624  -0.48540  -0.48345  -0.48190
 Alpha  occ. eigenvalues --   -0.48065  -0.47852  -0.47465  -0.47332  -0.46965
 Alpha  occ. eigenvalues --   -0.46810  -0.46774  -0.46547  -0.46486  -0.46382
 Alpha  occ. eigenvalues --   -0.46271  -0.46072  -0.45991  -0.45864  -0.45639
 Alpha  occ. eigenvalues --   -0.45251  -0.45009  -0.44813  -0.44666  -0.44367
 Alpha  occ. eigenvalues --   -0.44338  -0.44309  -0.44229  -0.44144  -0.43905
 Alpha  occ. eigenvalues --   -0.43840  -0.43762  -0.43685  -0.43460  -0.43379
 Alpha  occ. eigenvalues --   -0.43197  -0.43167  -0.43033  -0.42759  -0.42677
 Alpha  occ. eigenvalues --   -0.42615  -0.42316  -0.41995  -0.41890  -0.41775
 Alpha  occ. eigenvalues --   -0.41662  -0.41455  -0.41330  -0.41257  -0.41033
 Alpha  occ. eigenvalues --   -0.40958  -0.40770  -0.40554  -0.40506  -0.40491
 Alpha  occ. eigenvalues --   -0.40488  -0.40303  -0.40048  -0.39272  -0.39248
 Alpha  occ. eigenvalues --   -0.38530  -0.38166  -0.38012  -0.37519  -0.37476
 Alpha  occ. eigenvalues --   -0.37394  -0.37060  -0.37044  -0.36969  -0.36624
 Alpha  occ. eigenvalues --   -0.36356  -0.36030  -0.34502  -0.34191  -0.34029
 Alpha  occ. eigenvalues --   -0.33707  -0.33398  -0.32947  -0.31461  -0.31232
 Alpha  occ. eigenvalues --   -0.31057  -0.30751  -0.30303  -0.29753  -0.29653
 Alpha  occ. eigenvalues --   -0.29546  -0.29058  -0.28962  -0.24294  -0.23808
 Alpha  occ. eigenvalues --   -0.21321  -0.20873
 Alpha virt. eigenvalues --   -0.08972  -0.08538  -0.01932  -0.01466  -0.00241
 Alpha virt. eigenvalues --    0.00214   0.01970   0.02334   0.02581   0.03420
 Alpha virt. eigenvalues --    0.04489   0.04688   0.04936   0.05317   0.05850

 Mulliken charges:
               1
     1  Mg   0.827735
     2  C   -0.004586
     3  C   -0.094164
     4  C   -0.044442
     5  C   -0.063834
     6  N   -0.256444
     7  C   -0.054259
     8  C   -0.013465
     9  C   -0.086958
    10  C    0.046329
    11  C    0.104645
    12  C    0.053228
    13  C   -0.071636
    14  H    0.034559
    15  N   -0.433516
    16  C    0.168606
    17  C   -0.176811
    18  C   -0.003218
    19  C    0.148818
    20  C    0.110010
    21  C    0.013168
    22  O   -0.248068
    23  C    0.062154
    24  N   -0.341057
    25  C    0.041726
    26  C   -0.028717
    27  C   -0.025551
    28  C    0.074302
    29  C    0.076615
    30  C    0.036665
    31  C   -0.013575
    32  N   -0.310172
    33  C    0.079153
    34  C   -0.171227
    35  C    0.007498
    36  C    0.079209
    37  C    0.127659
    38  C    0.044284
    39  O   -0.188935
    40  C   -0.004985
    41  C    0.213880
    42  O   -0.261950
    43  O   -0.303654
    44  C    0.157938
    45  H   -0.017090
    46  H   -0.015415
    47  H   -0.040695
    48  H    0.001098
    49  H   -0.003778
    50  H    0.025651
    51  H    0.017034
    52  H    0.017212
    53  H    0.011170
    54  H    0.041016
    55  H    0.018840
    56  H    0.018904
    57  H    0.005942
    58  H    0.027566
    59  H    0.040503
    60  H    0.037328
    61  H    0.036763
    62  H    0.032054
    63  H    0.018599
    64  H    0.008973
    65  H    0.023803
    66  H    0.011891
    67  H    0.004912
    68  H    0.005617
    69  H    0.003857
    70  H    0.006935
    71  H    0.031113
    72  H    0.043756
    73  H    0.046380
    74  H    0.010553
    75  H    0.046434
    76  H    0.035960
    77  H    0.043934
    78  H    0.046933
    79  H    0.051522
    80  Mg   0.836773
    81  C   -0.016869
    82  C   -0.087056
    83  C   -0.045871
    84  C   -0.065119
    85  N   -0.254374
    86  C   -0.050671
    87  C   -0.015030
    88  C   -0.090309
    89  C    0.045064
    90  C    0.114287
    91  C    0.062596
    92  C   -0.077336
    93  H    0.033239
    94  N   -0.423594
    95  C    0.161947
    96  C   -0.177013
    97  C   -0.001364
    98  C    0.152256
    99  C    0.102116
   100  C    0.009802
   101  O   -0.255116
   102  C    0.057594
   103  N   -0.350075
   104  C    0.037871
   105  C   -0.019851
   106  C   -0.034521
   107  C    0.088463
   108  C    0.073831
   109  C    0.034928
   110  C   -0.007524
   111  N   -0.323829
   112  C    0.077632
   113  C   -0.163914
   114  C    0.001921
   115  C    0.095547
   116  C    0.131654
   117  C    0.041800
   118  O   -0.189136
   119  C    0.001036
   120  C    0.211164
   121  O   -0.251523
   122  O   -0.305537
   123  C    0.152277
   124  H   -0.016788
   125  H   -0.016455
   126  H   -0.041256
   127  H   -0.001123
   128  H   -0.003842
   129  H    0.021929
   130  H    0.015088
   131  H    0.016652
   132  H    0.013828
   133  H    0.037117
   134  H    0.020810
   135  H    0.019458
   136  H    0.012747
   137  H    0.033200
   138  H    0.043789
   139  H    0.046721
   140  H    0.028620
   141  H    0.034032
   142  H    0.013945
   143  H    0.011943
   144  H    0.024204
   145  H    0.011918
   146  H    0.005440
   147  H    0.005604
   148  H    0.003297
   149  H    0.010844
   150  H    0.017422
   151  H    0.030322
   152  H    0.045229
   153  H    0.007965
   154  H    0.046364
   155  H    0.034703
   156  H    0.043526
   157  H    0.049270
   158  H    0.053075
 Sum of Mulliken charges =  -0.00000

 Dipole moment (field-independent basis, Debye):
    X=              4.9473    Y=              2.8535    Z=              1.7235  Tot=              5.9657
 Quadrupole moment (field-independent basis, Debye-Ang):
   XX=           -547.8552   YY=           -467.2274   ZZ=           -514.6686
   XY=             12.4431   XZ=             46.2883   YZ=             32.0519

 Normal termination of Gaussian 16 at Fri Sep 10 09:48:31 2021.
