 Gaussian 16, Revision A.03,
 Gaussian 16:  ES64L-G16RevA.03 25-Dec-2016

 -----------------------------------
 #p cam-b3lyp/Def2SVP td=(nstates=5)
 -----------------------------------

 --------------------------------
 TDDFT excited states in gaussian
 --------------------------------
 Symbolic Z-matrix:
 Charge =  0 Multiplicity = 1

                         Standard orientation:
 ---------------------------------------------------------------------
 Center     Atomic      Atomic             Coordinates (Angstroms)
 Number     Number       Type             X           Y           Z
 ---------------------------------------------------------------------
      1         12           0       -3.169259   -2.245114    0.156137
      2          6           0       -5.396603    0.553654    0.290492
      3          6           0       -4.110234   -2.648055   -3.098901
      4          6           0       -1.563198   -4.979531    0.143859
      5          6           0       -3.278909   -2.311512    3.638841
      6          7           0       -4.580813   -1.124112   -1.128977
      7          6           0       -5.326421   -0.034465   -0.974354
      8          6           0       -5.967598    0.468933   -2.302080
      9          6           0       -5.959201   -0.899426   -3.120324
     10          6           0       -4.791615   -1.585866   -2.433690
     11          6           0       -7.214454   -1.740837   -2.913271
     12          6           0       -5.095889    1.562717   -3.005990
     13          6           0       -5.797677    2.336838   -4.125626
     14          1           0       -5.486652    3.747168   -4.303331
     15          7           0       -2.495928   -3.328698   -1.352279
     16          6           0       -2.989211   -3.355709   -2.613718
     17          6           0       -2.147585   -4.315612   -3.359998
     18          6           0       -1.245519   -4.985607   -2.382512
     19          6           0       -1.756796   -4.470417   -1.138104
     20          6           0       -2.213345   -4.484859   -4.846867
     21          6           0       -0.110657   -5.946994   -2.543622
     22          8           0        0.386992   -6.583967   -1.553074
     23          6           0        0.350953   -6.193405   -3.921751
     24          7           0       -2.684022   -3.613713    1.655842
     25          6           0       -1.929047   -4.686148    1.393390
     26          6           0       -1.479668   -5.359771    2.656018
     27          6           0       -1.885969   -4.379165    3.848948
     28          6           0       -2.611885   -3.289533    3.021895
     29          6           0       -2.068653   -6.752880    2.917466
     30          6           0       -0.756653   -3.941672    4.815212
     31          6           0        0.231035   -3.059863    4.084470
     32          7           0       -4.006312   -0.995681    1.721163
     33          6           0       -3.950931   -1.225389    3.103495
     34          6           0       -4.749615   -0.167642    3.749516
     35          6           0       -5.230895    0.599230    2.690213
     36          6           0       -4.784136    0.039696    1.459107
     37          6           0       -4.997811   -0.045792    5.145219
     38          6           0       -6.038944    1.746834    2.310847
     39          8           0       -6.595231    2.657291    2.926563
     40          6           0       -6.279092    1.692460    0.737571
     41          6           0       -5.992213    3.062573    0.186389
     42          8           0       -4.835040    3.529512    0.203246
     43          8           0       -7.067111    3.506481   -0.482999
     44          6           0       -6.838599    4.849193   -1.080543
     45          1           0       -4.502914   -3.013262   -4.049883
     46          1           0       -0.920734   -5.861228    0.191708
     47          1           0       -3.288980   -2.218797    4.726387
     48          1           0       -6.988910    0.836982   -2.202654
     49          1           0       -5.738309   -0.741130   -4.175725
     50          1           0       -7.851919   -1.320645   -2.135456
     51          1           0       -6.857758   -2.728615   -2.620771
     52          1           0       -7.746457   -1.880997   -3.854603
     53          1           0       -4.307170    1.078250   -3.581555
     54          1           0       -4.697284    2.267492   -2.275420
     55          1           0       -6.876979    2.184002   -4.099963
     56          1           0       -5.486722    1.913173   -5.080621
     57          1           0       -3.082069   -3.981390   -5.269222
     58          1           0       -2.392161   -5.542541   -5.039331
     59          1           0       -1.290744   -4.172933   -5.336604
     60          1           0       -0.477763   -6.580347   -4.515093
     61          1           0        1.225254   -6.837598   -3.835364
     62          1           0        0.634503   -5.242808   -4.374424
     63          1           0       -0.399542   -5.500226    2.661223
     64          1           0       -2.639052   -4.820165    4.502446
     65          1           0       -1.314763   -7.530046    3.045404
     66          1           0       -2.742726   -6.993402    2.095843
     67          1           0       -2.740536   -6.811813    3.773339
     68          1           0       -0.206429   -4.810975    5.173696
     69          1           0       -1.122273   -3.398140    5.686502
     70          1           0        0.887271   -3.780602    3.597928
     71          1           0        0.785562   -2.442385    4.791881
     72          1           0       -0.256584   -2.481433    3.299529
     73          1           0       -4.878995    1.010772    5.385061
     74          1           0       -4.311799   -0.663131    5.724773
     75          1           0       -6.026661   -0.401341    5.199152
     76          1           0       -7.318306    1.400771    0.588999
     77          1           0       -7.628968    5.503237   -0.712062
     78          1           0       -6.766108    4.700574   -2.158069
     79          1           0       -5.952231    5.384564   -0.738389
     80         12           0        3.308123    2.345807   -0.141048
     81          6           0        5.200855   -0.694476   -0.371971
     82          6           0        2.879808    1.651947    3.171006
     83          6           0        1.266952    4.770848    0.001129
     84          6           0        2.918888    2.202974   -3.601369
     85          7           0        3.999891    0.665676    1.120250
     86          6           0        4.764355   -0.400250    0.936594
     87          6           0        5.145245   -1.151003    2.240760
     88          6           0        3.917936   -0.673975    3.160020
     89          6           0        3.594466    0.648916    2.468647
     90          6           0        2.700758   -1.577767    3.055302
     91          6           0        6.520612   -0.673157    2.825598
     92          6           0        7.101389   -1.571939    3.919507
     93          1           0        8.550496   -1.739662    3.986015
     94          7           0        2.636070    3.368866    1.421084
     95          6           0        2.553598    2.942264    2.698764
     96          6           0        1.973975    4.060060    3.459522
     97          6           0        1.568405    5.121301    2.498279
     98          6           0        1.793955    4.437854    1.240456
     99          6           0        1.922690    4.083436    4.959606
    100          6           0        1.049716    6.515481    2.681066
    101          8           0        0.536765    7.175842    1.709654
    102          6           0        1.074586    7.049943    4.050459
    103          7           0        2.068150    3.229899   -1.556391
    104          6           0        1.321131    4.304060   -1.246457
    105          6           0        0.726944    4.931045   -2.485101
    106          6           0        1.429711    4.194817   -3.718662
    107          6           0        2.280201    3.162663   -2.946194
    108          6           0       -0.791170    4.819850   -2.624162
    109          6           0        2.135364    5.097228   -4.767650
    110          6           0        3.343855    5.761101   -4.147807
    111          7           0        4.082261    1.121466   -1.744095
    112          6           0        3.769009    1.216679   -3.117735
    113          6           0        4.452002    0.097608   -3.798627
    114          6           0        5.101676   -0.589901   -2.762415
    115          6           0        4.825446    0.043412   -1.520599
    116          6           0        4.381189   -0.197649   -5.189281
    117          6           0        5.949685   -1.713581   -2.435387
    118          8           0        6.567109   -2.554645   -3.087394
    119          6           0        5.948570   -1.905165   -0.857520
    120          6           0        7.374347   -2.074510   -0.409175
    121          8           0        8.187841   -1.140769   -0.522985
    122          8           0        7.487090   -3.227552    0.275051
    123          6           0        8.881089   -3.434727    0.750129
    124          1           0        2.494489    1.415907    4.163327
    125          1           0        0.644159    5.668143   -0.020729
    126          1           0        2.926916    2.146314   -4.691970
    127          1           0        5.150029   -2.231254    2.158194
    128          1           0        4.235994   -0.500825    4.184825
    129          1           0        2.820636   -2.327678    2.287582
    130          1           0        1.869529   -0.925750    2.820791
    131          1           0        2.472905   -2.017719    4.030417
    132          1           0        6.363995    0.247487    3.402346
    133          1           0        7.242878   -0.543419    2.043220
    134          1           0        6.599408   -2.546175    3.962184
    135          1           0        6.888913   -1.118182    4.890573
    136          1           0        2.142122    3.096380    5.385025
    137          1           0        0.881576    4.275153    5.241008
    138          1           0        2.554554    4.862982    5.390565
    139          1           0        0.490156    6.403675    4.701022
    140          1           0        0.748494    8.088314    3.964852
    141          1           0        2.105785    7.018541    4.419596
    142          1           0        0.955331    5.988808   -2.530712
    143          1           0        0.706338    3.621362   -4.316760
    144          1           0       -1.292797    5.800345   -2.729464
    145          1           0       -1.174587    4.286985   -1.764174
    146          1           0       -1.135066    4.201303   -3.451406
    147          1           0        1.467812    5.902064   -5.085114
    148          1           0        2.442649    4.562739   -5.660333
    149          1           0        2.914273    6.627987   -3.636864
    150          1           0        4.050022    6.066429   -4.917320
    151          1           0        3.796850    5.119049   -3.383470
    152          1           0        5.386337   -0.440205   -5.507643
    153          1           0        3.975854    0.639764   -5.753389
    154          1           0        3.697725   -1.050801   -5.172979
    155          1           0        5.342219   -2.783940   -0.634642
    156          1           0        9.206093   -4.408864    0.371815
    157          1           0        8.844407   -3.307600    1.848419
    158          1           0        9.649398   -2.784682    0.348157
 ---------------------------------------------------------------------

 SCF Done:  E(RCAM-B3LYP) =  -4069.80639525     A.U. after   19 cycles

 Excitation energies and oscillator strengths:

 Excited State   1:      Singlet-A      1.6377 eV  757.06 nm  f=0.0028  <S**2>=0.000
     309 -> 315        0.11132
     310 -> 316        0.12125
     311 -> 313        0.46505
     312 -> 314        0.50744
 This state for optimization and/or second-order correction.
 Total Energy, E(TD-HF/TD-DFT) =  -4069.74621059
 Copying the excited state density for this state as the 1-particle RhoCI density.

 Excited State   2:      Singlet-A      1.7125 eV  724.00 nm  f=0.6782  <S**2>=0.000
     309 -> 315        0.13569
     310 -> 316       -0.12399
     311 -> 313        0.50398
     312 -> 314       -0.46190

 Excited State   3:      Singlet-A      2.1797 eV  568.82 nm  f=0.0073  <S**2>=0.000
     309 -> 313        0.35956
     310 -> 314        0.53747
     311 -> 315       -0.14722
     312 -> 316       -0.22071

 Excited State   4:      Singlet-A      2.1996 eV  563.66 nm  f=0.1597  <S**2>=0.000
     309 -> 313        0.53047
     310 -> 314       -0.35358
     311 -> 315       -0.23642
     312 -> 316        0.15857

 Excited State   5:      Singlet-A      2.2288 eV  556.28 nm  f=0.0000  <S**2>=0.000
     312 -> 313        0.70705

 The electronic state is 1-A.
 Alpha  occ. eigenvalues --  -46.87929 -46.87373 -19.26321 -19.26122 -19.19064
 Alpha  occ. eigenvalues --  -19.18930 -19.18837 -19.18347 -19.18265 -19.17792
 Alpha  occ. eigenvalues --  -14.42581 -14.42199 -14.41605 -14.41070 -14.39521
 Alpha  occ. eigenvalues --  -14.39052 -14.38719 -14.38323 -10.39128 -10.38853
 Alpha  occ. eigenvalues --  -10.35462 -10.35019 -10.34485 -10.33971 -10.31691
 Alpha  occ. eigenvalues --  -10.31561 -10.31543 -10.31051 -10.31015 -10.30707
 Alpha  occ. eigenvalues --  -10.30705 -10.30642 -10.30365 -10.30113 -10.30107
 Alpha  occ. eigenvalues --  -10.30093 -10.29832 -10.29749 -10.29602 -10.29376
 Alpha  occ. eigenvalues --  -10.29127 -10.29123 -10.28868 -10.28676 -10.28474
 Alpha  occ. eigenvalues --  -10.28473 -10.28426 -10.28236 -10.28101 -10.27910
 Alpha  occ. eigenvalues --  -10.27858 -10.27779 -10.27748 -10.27716 -10.27685
 Alpha  occ. eigenvalues --  -10.27680 -10.27537 -10.27525 -10.27387 -10.27259
 Alpha  occ. eigenvalues --  -10.27245 -10.27182 -10.27172 -10.27164 -10.27044
 Alpha  occ. eigenvalues --  -10.26846 -10.26768 -10.26503 -10.26453 -10.26339
 Alpha  occ. eigenvalues --  -10.26317 -10.26191 -10.26037 -10.26033 -10.25953
 Alpha  occ. eigenvalues --  -10.25745 -10.25673 -10.25621 -10.25469 -10.25169
 Alpha  occ. eigenvalues --  -10.24949 -10.24929 -10.24908 -10.24595 -10.24550
 Alpha  occ. eigenvalues --  -10.24360  -3.16672  -3.16123  -1.91553  -1.91140
 Alpha  occ. eigenvalues --   -1.91006  -1.90982  -1.90594  -1.90431  -1.16672
 Alpha  occ. eigenvalues --   -1.16414  -1.08720  -1.08408  -1.07233  -1.06715
 Alpha  occ. eigenvalues --   -1.06684  -1.06586  -1.04707  -1.04200  -1.03906
 Alpha  occ. eigenvalues --   -1.03368  -1.03365  -1.02748  -1.02547  -1.01819
 Alpha  occ. eigenvalues --   -0.92089  -0.91701  -0.89753  -0.89314  -0.89225
 Alpha  occ. eigenvalues --   -0.88863  -0.88500  -0.88015  -0.87928  -0.87811
 Alpha  occ. eigenvalues --   -0.87570  -0.87403  -0.87342  -0.86805  -0.85110
 Alpha  occ. eigenvalues --   -0.84736  -0.84201  -0.83586  -0.83057  -0.82739
 Alpha  occ. eigenvalues --   -0.82603  -0.82357  -0.81687  -0.81349  -0.80702
 Alpha  occ. eigenvalues --   -0.80168  -0.78899  -0.78353  -0.77454  -0.77110
 Alpha  occ. eigenvalues --   -0.76859  -0.76625  -0.76043  -0.75606  -0.75058
 Alpha  occ. eigenvalues --   -0.74473  -0.72930  -0.72435  -0.71809  -0.71323
 Alpha  occ. eigenvalues --   -0.70245  -0.69492  -0.68998  -0.68520  -0.67754
 Alpha  occ. eigenvalues --   -0.67326  -0.67310  -0.66925  -0.65425  -0.65037
 Alpha  occ. eigenvalues --   -0.64970  -0.64771  -0.64518  -0.64470  -0.64345
 Alpha  occ. eigenvalues --   -0.63925  -0.62394  -0.62027  -0.60550  -0.60027
 Alpha  occ. eigenvalues --   -0.59926  -0.59513  -0.59132  -0.58707  -0.58637
 Alpha  occ. eigenvalues --   -0.58144  -0.57684  -0.57449  -0.57299  -0.56945
 Alpha  occ. eigenvalues --   -0.56427  -0.56056  -0.55960  -0.55730  -0.55622
 Alpha  occ. eigenvalues --   -0.55552  -0.55164  -0.54980  -0.54765  -0.54220
 Alpha  occ. eigenvalues --   -0.54019  -0.53691  -0.53403  -0.53294  -0.53102
 Alpha  occ. eigenvalues --   -0.52948  -0.52871  -0.52825  -0.52736  -0.52601
 Alpha  occ. eigenvalues --   -0.52332  -0.52178  -0.52070  -0.51718  -0.51709
 Alpha  occ. eigenvalues --   -0.51395  -0.51351  -0.50954  -0.50638  -0.50303
 Alpha  occ. eigenvalues --   -0.50150  -0.49996  -0.49685  -0.49602  -0.49555
 Alpha  occ. eigenvalues --   -0.49320  -0.49218  -0.49186  -0.48946  -0.48853
 Alpha  occ. eigenvalues --   -0.48705  -0.48598  -0.48496  -0.48310  -0.48080
 Alpha  occ. eigenvalues --   -0.48011  -0.47822  -0.47411  -0.47313  -0.47051
 Alpha  occ. eigenvalues --   -0.46828  -0.46681  -0.46575  -0.46431  -0.46313
 Alpha  occ. eigenvalues --   -0.46259  -0.46005  -0.45936  -0.45823  -0.45634
 Alpha  occ. eigenvalues --   -0.45272  -0.44829  -0.44787  -0.44636  -0.44397
 Alpha  occ. eigenvalues --   -0.44261  -0.44197  -0.44135  -0.44092  -0.43799
 Alpha  occ. eigenvalues --   -0.43797  -0.43686  -0.43584  -0.43520  -0.43303
 Alpha  occ. eigenvalues --   -0.43217  -0.43081  -0.42928  -0.42742  -0.42679
 Alpha  occ. eigenvalues --   -0.42599  -0.42284  -0.42198  -0.41836  -0.41713
 Alpha  occ. eigenvalues --   -0.41662  -0.41390  -0.41277  -0.41161  -0.41060
 Alpha  occ. eigenvalues --   -0.40886  -0.40773  -0.40738  -0.40460  -0.40365
 Alpha  occ. eigenvalues --   -0.40350  -0.40241  -0.39946  -0.39344  -0.39175
 Alpha  occ. eigenvalues --   -0.38679  -0.38040  -0.37875  -0.37508  -0.37386
 Alpha  occ. eigenvalues --   -0.37366  -0.36983  -0.36911  -0.36777  -0.36523
 Alpha  occ. eigenvalues --   -0.36293  -0.35922  -0.34421  -0.33965  -0.33824
 Alpha  occ. eigenvalues --   -0.33618  -0.33313  -0.32890  -0.31377  -0.31156
 Alpha  occ. eigenvalues --   -0.30907  -0.30659  -0.30126  -0.29702  -0.29549
 Alpha  occ. eigenvalues --   -0.29439  -0.29029  -0.28934  -0.24216  -0.23745
 Alpha  occ. eigenvalues --   -0.21265  -0.20822
 Alpha virt. eigenvalues --   -0.08893  -0.08497  -0.01884  -0.01377  -0.00133
 Alpha virt. eigenvalues --    0.00298   0.02071   0.02368   0.02587   0.03614
 Alpha virt. eigenvalues --    0.04570   0.05013   0.05047   0.05411   0.05962

 Mulliken charges:
               1
     1  Mg   0.838871
     2  C   -0.002357
     3  C   -0.093906
     4  C   -0.046515
     5  C   -0.065249
     6  N   -0.256551
     7  C   -0.052854
     8  C   -0.013925
     9  C   -0.087027
    10  C    0.046345
    11  C    0.104721
    12  C    0.052714
    13  C   -0.071933
    14  H    0.035785
    15  N   -0.433465
    16  C    0.169012
    17  C   -0.176605
    18  C   -0.003063
    19  C    0.149228
    20  C    0.110199
    21  C    0.013326
    22  O   -0.249338
    23  C    0.062143
    24  N   -0.340809
    25  C    0.040913
    26  C   -0.028866
    27  C   -0.025236
    28  C    0.073732
    29  C    0.076280
    30  C    0.071222
    31  C   -0.053338
    32  N   -0.310423
    33  C    0.079832
    34  C   -0.171002
    35  C    0.008585
    36  C    0.083042
    37  C    0.127534
    38  C    0.046398
    39  O   -0.188192
    40  C   -0.005495
    41  C    0.212654
    42  O   -0.255823
    43  O   -0.305076
    44  C    0.156906
    45  H   -0.017083
    46  H   -0.016738
    47  H   -0.042950
    48  H    0.001322
    49  H   -0.003974
    50  H    0.025683
    51  H    0.016569
    52  H    0.017024
    53  H    0.010546
    54  H    0.044820
    55  H    0.018537
    56  H    0.017731
    57  H    0.005710
    58  H    0.027537
    59  H    0.040515
    60  H    0.036799
    61  H    0.038396
    62  H    0.032830
    63  H    0.015793
    64  H    0.009679
    65  H    0.023411
    66  H    0.013427
    67  H    0.004909
    68  H    0.004070
    69  H    0.000912
    70  H    0.017338
    71  H    0.024951
    72  H    0.035753
    73  H    0.046630
    74  H    0.007525
    75  H    0.046462
    76  H    0.035277
    77  H    0.043315
    78  H    0.045816
    79  H    0.055546
    80  Mg   0.836511
    81  C   -0.017150
    82  C   -0.088685
    83  C   -0.040741
    84  C   -0.065851
    85  N   -0.254995
    86  C   -0.050084
    87  C   -0.015646
    88  C   -0.077032
    89  C    0.046794
    90  C    0.095455
    91  C    0.063859
    92  C   -0.077320
    93  H    0.033978
    94  N   -0.424338
    95  C    0.163842
    96  C   -0.172735
    97  C   -0.004807
    98  C    0.152094
    99  C    0.098625
   100  C    0.017792
   101  O   -0.251636
   102  C    0.060893
   103  N   -0.350090
   104  C    0.038033
   105  C   -0.020492
   106  C   -0.033689
   107  C    0.088349
   108  C    0.070634
   109  C    0.035046
   110  C   -0.007431
   111  N   -0.323721
   112  C    0.077881
   113  C   -0.164890
   114  C    0.001659
   115  C    0.095673
   116  C    0.131953
   117  C    0.041481
   118  O   -0.189497
   119  C    0.000981
   120  C    0.210911
   121  O   -0.251605
   122  O   -0.305133
   123  C    0.152365
   124  H   -0.020804
   125  H   -0.013158
   126  H   -0.042629
   127  H   -0.000829
   128  H   -0.006875
   129  H    0.023822
   130  H    0.016651
   131  H    0.018224
   132  H    0.013411
   133  H    0.037269
   134  H    0.020240
   135  H    0.018812
   136  H    0.007418
   137  H    0.028807
   138  H    0.039192
   139  H    0.040136
   140  H    0.036210
   141  H    0.032340
   142  H    0.013500
   143  H    0.009997
   144  H    0.023153
   145  H    0.025250
   146  H    0.001776
   147  H    0.005225
   148  H    0.002038
   149  H    0.010993
   150  H    0.016880
   151  H    0.030558
   152  H    0.045409
   153  H    0.007527
   154  H    0.043145
   155  H    0.036826
   156  H    0.043618
   157  H    0.049145
   158  H    0.053003
 Sum of Mulliken charges =  -0.00000

 Dipole moment (field-independent basis, Debye):
    X=             -3.6073    Y=             -2.3724    Z=              0.1971  Tot=              4.3220
 Quadrupole moment (field-independent basis, Debye-Ang):
   XX=           -538.6102   YY=           -532.7812   ZZ=           -449.6080
   XY=             21.8132   XZ=             59.8779   YZ=            -22.3141

 Normal termination of Gaussian 16 at Wed Sep  8 18:32:38 2021.
