 Gaussian 16, Revision A.03,
 Gaussian 16:  ES64L-G16RevA.03 25-Dec-2016

 -----------------------------------
 #p cam-b3lyp/Def2SVP td=(nstates=5)
 -----------------------------------

 --------------------------------
 TDDFT excited states in gaussian
 --------------------------------
 Symbolic Z-matrix:
 Charge =  0 Multiplicity = 1

                         Standard orientation:
 ---------------------------------------------------------------------
 Center     Atomic      Atomic             Coordinates (Angstroms)
 Number     Number       Type             X           Y           Z
 ---------------------------------------------------------------------
      1         12           0       15.980790    0.601991    0.115724
      2          6           0       16.151340   -2.961728   -0.172433
      3          6           0       16.847460    0.761067   -3.180735
      4          6           0       16.280563    3.740391    0.458073
      5          6           0       16.248778    0.188167    3.565737
      6          7           0       16.415750   -0.970355   -1.380667
      7          6           0       16.387836   -2.299411   -1.379102
      8          6           0       16.558828   -2.922625   -2.796755
      9          6           0       17.320109   -1.717679   -3.511287
     10          6           0       16.804187   -0.567918   -2.664056
     11          6           0       18.837445   -1.787832   -3.372461
     12          6           0       15.184299   -3.220396   -3.485039
     13          6           0       15.254272   -4.121444   -4.721392
     14          1           0       14.169642   -5.060072   -4.966145
     15          7           0       16.009130    2.041430   -1.237074
     16          6           0       16.373544    1.924414   -2.536611
     17          6           0       16.223915    3.272836   -3.124872
     18          6           0       15.925087    4.222065   -2.016829
     19          6           0       16.087631    3.366010   -0.869603
     20          6           0       16.316331    3.544015   -4.595134
     21          6           0       15.562462    5.673323   -1.994787
     22          8           0       15.572300    6.360560   -0.916742
     23          6           0       15.277401    6.299097   -3.298700
     24          7           0       16.449495    1.813882    1.749514
     25          6           0       16.455403    3.146962    1.640662
     26          6           0       16.536745    3.804327    2.986468
     27          6           0       16.339753    2.639039    4.060270
     28          6           0       16.256348    1.435273    3.089569
     29          6           0       17.839741    4.558633    3.285190
     30          6           0       15.208127    2.826483    5.101763
     31          6           0       13.862698    2.770080    4.413478
     32          7           0       15.990213   -1.072616    1.496538
     33          6           0       16.135542   -1.015451    2.890197
     34          6           0       16.189081   -2.406439    3.376361
     35          6           0       16.087173   -3.181149    2.222548
     36          6           0       16.003367   -2.328124    1.085176
     37          6           0       16.374959   -2.810269    4.727954
     38          6           0       16.054376   -4.531160    1.683798
     39          8           0       15.996641   -5.659535    2.174643
     40          6           0       16.217270   -4.443552    0.102148
     41          6           0       15.160688   -5.320328   -0.512838
     42          8           0       13.951012   -5.030412   -0.412847
     43          8           0       15.744232   -6.222622   -1.316507
     44          6           0       14.749084   -7.105633   -1.981433
     45          1           0       17.340905    0.939340   -4.138165
     46          1           0       16.278418    4.818373    0.632394
     47          1           0       16.246478   -0.018713    4.637487
     48          1           0       17.174368   -3.821868   -2.826687
     49          1           0       17.006051   -1.595376   -4.547690
     50          1           0       19.138980   -2.585981   -2.694261
     51          1           0       19.138655   -0.817768   -2.976554
     52          1           0       19.312349   -1.872985   -4.350210
     53          1           0       14.806065   -2.306355   -3.942783
     54          1           0       14.478390   -3.643924   -2.769747
     55          1           0       16.218727   -4.624960   -4.793554
     56          1           0       15.212017   -3.488699   -5.607986
     57          1           0       16.708014    2.684152   -5.137135
     58          1           0       17.072546    4.317207   -4.729380
     59          1           0       15.366930    3.882290   -5.010515
     60          1           0       16.151054    6.201345   -3.943467
     61          1           0       14.950045    7.314820   -3.079621
     62          1           0       14.473072    5.747791   -3.786620
     63          1           0       15.744562    4.541616    3.110068
     64          1           0       17.234049    2.484016    4.664321
     65          1           0       17.689404    5.607318    3.542802
     66          1           0       18.493260    4.458513    2.419060
     67          1           0       18.452775    4.118497    4.071248
     68          1           0       15.285934    3.805090    5.574225
     69          1           0       15.221101    2.075035    5.891325
     70          1           0       13.733642    3.788025    4.047466
     71          1           0       13.080703    2.509887    5.127618
     72          1           0       13.887294    2.112068    3.544627
     73          1           0       15.669892   -3.622742    4.903271
     74          1           0       16.204219   -1.982308    5.415654
     75          1           0       17.418371   -3.124176    4.703239
     76          1           0       17.223530   -4.791533   -0.129093
     77          1           0       15.021039   -8.133561   -1.741352
     78          1           0       14.733972   -6.818677   -3.033019
     79          1           0       13.731736   -7.065287   -1.590647
     80         12           0      -15.778219    0.880581    0.207871
     81          6           0      -17.025834   -2.483725    0.144988
     82          6           0      -16.327105    0.988288   -3.156911
     83          6           0      -14.272062    3.672669    0.151835
     84          6           0      -14.292412    0.124784    3.268395
     85          7           0      -16.577567   -0.617417   -1.209627
     86          6           0      -17.076799   -1.840114   -1.109041
     87          6           0      -17.736637   -2.374347   -2.408576
     88          6           0      -16.950435   -1.461398   -3.470313
     89          6           0      -16.624124   -0.269171   -2.573225
     90          6           0      -15.643170   -2.076530   -3.941489
     91          6           0      -19.281433   -2.102510   -2.449930
     92          6           0      -20.039631   -2.864867   -3.538831
     93          1           0      -21.392851   -3.330727   -3.248581
     94          7           0      -15.797425    2.323015   -1.155064
     95          6           0      -16.063064    2.194725   -2.471976
     96          6           0      -15.928111    3.543783   -3.042924
     97          6           0      -15.400276    4.449533   -1.986635
     98          6           0      -15.110134    3.491498   -0.938737
     99          6           0      -16.360476    3.883171   -4.439812
    100          6           0      -15.179662    5.930987   -1.933654
    101          8           0      -14.488526    6.475934   -1.001886
    102          6           0      -15.717656    6.714445   -3.055375
    103          7           0      -14.298373    1.708719    1.410610
    104          6           0      -13.856855    2.961169    1.200011
    105          6           0      -12.999733    3.437705    2.348336
    106          6           0      -13.156338    2.329083    3.490272
    107          6           0      -14.045104    1.314533    2.737823
    108          6           0      -11.517420    3.637950    2.033639
    109          6           0      -13.617595    2.820490    4.889705
    110          6           0      -15.044875    3.313694    4.818915
    111          7           0      -15.811729   -0.784684    1.584028
    112          6           0      -15.095814   -0.904811    2.795266
    113          6           0      -15.352768   -2.261608    3.320151
    114          6           0      -16.188513   -2.849380    2.358622
    115          6           0      -16.418669   -1.931260    1.298629
    116          6           0      -14.800508   -2.811107    4.511443
    117          6           0      -16.919746   -4.041486    1.994077
    118          8           0      -17.165764   -5.112770    2.546867
    119          6           0      -17.391905   -3.902356    0.482761
    120          6           0      -18.844431   -4.286791    0.412650
    121          8           0      -19.708646   -3.598643    0.983785
    122          8           0      -18.996360   -5.272004   -0.491025
    123          6           0      -20.421999   -5.680072   -0.604430
    124          1           0      -16.246728    1.050348   -4.242535
    125          1           0      -13.815124    4.661397    0.236215
    126          1           0      -13.944791   -0.153343    4.265633
    127          1           0      -17.554487   -3.422646   -2.612709
    128          1           0      -17.599789   -1.157461   -4.287211
    129          1           0      -15.400026   -2.974777   -3.393596
    130          1           0      -14.887034   -1.319184   -3.781112
    131          1           0      -15.674503   -2.247194   -5.021410
    132          1           0      -19.454819   -1.072255   -2.786464
    133          1           0      -19.728307   -2.297449   -1.494458
    134          1           0      -19.438490   -3.674798   -3.969628
    135          1           0      -20.216757   -2.187265   -4.377570
    136          1           0      -16.554656    2.980007   -5.031408
    137          1           0      -15.503478    4.352901   -4.934564
    138          1           0      -17.204900    4.575310   -4.462925
    139          1           0      -15.281270    6.359425   -3.985953
    140          1           0      -15.539242    7.759342   -2.794153
    141          1           0      -16.795989    6.532427   -3.123848
    142          1           0      -13.356139    4.387034    2.728953
    143          1           0      -12.203664    1.819626    3.696941
    144          1           0      -11.159776    4.662313    2.250079
    145          1           0      -11.352682    3.389480    0.993618
    146          1           0      -10.840553    2.955118    2.544318
    147          1           0      -13.011052    3.670630    5.211456
    148          1           0      -13.542188    2.060951    5.660678
    149          1           0      -14.933745    4.339435    4.454771
    150          1           0      -15.506830    3.292406    5.803904
    151          1           0      -15.616756    2.757214    4.067299
    152          1           0      -15.604516   -3.328942    5.017327
    153          1           0      -14.365923   -2.037968    5.141651
    154          1           0      -14.039020   -3.470918    4.087123
    155          1           0      -16.764500   -4.561488   -0.118470
    156          1           0      -20.461453   -6.758020   -0.419617
    157          1           0      -20.755700   -5.326845   -1.598224
    158          1           0      -21.110180   -5.311313    0.147151
 ---------------------------------------------------------------------

 SCF Done:  E(RCAM-B3LYP) =  -4069.81176463     A.U. after   19 cycles

 Excitation energies and oscillator strengths:

 Excited State   1:      Singlet-A      1.6753 eV  740.07 nm  f=0.2127  <S**2>=0.000
     310 -> 316        0.16863
     311 -> 314       -0.16194
     312 -> 313        0.66667
     310 <- 316        0.10166
 This state for optimization and/or second-order correction.
 Total Energy, E(TD-HF/TD-DFT) =  -4069.75019872
 Copying the excited state density for this state as the 1-particle RhoCI density.

 Excited State   2:      Singlet-A      1.6801 eV  737.95 nm  f=0.5648  <S**2>=0.000
     309 -> 315        0.17065
     311 -> 314        0.66630
     312 -> 313        0.16189
     309 <- 315        0.10217

 Excited State   3:      Singlet-A      2.1861 eV  567.15 nm  f=0.0972  <S**2>=0.000
     310 -> 313        0.64219
     312 -> 316       -0.27299

 Excited State   4:      Singlet-A      2.1925 eV  565.48 nm  f=0.1033  <S**2>=0.000
     309 -> 314        0.64041
     311 -> 315       -0.27818

 Excited State   5:      Singlet-A      3.0641 eV  404.63 nm  f=0.0000  <S**2>=0.000
     311 -> 313        0.70711

 The electronic state is 1-A.
 Alpha  occ. eigenvalues --  -46.87787 -46.87660 -19.26350 -19.26274 -19.19161
 Alpha  occ. eigenvalues --  -19.19010 -19.18805 -19.18715 -19.18159 -19.18051
 Alpha  occ. eigenvalues --  -14.42497 -14.42440 -14.41440 -14.41359 -14.39393
 Alpha  occ. eigenvalues --  -14.39352 -14.38599 -14.38577 -10.39091 -10.39069
 Alpha  occ. eigenvalues --  -10.35439 -10.35392 -10.34380 -10.34228 -10.31757
 Alpha  occ. eigenvalues --  -10.31669 -10.31395 -10.31309 -10.31024 -10.30899
 Alpha  occ. eigenvalues --  -10.30560 -10.30498 -10.30397 -10.30360 -10.30197
 Alpha  occ. eigenvalues --  -10.30140 -10.29911 -10.29893 -10.29621 -10.29437
 Alpha  occ. eigenvalues --  -10.29401 -10.29245 -10.28740 -10.28720 -10.28656
 Alpha  occ. eigenvalues --  -10.28530 -10.28405 -10.28355 -10.28141 -10.28107
 Alpha  occ. eigenvalues --  -10.28001 -10.27783 -10.27718 -10.27669 -10.27575
 Alpha  occ. eigenvalues --  -10.27515 -10.27491 -10.27484 -10.27472 -10.27469
 Alpha  occ. eigenvalues --  -10.27465 -10.27440 -10.27394 -10.27373 -10.27148
 Alpha  occ. eigenvalues --  -10.27050 -10.26696 -10.26694 -10.26417 -10.26401
 Alpha  occ. eigenvalues --  -10.26225 -10.26173 -10.26134 -10.26026 -10.26009
 Alpha  occ. eigenvalues --  -10.25933 -10.25848 -10.25833 -10.25426 -10.25393
 Alpha  occ. eigenvalues --  -10.24872 -10.24823 -10.24778 -10.24728 -10.24689
 Alpha  occ. eigenvalues --  -10.24677  -3.16530  -3.16410  -1.91411  -1.91292
 Alpha  occ. eigenvalues --   -1.90998  -1.90881  -1.90840  -1.90718  -1.16644
 Alpha  occ. eigenvalues --   -1.16623  -1.08657  -1.08617  -1.07207  -1.06967
 Alpha  occ. eigenvalues --   -1.06946  -1.06632  -1.04571  -1.04495  -1.03751
 Alpha  occ. eigenvalues --   -1.03663  -1.03224  -1.03038  -1.02401  -1.02111
 Alpha  occ. eigenvalues --   -0.91987  -0.91962  -0.89510  -0.89493  -0.89179
 Alpha  occ. eigenvalues --   -0.89152  -0.88277  -0.88218  -0.87860  -0.87793
 Alpha  occ. eigenvalues --   -0.87684  -0.87663  -0.87264  -0.87121  -0.85000
 Alpha  occ. eigenvalues --   -0.84973  -0.83926  -0.83874  -0.82958  -0.82932
 Alpha  occ. eigenvalues --   -0.82653  -0.82639  -0.81596  -0.81576  -0.80587
 Alpha  occ. eigenvalues --   -0.80443  -0.78788  -0.78636  -0.77209  -0.77144
 Alpha  occ. eigenvalues --   -0.76925  -0.76898  -0.75914  -0.75839  -0.74888
 Alpha  occ. eigenvalues --   -0.74801  -0.72765  -0.72699  -0.71663  -0.71580
 Alpha  occ. eigenvalues --   -0.69897  -0.69755  -0.68864  -0.68828  -0.67631
 Alpha  occ. eigenvalues --   -0.67602  -0.67210  -0.67201  -0.65277  -0.65272
 Alpha  occ. eigenvalues --   -0.64844  -0.64770  -0.64654  -0.64611  -0.64260
 Alpha  occ. eigenvalues --   -0.64202  -0.62288  -0.62278  -0.60432  -0.60340
 Alpha  occ. eigenvalues --   -0.59797  -0.59795  -0.58992  -0.58978  -0.58494
 Alpha  occ. eigenvalues --   -0.58425  -0.57574  -0.57554  -0.57299  -0.57236
 Alpha  occ. eigenvalues --   -0.56300  -0.56204  -0.55969  -0.55887  -0.55511
 Alpha  occ. eigenvalues --   -0.55452  -0.55329  -0.55246  -0.54513  -0.54487
 Alpha  occ. eigenvalues --   -0.53913  -0.53885  -0.53289  -0.53227  -0.53212
 Alpha  occ. eigenvalues --   -0.53142  -0.52905  -0.52902  -0.52747  -0.52669
 Alpha  occ. eigenvalues --   -0.52428  -0.52399  -0.51905  -0.51883  -0.51659
 Alpha  occ. eigenvalues --   -0.51607  -0.51201  -0.51186  -0.50563  -0.50476
 Alpha  occ. eigenvalues --   -0.50022  -0.49980  -0.49909  -0.49866  -0.49505
 Alpha  occ. eigenvalues --   -0.49488  -0.49205  -0.49203  -0.49104  -0.49087
 Alpha  occ. eigenvalues --   -0.48583  -0.48558  -0.48452  -0.48436  -0.48374
 Alpha  occ. eigenvalues --   -0.48339  -0.47685  -0.47595  -0.47287  -0.47118
 Alpha  occ. eigenvalues --   -0.46787  -0.46709  -0.46555  -0.46546  -0.46349
 Alpha  occ. eigenvalues --   -0.46270  -0.46153  -0.46084  -0.45822  -0.45812
 Alpha  occ. eigenvalues --   -0.45207  -0.45192  -0.44568  -0.44514  -0.44497
 Alpha  occ. eigenvalues --   -0.44476  -0.44135  -0.44128  -0.44079  -0.44077
 Alpha  occ. eigenvalues --   -0.44010  -0.43940  -0.43553  -0.43485  -0.43386
 Alpha  occ. eigenvalues --   -0.43376  -0.43017  -0.42930  -0.42901  -0.42689
 Alpha  occ. eigenvalues --   -0.42645  -0.42552  -0.42000  -0.41963  -0.41694
 Alpha  occ. eigenvalues --   -0.41669  -0.41524  -0.41459  -0.41131  -0.40989
 Alpha  occ. eigenvalues --   -0.40860  -0.40814  -0.40723  -0.40699  -0.40561
 Alpha  occ. eigenvalues --   -0.40492  -0.40228  -0.40225  -0.39431  -0.39423
 Alpha  occ. eigenvalues --   -0.38459  -0.38349  -0.37739  -0.37655  -0.37310
 Alpha  occ. eigenvalues --   -0.37265  -0.37254  -0.37200  -0.36771  -0.36703
 Alpha  occ. eigenvalues --   -0.36216  -0.36183  -0.34276  -0.34253  -0.33862
 Alpha  occ. eigenvalues --   -0.33760  -0.33177  -0.33175  -0.31335  -0.31274
 Alpha  occ. eigenvalues --   -0.31026  -0.30973  -0.30019  -0.29955  -0.29439
 Alpha  occ. eigenvalues --   -0.29327  -0.29312  -0.29211  -0.24071  -0.24036
 Alpha  occ. eigenvalues --   -0.21118  -0.21117
 Alpha virt. eigenvalues --   -0.08792  -0.08764  -0.01740  -0.01683  -0.00048
 Alpha virt. eigenvalues --   -0.00029   0.02208   0.02210   0.03132   0.03227
 Alpha virt. eigenvalues --    0.04727   0.04729   0.05108   0.05165   0.06181

 Mulliken charges:
               1
     1  Mg   0.838727
     2  C   -0.002960
     3  C   -0.094131
     4  C   -0.045878
     5  C   -0.063932
     6  N   -0.256780
     7  C   -0.052451
     8  C   -0.014012
     9  C   -0.086995
    10  C    0.046326
    11  C    0.104810
    12  C    0.053466
    13  C   -0.071810
    14  H    0.036134
    15  N   -0.433146
    16  C    0.168441
    17  C   -0.177164
    18  C   -0.003997
    19  C    0.148711
    20  C    0.110187
    21  C    0.012287
    22  O   -0.249620
    23  C    0.062468
    24  N   -0.341151
    25  C    0.041260
    26  C   -0.028186
    27  C   -0.023964
    28  C    0.074806
    29  C    0.076181
    30  C    0.035143
    31  C   -0.004510
    32  N   -0.310479
    33  C    0.080417
    34  C   -0.169713
    35  C    0.008375
    36  C    0.083000
    37  C    0.127310
    38  C    0.046108
    39  O   -0.188430
    40  C   -0.005351
    41  C    0.212888
    42  O   -0.257098
    43  O   -0.304800
    44  C    0.157683
    45  H   -0.017612
    46  H   -0.016836
    47  H   -0.041489
    48  H    0.000933
    49  H   -0.004039
    50  H    0.025474
    51  H    0.016449
    52  H    0.016649
    53  H    0.011206
    54  H    0.044131
    55  H    0.017868
    56  H    0.017943
    57  H    0.005866
    58  H    0.026815
    59  H    0.039550
    60  H    0.037339
    61  H    0.035654
    62  H    0.031508
    63  H    0.016559
    64  H    0.009458
    65  H    0.023211
    66  H    0.012538
    67  H    0.004749
    68  H    0.006362
    69  H    0.004731
    70  H    0.008782
    71  H    0.018151
    72  H    0.028986
    73  H    0.047580
    74  H    0.009115
    75  H    0.046006
    76  H    0.035147
    77  H    0.042951
    78  H    0.046396
    79  H    0.053699
    80  Mg   0.837869
    81  C   -0.016858
    82  C   -0.087796
    83  C   -0.045522
    84  C   -0.064827
    85  N   -0.254575
    86  C   -0.049833
    87  C   -0.015080
    88  C   -0.090506
    89  C    0.045758
    90  C    0.114372
    91  C    0.062527
    92  C   -0.077897
    93  H    0.034900
    94  N   -0.423496
    95  C    0.162908
    96  C   -0.174637
    97  C   -0.007806
    98  C    0.152127
    99  C    0.099374
   100  C    0.015567
   101  O   -0.253168
   102  C    0.061199
   103  N   -0.350077
   104  C    0.037550
   105  C   -0.019885
   106  C   -0.034782
   107  C    0.088875
   108  C    0.073642
   109  C    0.034714
   110  C   -0.007679
   111  N   -0.324115
   112  C    0.078434
   113  C   -0.163096
   114  C    0.002252
   115  C    0.096214
   116  C    0.131486
   117  C    0.042402
   118  O   -0.187848
   119  C    0.000915
   120  C    0.211278
   121  O   -0.251024
   122  O   -0.305625
   123  C    0.152018
   124  H   -0.019677
   125  H   -0.015548
   126  H   -0.040397
   127  H   -0.000642
   128  H   -0.004337
   129  H    0.022480
   130  H    0.014437
   131  H    0.016266
   132  H    0.013915
   133  H    0.037680
   134  H    0.020788
   135  H    0.019582
   136  H    0.008747
   137  H    0.026131
   138  H    0.039784
   139  H    0.038238
   140  H    0.036397
   141  H    0.033892
   142  H    0.014408
   143  H    0.012492
   144  H    0.025165
   145  H    0.011636
   146  H    0.005756
   147  H    0.006307
   148  H    0.003690
   149  H    0.010928
   150  H    0.017947
   151  H    0.030073
   152  H    0.046019
   153  H    0.008551
   154  H    0.047004
   155  H    0.035041
   156  H    0.043927
   157  H    0.049485
   158  H    0.053585
 Sum of Mulliken charges =  -0.00000

 Dipole moment (field-independent basis, Debye):
    X=              2.8125    Y=              2.9628    Z=             -7.9573  Tot=              8.9447
 Quadrupole moment (field-independent basis, Debye-Ang):
   XX=           -471.1491   YY=           -560.4590   ZZ=           -445.3899
   XY=              2.2727   XZ=             29.4035   YZ=             29.3387

 Normal termination of Gaussian 16 at Sun Sep 12 18:52:41 2021.
