 Gaussian 16, Revision A.03,
 Gaussian 16:  ES64L-G16RevA.03 25-Dec-2016

 -----------------------------------
 #p cam-b3lyp/Def2SVP td=(nstates=5)
 -----------------------------------

 --------------------------------
 TDDFT excited states in gaussian
 --------------------------------
 Symbolic Z-matrix:
 Charge =  0 Multiplicity = 1

                         Standard orientation:
 ---------------------------------------------------------------------
 Center     Atomic      Atomic             Coordinates (Angstroms)
 Number     Number       Type             X           Y           Z
 ---------------------------------------------------------------------
      1         12           0       -5.181738    0.535723   -0.680050
      2          6           0       -5.489941   -2.666754    0.888823
      3          6           0       -6.444692    1.894508    2.183814
      4          6           0       -5.345677    3.314296   -2.199681
      5          6           0       -5.032629   -1.138566   -3.732947
      6          7           0       -5.843955   -0.374142    1.226324
      7          6           0       -5.854628   -1.607320    1.722638
      8          6           0       -6.217742   -1.660779    3.236793
      9          6           0       -7.026316   -0.291351    3.350252
     10          6           0       -6.376384    0.469809    2.208259
     11          6           0       -8.516201   -0.437498    3.058046
     12          6           0       -4.948171   -1.654088    4.153241
     13          6           0       -5.196709   -2.030911    5.616657
     14          1           0       -4.178391   -2.789649    6.327075
     15          7           0       -5.335499    2.374653    0.025320
     16          6           0       -5.861165    2.743119    1.218297
     17          6           0       -5.746430    4.216248    1.276695
     18          6           0       -5.285373    4.689996   -0.057877
     19          6           0       -5.329466    3.465232   -0.815101
     20          6           0       -6.012170    5.013749    2.516503
     21          6           0       -4.880863    6.035316   -0.572287
     22          8           0       -4.737281    6.271187   -1.820615
     23          6           0       -4.741317    7.107155    0.430075
     24          7           0       -5.409311    1.042491   -2.692271
     25          6           0       -5.389971    2.319793   -3.088640
     26          6           0       -5.285046    2.426822   -4.581112
     27          6           0       -4.990574    0.949447   -5.110643
     28          6           0       -5.062885    0.195763   -3.759716
     29          6           0       -6.518627    2.990215   -5.300053
     30          6           0       -3.733807    0.757285   -5.996097
     31          6           0       -2.486099    0.987362   -5.173062
     32          7           0       -5.068791   -1.532568   -1.328478
     33          6           0       -5.038821   -2.001485   -2.649800
     34          6           0       -5.072114   -3.474217   -2.586394
     35          6           0       -5.136287   -3.761243   -1.224285
     36          6           0       -5.169163   -2.544483   -0.484888
     37          6           0       -5.100944   -4.355973   -3.702687
     38          6           0       -5.209585   -4.812500   -0.222615
     39          8           0       -5.124310   -6.041164   -0.247196
     40          6           0       -5.564342   -4.145191    1.179054
     41          6           0       -4.617865   -4.709170    2.203465
     42          8           0       -3.397217   -4.454031    2.155647
     43          8           0       -5.322302   -5.258258    3.204871
     44          6           0       -4.443122   -5.810607    4.269816
     45          1           0       -7.047443    2.407020    2.936121
     46          1           0       -5.290708    4.249584   -2.760619
     47          1           0       -4.903722   -1.729703   -4.641458
     48          1           0       -6.858079   -2.495877    3.521405
     49          1           0       -6.839509    0.214264    4.297447
     50          1           0       -8.754519   -1.436508    2.693211
     51          1           0       -8.737837    0.309252    2.295330
     52          1           0       -9.110717   -0.161473    3.929332
     53          1           0       -4.603135   -0.628189    4.281851
     54          1           0       -4.171758   -2.299849    3.741535
     55          1           0       -6.176877   -2.489858    5.749118
     56          1           0       -5.246155   -1.112754    6.202100
     57          1           0       -6.492691    4.410268    3.285563
     58          1           0       -6.756436    5.766521    2.257445
     59          1           0       -5.112059    5.500702    2.892014
     60          1           0       -5.690508    7.239742    0.949697
     61          1           0       -4.360042    7.974294   -0.108022
     62          1           0       -4.019883    6.792945    1.184896
     63          1           0       -4.462605    3.080178   -4.869458
     64          1           0       -5.807364    0.563306   -5.720907
     65          1           0       -6.307210    3.870160   -5.908087
     66          1           0       -7.276931    3.207320   -4.548301
     67          1           0       -7.042184    2.277178   -5.936358
     68          1           0       -3.724129    1.487765   -6.804337
     69          1           0       -3.670768   -0.234297   -6.444475
     70          1           0       -2.373854    2.070677   -5.198765
     71          1           0       -1.629621    0.495050   -5.634892
     72          1           0       -2.637101    0.700017   -4.132333
     73          1           0       -4.403468   -5.161480   -3.473222
     74          1           0       -4.822470   -3.840637   -4.621646
     75          1           0       -6.148058   -4.658196   -3.694296
     76          1           0       -6.601150   -4.401379    1.394734
     77          1           0       -4.712979   -6.859038    4.397103
     78          1           0       -4.549938   -5.152347    5.132190
     79          1           0       -3.384496   -5.899069    4.023190
     80         12           0        5.328940    0.808130    0.591129
     81          6           0        5.448384   -2.120536   -1.479540
     82          6           0        4.195353   -1.198388    3.105769
     83          6           0        4.784493    3.425531    2.299999
     84          6           0        5.361508    2.706293   -2.331479
     85          7           0        4.916550   -1.363115    0.679739
     86          6           0        5.057663   -2.385499   -0.150420
     87          6           0        4.841187   -3.777684    0.501123
     88          6           0        3.915279   -3.325410    1.732796
     89          6           0        4.391032   -1.881457    1.878901
     90          6           0        2.433272   -3.308353    1.397096
     91          6           0        6.183695   -4.420582    0.997504
     92          6           0        6.090321   -5.903974    1.361636
     93          1           0        7.236839   -6.763350    1.079810
     94          7           0        5.071128    1.035184    2.545746
     95          6           0        4.624697    0.109626    3.420576
     96          6           0        4.594805    0.776496    4.731514
     97          6           0        4.902924    2.218619    4.531323
     98          6           0        4.911178    2.287941    3.083830
     99          6           0        4.373156    0.034093    6.017247
    100          6           0        5.137114    3.350953    5.484824
    101          8           0        5.153159    4.570543    5.090917
    102          6           0        5.254019    2.996942    6.906976
    103          7           0        4.891826    2.770982    0.063405
    104          6           0        4.753811    3.724624    1.001187
    105          6           0        4.717371    5.100167    0.379142
    106          6           0        5.104127    4.886969   -1.157925
    107          6           0        5.214966    3.346630   -1.179675
    108          6           0        3.380791    5.836154    0.469988
    109          6           0        6.293777    5.721459   -1.706579
    110          6           0        7.582649    5.271774   -1.057000
    111          7           0        5.578046    0.411911   -1.518144
    112          6           0        5.531584    1.349113   -2.573406
    113          6           0        5.639143    0.589159   -3.835671
    114          6           0        5.718191   -0.750027   -3.424759
    115          6           0        5.643417   -0.821282   -2.007433
    116          6           0        5.605887    1.143925   -5.146104
    117          6           0        5.837198   -2.120376   -3.868232
    118          8           0        6.024780   -2.669076   -4.953354
    119          6           0        5.540554   -3.078203   -2.634961
    120          6           0        6.618052   -4.126833   -2.591571
    121          8           0        7.797512   -3.811708   -2.354545
    122          8           0        6.048392   -5.345442   -2.620588
    123          6           0        7.076321   -6.418966   -2.568359
    124          1           0        3.621789   -1.693789    3.889671
    125          1           0        4.705719    4.368240    2.846416
    126          1           0        5.477704    3.232594   -3.281309
    127          1           0        4.312683   -4.492056   -0.118646
    128          1           0        4.144826   -3.895078    2.629534
    129          1           0        2.255818   -3.489994    0.347493
    130          1           0        2.079823   -2.324256    1.675800
    131          1           0        1.894038   -4.014192    2.035338
    132          1           0        6.439686   -4.001874    1.979283
    133          1           0        6.965437   -4.273673    0.277840
    134          1           0        5.165886   -6.362294    0.989725
    135          1           0        6.014010   -5.990423    2.448243
    136          1           0        4.010858   -0.985335    5.835805
    137          1           0        3.543639    0.529297    6.533514
    138          1           0        5.250932    0.045435    6.666900
    139          1           0        4.347140    2.490514    7.228792
    140          1           0        5.507961    3.926749    7.419650
    141          1           0        6.073450    2.278742    7.022500
    142          1           0        5.450180    5.751974    0.838752
    143          1           0        4.272813    5.151688   -1.827752
    144          1           0        3.458011    6.821485    0.967225
    145          1           0        2.676355    5.201452    0.991019
    146          1           0        2.880283    6.003842   -0.482155
    147          1           0        6.167603    6.775829   -1.448637
    148          1           0        6.400660    5.664228   -2.784675
    149          1           0        7.586515    5.820529   -0.110451
    150          1           0        8.437269    5.542570   -1.673715
    151          1           0        7.550697    4.202434   -0.817949
    152          1           0        6.383750    0.650042   -5.713120
    153          1           0        5.751507    2.221951   -5.125278
    154          1           0        4.590463    0.872614   -5.447045
    155          1           0        4.552093   -3.512999   -2.788185
    156          1           0        6.912360   -7.060943   -3.439376
    157          1           0        6.970083   -6.886039   -1.571215
    158          1           0        8.110931   -6.129552   -2.710696
 ---------------------------------------------------------------------

 SCF Done:  E(RCAM-B3LYP) =  -4069.81226201     A.U. after   19 cycles

 Excitation energies and oscillator strengths:

 Excited State   1:      Singlet-A      1.6662 eV  744.10 nm  f=0.1812  <S**2>=0.000
     309 -> 315       -0.10317
     310 -> 316        0.13642
     311 -> 313       -0.41170
     312 -> 314        0.54940
 This state for optimization and/or second-order correction.
 Total Energy, E(TD-HF/TD-DFT) =  -4069.75102958
 Copying the excited state density for this state as the 1-particle RhoCI density.

 Excited State   2:      Singlet-A      1.6849 eV  735.85 nm  f=0.5265  <S**2>=0.000
     309 -> 315        0.14180
     310 -> 316        0.10462
     311 -> 313        0.54830
     312 -> 314        0.41090

 Excited State   3:      Singlet-A      2.1832 eV  567.91 nm  f=0.0765  <S**2>=0.000
     309 -> 313       -0.17045
     310 -> 314        0.62050
     312 -> 316       -0.26003

 Excited State   4:      Singlet-A      2.1940 eV  565.11 nm  f=0.1169  <S**2>=0.000
     309 -> 313        0.61748
     310 -> 314        0.16869
     311 -> 315       -0.26945

 Excited State   5:      Singlet-A      2.4753 eV  500.88 nm  f=0.0000  <S**2>=0.000
     312 -> 313        0.70709

 The electronic state is 1-A.
 Alpha  occ. eigenvalues --  -46.87896 -46.87472 -19.26525 -19.26132 -19.19265
 Alpha  occ. eigenvalues --  -19.18957 -19.18894 -19.18607 -19.18300 -19.17877
 Alpha  occ. eigenvalues --  -14.42555 -14.42280 -14.41541 -14.41178 -14.39499
 Alpha  occ. eigenvalues --  -14.39173 -14.38689 -14.38416 -10.39312 -10.38884
 Alpha  occ. eigenvalues --  -10.35526 -10.35288 -10.34524 -10.34048 -10.31952
 Alpha  occ. eigenvalues --  -10.31542 -10.31518 -10.31070 -10.31024 -10.30803
 Alpha  occ. eigenvalues --  -10.30673 -10.30603 -10.30284 -10.30231 -10.30173
 Alpha  occ. eigenvalues --  -10.30011 -10.29974 -10.29728 -10.29726 -10.29342
 Alpha  occ. eigenvalues --  -10.29264 -10.29240 -10.28900 -10.28763 -10.28472
 Alpha  occ. eigenvalues --  -10.28404 -10.28381 -10.28247 -10.28217 -10.27889
 Alpha  occ. eigenvalues --  -10.27829 -10.27827 -10.27763 -10.27677 -10.27552
 Alpha  occ. eigenvalues --  -10.27552 -10.27517 -10.27510 -10.27448 -10.27376
 Alpha  occ. eigenvalues --  -10.27338 -10.27314 -10.27311 -10.27284 -10.27243
 Alpha  occ. eigenvalues --  -10.26906 -10.26840 -10.26467 -10.26426 -10.26349
 Alpha  occ. eigenvalues --  -10.26348 -10.26206 -10.26102 -10.26017 -10.25913
 Alpha  occ. eigenvalues --  -10.25760 -10.25719 -10.25489 -10.25429 -10.25285
 Alpha  occ. eigenvalues --  -10.24936 -10.24882 -10.24706 -10.24699 -10.24619
 Alpha  occ. eigenvalues --  -10.24521  -3.16638  -3.16222  -1.91520  -1.91107
 Alpha  occ. eigenvalues --   -1.91104  -1.90949  -1.90693  -1.90530  -1.16872
 Alpha  occ. eigenvalues --   -1.16429  -1.08767  -1.08481  -1.07295  -1.06882
 Alpha  occ. eigenvalues --   -1.06864  -1.06741  -1.04689  -1.04279  -1.03856
 Alpha  occ. eigenvalues --   -1.03473  -1.03330  -1.02863  -1.02508  -1.01929
 Alpha  occ. eigenvalues --   -0.92092  -0.91789  -0.89595  -0.89333  -0.89326
 Alpha  occ. eigenvalues --   -0.88828  -0.88359  -0.88067  -0.87963  -0.87781
 Alpha  occ. eigenvalues --   -0.87627  -0.87474  -0.87357  -0.86983  -0.85115
 Alpha  occ. eigenvalues --   -0.84738  -0.84010  -0.83732  -0.83039  -0.82815
 Alpha  occ. eigenvalues --   -0.82775  -0.82418  -0.81746  -0.81396  -0.80721
 Alpha  occ. eigenvalues --   -0.80251  -0.78885  -0.78477  -0.77320  -0.77072
 Alpha  occ. eigenvalues --   -0.76941  -0.76659  -0.76058  -0.75567  -0.74984
 Alpha  occ. eigenvalues --   -0.74635  -0.72868  -0.72514  -0.71778  -0.71356
 Alpha  occ. eigenvalues --   -0.69962  -0.69610  -0.68998  -0.68584  -0.67750
 Alpha  occ. eigenvalues --   -0.67427  -0.67359  -0.66986  -0.65423  -0.65021
 Alpha  occ. eigenvalues --   -0.64977  -0.64741  -0.64576  -0.64438  -0.64350
 Alpha  occ. eigenvalues --   -0.64039  -0.62466  -0.62082  -0.60524  -0.60193
 Alpha  occ. eigenvalues --   -0.59928  -0.59527  -0.59093  -0.58803  -0.58614
 Alpha  occ. eigenvalues --   -0.58240  -0.57742  -0.57407  -0.57358  -0.57077
 Alpha  occ. eigenvalues --   -0.56418  -0.56163  -0.56025  -0.55679  -0.55623
 Alpha  occ. eigenvalues --   -0.55448  -0.55277  -0.55082  -0.54655  -0.54314
 Alpha  occ. eigenvalues --   -0.54037  -0.53609  -0.53395  -0.53345  -0.53062
 Alpha  occ. eigenvalues --   -0.53058  -0.52941  -0.52854  -0.52701  -0.52492
 Alpha  occ. eigenvalues --   -0.52472  -0.52263  -0.52006  -0.51750  -0.51733
 Alpha  occ. eigenvalues --   -0.51426  -0.51311  -0.51011  -0.50642  -0.50347
 Alpha  occ. eigenvalues --   -0.50103  -0.50009  -0.49787  -0.49697  -0.49633
 Alpha  occ. eigenvalues --   -0.49332  -0.49276  -0.49224  -0.49001  -0.48814
 Alpha  occ. eigenvalues --   -0.48730  -0.48563  -0.48536  -0.48327  -0.48230
 Alpha  occ. eigenvalues --   -0.48181  -0.47803  -0.47396  -0.47391  -0.46951
 Alpha  occ. eigenvalues --   -0.46896  -0.46695  -0.46513  -0.46461  -0.46280
 Alpha  occ. eigenvalues --   -0.46268  -0.46101  -0.45957  -0.45917  -0.45619
 Alpha  occ. eigenvalues --   -0.45279  -0.45051  -0.44705  -0.44607  -0.44332
 Alpha  occ. eigenvalues --   -0.44247  -0.44246  -0.44203  -0.44133  -0.43927
 Alpha  occ. eigenvalues --   -0.43855  -0.43760  -0.43644  -0.43497  -0.43352
 Alpha  occ. eigenvalues --   -0.43161  -0.43136  -0.42895  -0.42731  -0.42731
 Alpha  occ. eigenvalues --   -0.42703  -0.42403  -0.42107  -0.41817  -0.41780
 Alpha  occ. eigenvalues --   -0.41665  -0.41471  -0.41249  -0.41222  -0.40987
 Alpha  occ. eigenvalues --   -0.40920  -0.40749  -0.40651  -0.40569  -0.40469
 Alpha  occ. eigenvalues --   -0.40398  -0.40285  -0.39971  -0.39492  -0.39284
 Alpha  occ. eigenvalues --   -0.38553  -0.38176  -0.37910  -0.37416  -0.37405
 Alpha  occ. eigenvalues --   -0.37397  -0.37083  -0.36961  -0.36904  -0.36575
 Alpha  occ. eigenvalues --   -0.36322  -0.36026  -0.34389  -0.34061  -0.33992
 Alpha  occ. eigenvalues --   -0.33663  -0.33293  -0.32991  -0.31426  -0.31164
 Alpha  occ. eigenvalues --   -0.31141  -0.30779  -0.30163  -0.29777  -0.29543
 Alpha  occ. eigenvalues --   -0.29422  -0.29171  -0.29041  -0.24183  -0.23845
 Alpha  occ. eigenvalues --   -0.21224  -0.20929
 Alpha virt. eigenvalues --   -0.08871  -0.08617  -0.01844  -0.01505  -0.00155
 Alpha virt. eigenvalues --    0.00139   0.02091   0.02376   0.03007   0.03401
 Alpha virt. eigenvalues --    0.04592   0.04881   0.04965   0.05371   0.05992

 Mulliken charges:
               1
     1  Mg   0.838671
     2  C   -0.003645
     3  C   -0.094219
     4  C   -0.045719
     5  C   -0.063477
     6  N   -0.256798
     7  C   -0.052689
     8  C   -0.014052
     9  C   -0.086992
    10  C    0.046208
    11  C    0.104746
    12  C    0.053576
    13  C   -0.071274
    14  H    0.033976
    15  N   -0.433209
    16  C    0.168539
    17  C   -0.176900
    18  C   -0.003749
    19  C    0.148744
    20  C    0.110044
    21  C    0.012324
    22  O   -0.249595
    23  C    0.062343
    24  N   -0.341121
    25  C    0.041397
    26  C   -0.028252
    27  C   -0.024026
    28  C    0.074697
    29  C    0.076117
    30  C    0.035013
    31  C   -0.004660
    32  N   -0.310358
    33  C    0.080169
    34  C   -0.169564
    35  C    0.008109
    36  C    0.082703
    37  C    0.127343
    38  C    0.045632
    39  O   -0.188894
    40  C   -0.005227
    41  C    0.213116
    42  O   -0.259010
    43  O   -0.304186
    44  C    0.158207
    45  H   -0.017455
    46  H   -0.016626
    47  H   -0.040876
    48  H    0.000901
    49  H   -0.004111
    50  H    0.025525
    51  H    0.016782
    52  H    0.016812
    53  H    0.011299
    54  H    0.042756
    55  H    0.018465
    56  H    0.018317
    57  H    0.005829
    58  H    0.027062
    59  H    0.040177
    60  H    0.037504
    61  H    0.035752
    62  H    0.032005
    63  H    0.016600
    64  H    0.009718
    65  H    0.023382
    66  H    0.012502
    67  H    0.005037
    68  H    0.006617
    69  H    0.005423
    70  H    0.008288
    71  H    0.019357
    72  H    0.028604
    73  H    0.047435
    74  H    0.009853
    75  H    0.046129
    76  H    0.035419
    77  H    0.043328
    78  H    0.046443
    79  H    0.051690
    80  Mg   0.837845
    81  C   -0.016818
    82  C   -0.087409
    83  C   -0.046264
    84  C   -0.065162
    85  N   -0.254872
    86  C   -0.048817
    87  C   -0.015309
    88  C   -0.090605
    89  C    0.046043
    90  C    0.114546
    91  C    0.062423
    92  C   -0.077726
    93  H    0.033643
    94  N   -0.423490
    95  C    0.162886
    96  C   -0.174742
    97  C   -0.008570
    98  C    0.152393
    99  C    0.099572
   100  C    0.015017
   101  O   -0.253989
   102  C    0.061399
   103  N   -0.350121
   104  C    0.037659
   105  C   -0.019771
   106  C   -0.034849
   107  C    0.088993
   108  C    0.073666
   109  C    0.034871
   110  C   -0.007578
   111  N   -0.324088
   112  C    0.078594
   113  C   -0.163512
   114  C    0.002252
   115  C    0.096179
   116  C    0.131559
   117  C    0.042063
   118  O   -0.188342
   119  C    0.001096
   120  C    0.211156
   121  O   -0.251504
   122  O   -0.305043
   123  C    0.152256
   124  H   -0.018593
   125  H   -0.016512
   126  H   -0.040919
   127  H    0.000881
   128  H   -0.005026
   129  H    0.024187
   130  H    0.014519
   131  H    0.021795
   132  H    0.013218
   133  H    0.036937
   134  H    0.022402
   135  H    0.019317
   136  H    0.009236
   137  H    0.025081
   138  H    0.039232
   139  H    0.037627
   140  H    0.035628
   141  H    0.033992
   142  H    0.013893
   143  H    0.012685
   144  H    0.024159
   145  H    0.011040
   146  H    0.006544
   147  H    0.005885
   148  H    0.003511
   149  H    0.010619
   150  H    0.017575
   151  H    0.030330
   152  H    0.045664
   153  H    0.008238
   154  H    0.046377
   155  H    0.036303
   156  H    0.043730
   157  H    0.049922
   158  H    0.052992
 Sum of Mulliken charges =  -0.00000

 Dipole moment (field-independent basis, Debye):
    X=             -5.0268    Y=              1.8011    Z=              5.9254  Tot=              7.9764
 Quadrupole moment (field-independent basis, Debye-Ang):
   XX=           -518.4230   YY=           -524.1037   ZZ=           -476.0640
   XY=            -15.3141   XZ=              1.9121   YZ=            -24.1951

 Normal termination of Gaussian 16 at Sat Sep  4 06:13:02 2021.
