 Gaussian 16, Revision A.03,
 Gaussian 16:  ES64L-G16RevA.03 25-Dec-2016

 -----------------------------------
 #p cam-b3lyp/Def2SVP td=(nstates=5)
 -----------------------------------

 --------------------------------
 TDDFT excited states in gaussian
 --------------------------------
 Symbolic Z-matrix:
 Charge =  0 Multiplicity = 1

                         Standard orientation:
 ---------------------------------------------------------------------
 Center     Atomic      Atomic             Coordinates (Angstroms)
 Number     Number       Type             X           Y           Z
 ---------------------------------------------------------------------
      1         12           0        5.294021   -0.593383    0.799365
      2          6           0        5.816724    2.172636   -1.411547
      3          6           0        5.754328    1.581001    3.388426
      4          6           0        5.288177   -3.090142    2.754558
      5          6           0        5.999419   -2.689357   -1.894139
      6          7           0        5.722748    1.577759    0.853976
      7          6           0        5.839825    2.533528   -0.062522
      8          6           0        5.913769    3.966308    0.544973
      9          6           0        6.452539    3.595700    1.999062
     10          6           0        5.915326    2.179212    2.103415
     11          6           0        7.974359    3.551954    2.092089
     12          6           0        4.509918    4.656468    0.612872
     13          6           0        4.535110    6.163322    0.885102
     14          1           0        3.538055    7.007478    0.244298
     15          7           0        5.010349   -0.690878    2.752024
     16          6           0        5.233815    0.295744    3.653094
     17          6           0        4.872014   -0.267049    4.971823
     18          6           0        4.600884   -1.719861    4.787652
     19          6           0        4.986048   -1.899463    3.411145
     20          6           0        4.765118    0.558188    6.217338
     21          6           0        4.087602   -2.780534    5.709415
     22          8           0        4.146294   -4.023474    5.415768
     23          6           0        3.588516   -2.326564    7.020089
     24          7           0        5.812545   -2.599114    0.542834
     25          6           0        5.660993   -3.483354    1.534871
     26          6           0        5.824257   -4.890513    1.041729
     27          6           0        5.879590   -4.797012   -0.551365
     28          6           0        5.816713   -3.256779   -0.699687
     29          6           0        7.063161   -5.639114    1.552342
     30          6           0        4.861296   -5.656316   -1.341992
     31          6           0        3.459942   -5.139894   -1.104053
     32          7           0        5.643757   -0.345963   -1.328430
     33          6           0        5.940931   -1.354111   -2.256869
     34          6           0        6.200764   -0.689949   -3.547390
     35          6           0        6.051974    0.668425   -3.274395
     36          6           0        5.746019    0.843478   -1.894525
     37          6           0        6.583260   -1.336941   -4.755501
     38          6           0        6.104519    2.014249   -3.821983
     39          8           0        6.226469    2.485934   -4.953414
     40          6           0        6.074391    3.049053   -2.611983
     41          6           0        5.055834    4.105655   -2.942804
     42          8           0        3.841319    3.825862   -3.006326
     43          8           0        5.637919    5.313833   -2.897812
     44          6           0        4.674972    6.409667   -3.187701
     45          1           0        6.112354    2.117779    4.269124
     46          1           0        5.188888   -3.987248    3.369197
     47          1           0        6.142589   -3.284199   -2.798085
     48          1           0        6.615882    4.635365    0.047154
     49          1           0        6.010235    4.226469    2.769918
     50          1           0        8.436664    3.656354    1.110613
     51          1           0        8.211764    2.579186    2.523198
     52          1           0        8.340379    4.292469    2.803738
     53          1           0        3.984572    4.315528    1.504967
     54          1           0        3.940975    4.464019   -0.297399
     55          1           0        5.533895    6.577252    0.743683
     56          1           0        4.322897    6.322991    1.942302
     57          1           0        5.183162    1.553956    6.075104
     58          1           0        5.412388    0.095713    6.962232
     59          1           0        3.743226    0.601601    6.594411
     60          1           0        4.387845   -1.807517    7.549440
     61          1           0        3.180004   -3.210354    7.508847
     62          1           0        2.798243   -1.592129    6.861902
     63          1           0        4.976070   -5.508214    1.334046
     64          1           0        6.848797   -5.103374   -0.945644
     65          1           0        6.830281   -6.573135    2.064278
     66          1           0        7.619984   -4.965041    2.202622
     67          1           0        7.806509   -5.866900    0.788822
     68          1           0        4.885958   -6.688672   -0.994748
     69          1           0        5.046366   -5.663222   -2.416214
     70          1           0        3.179874   -5.618962   -0.166563
     71          1           0        2.797985   -5.449247   -1.913574
     72          1           0        3.456073   -4.063129   -0.933623
     73          1           0        5.995477   -0.874617   -5.548430
     74          1           0        6.403566   -2.410551   -4.703778
     75          1           0        7.644844   -1.092345   -4.788203
     76          1           0        7.079300    3.461457   -2.527117
     77          1           0        5.082781    6.983514   -4.019943
     78          1           0        4.508217    6.932838   -2.245953
     79          1           0        3.710856    6.108014   -3.598584
     80         12           0       -5.154465   -0.689627   -0.832199
     81          6           0       -6.449017    1.706226    1.505127
     82          6           0       -5.014787    1.838477   -3.117757
     83          6           0       -4.441816   -2.856446   -3.037758
     84          6           0       -6.450283   -3.187881    1.223362
     85          7           0       -5.689725    1.452611   -0.703536
     86          6           0       -6.113594    2.263935    0.253767
     87          6           0       -6.105545    3.768527   -0.127903
     88          6           0       -6.196906    3.612323   -1.723567
     89          6           0       -5.563381    2.230396   -1.870552
     90          6           0       -7.624133    3.540901   -2.240528
     91          6           0       -4.779458    4.487622    0.303862
     92          6           0       -4.827194    6.015912    0.242200
     93          1           0       -4.096637    6.776426    1.252325
     94          7           0       -4.327123   -0.474975   -2.623286
     95          6           0       -4.346953    0.627052   -3.402009
     96          6           0       -3.615932    0.267350   -4.626914
     97          6           0       -3.305316   -1.187233   -4.577738
     98          6           0       -4.047087   -1.575339   -3.394842
     99          6           0       -3.211315    1.278791   -5.659719
    100          6           0       -2.487739   -2.083407   -5.457889
    101          8           0       -2.549249   -3.360038   -5.361717
    102          6           0       -1.683847   -1.424955   -6.497927
    103          7           0       -5.589574   -2.714668   -1.011707
    104          6           0       -5.114223   -3.435176   -2.042641
    105          6           0       -5.322592   -4.913692   -1.816852
    106          6           0       -5.821244   -5.051111   -0.303569
    107          6           0       -5.903910   -3.555395    0.072452
    108          6           0       -6.326918   -5.593649   -2.747101
    109          6           0       -5.012071   -6.001938    0.620475
    110          6           0       -3.630601   -5.436626    0.859983
    111          7           0       -6.088096   -0.773438    1.114434
    112          6           0       -6.578231   -1.920273    1.776702
    113          6           0       -7.228105   -1.460048    3.021006
    114          6           0       -7.090088   -0.064300    2.984744
    115          6           0       -6.420565    0.319903    1.791586
    116          6           0       -7.881364   -2.290640    3.974678
    117          6           0       -7.367951    1.172216    3.679392
    118          8           0       -7.834949    1.464598    4.779461
    119          6           0       -7.077272    2.383090    2.691623
    120          6           0       -6.255493    3.401037    3.433895
    121          8           0       -5.100148    3.130692    3.806324
    122          8           0       -6.883143    4.590385    3.390647
    123          6           0       -6.101341    5.635214    4.104039
    124          1           0       -5.143563    2.502613   -3.972877
    125          1           0       -4.121966   -3.653705   -3.712700
    126          1           0       -6.791785   -3.912846    1.965291
    127          1           0       -6.952964    4.334887    0.239373
    128          1           0       -5.595316    4.363292   -2.229037
    129          1           0       -8.342032    3.488028   -1.435562
    130          1           0       -7.672069    2.647639   -2.849500
    131          1           0       -7.822509    4.377535   -2.916558
    132          1           0       -4.005138    4.293285   -0.449408
    133          1           0       -4.478360    4.174781    1.284728
    134          1           0       -5.852613    6.392674    0.144580
    135          1           0       -4.333360    6.341734   -0.676488
    136          1           0       -3.721836    2.237441   -5.505561
    137          1           0       -3.590265    0.921106   -6.623219
    138          1           0       -2.128178    1.399967   -5.728930
    139          1           0       -2.337157   -0.847962   -7.148103
    140          1           0       -1.101557   -2.221477   -6.965216
    141          1           0       -1.007274   -0.709850   -6.016791
    142          1           0       -4.392724   -5.457175   -1.931177
    143          1           0       -6.846035   -5.446571   -0.246568
    144          1           0       -5.896244   -6.445406   -3.306662
    145          1           0       -6.718657   -4.850157   -3.428487
    146          1           0       -7.229759   -5.961330   -2.262431
    147          1           0       -4.871049   -6.971307    0.136122
    148          1           0       -5.490987   -6.186174    1.576341
    149          1           0       -3.074051   -5.762249   -0.023927
    150          1           0       -3.200805   -5.848439    1.770875
    151          1           0       -3.647349   -4.340566    0.853684
    152          1           0       -7.572477   -1.944790    4.952164
    153          1           0       -7.631777   -3.339127    3.825895
    154          1           0       -8.926644   -2.079329    3.733819
    155          1           0       -8.040095    2.786152    2.375231
    156          1           0       -6.763864    6.070566    4.858508
    157          1           0       -5.720354    6.312775    3.316960
    158          1           0       -5.269464    5.307880    4.716641
 ---------------------------------------------------------------------

 SCF Done:  E(RCAM-B3LYP) =  -4069.81241447     A.U. after   19 cycles

 Excitation energies and oscillator strengths:

 Excited State   1:      Singlet-A      1.6571 eV  748.19 nm  f=0.0223  <S**2>=0.000
     309 -> 315        0.11441
     310 -> 316        0.12517
     311 -> 313       -0.46244
     312 -> 314        0.50825
 This state for optimization and/or second-order correction.
 Total Energy, E(TD-HF/TD-DFT) =  -4069.75151608
 Copying the excited state density for this state as the 1-particle RhoCI density.

 Excited State   2:      Singlet-A      1.6971 eV  730.56 nm  f=0.7032  <S**2>=0.000
     309 -> 315       -0.13320
     310 -> 316        0.12059
     311 -> 313        0.50639
     312 -> 314        0.46088

 Excited State   3:      Singlet-A      2.1860 eV  567.18 nm  f=0.0189  <S**2>=0.000
     309 -> 313        0.29856
     310 -> 314        0.56989
     311 -> 315        0.12576
     312 -> 316       -0.24123

 Excited State   4:      Singlet-A      2.1953 eV  564.78 nm  f=0.1638  <S**2>=0.000
     309 -> 313        0.56700
     310 -> 314       -0.29606
     311 -> 315        0.24842
     312 -> 316        0.13012

 Excited State   5:      Singlet-A      2.5658 eV  483.22 nm  f=0.0000  <S**2>=0.000
     312 -> 313        0.70707

 The electronic state is 1-A.
 Alpha  occ. eigenvalues --  -46.87708 -46.87494 -19.26352 -19.26305 -19.19105
 Alpha  occ. eigenvalues --  -19.19085 -19.18688 -19.18492 -19.18148 -19.17925
 Alpha  occ. eigenvalues --  -14.42367 -14.42333 -14.41358 -14.41199 -14.39309
 Alpha  occ. eigenvalues --  -14.39175 -14.38509 -14.38440 -10.39134 -10.39028
 Alpha  occ. eigenvalues --  -10.35317 -10.35161 -10.34371 -10.34107 -10.31781
 Alpha  occ. eigenvalues --  -10.31746 -10.31338 -10.31159 -10.30849 -10.30827
 Alpha  occ. eigenvalues --  -10.30495 -10.30425 -10.30238 -10.30200 -10.30096
 Alpha  occ. eigenvalues --  -10.29963 -10.29840 -10.29754 -10.29545 -10.29249
 Alpha  occ. eigenvalues --  -10.29223 -10.29154 -10.28696 -10.28580 -10.28560
 Alpha  occ. eigenvalues --  -10.28524 -10.28286 -10.28234 -10.28055 -10.27995
 Alpha  occ. eigenvalues --  -10.27830 -10.27715 -10.27641 -10.27497 -10.27487
 Alpha  occ. eigenvalues --  -10.27383 -10.27377 -10.27345 -10.27333 -10.27333
 Alpha  occ. eigenvalues --  -10.27327 -10.27273 -10.27246 -10.27150 -10.27146
 Alpha  occ. eigenvalues --  -10.26939 -10.26664 -10.26559 -10.26229 -10.26178
 Alpha  occ. eigenvalues --  -10.26086 -10.26033 -10.26003 -10.25923 -10.25897
 Alpha  occ. eigenvalues --  -10.25799 -10.25772 -10.25730 -10.25343 -10.25285
 Alpha  occ. eigenvalues --  -10.24766 -10.24711 -10.24701 -10.24584 -10.24533
 Alpha  occ. eigenvalues --  -10.24496  -3.16450  -3.16243  -1.91332  -1.91126
 Alpha  occ. eigenvalues --   -1.90919  -1.90761  -1.90714  -1.90551  -1.16698
 Alpha  occ. eigenvalues --   -1.16595  -1.08617  -1.08543  -1.07087  -1.06888
 Alpha  occ. eigenvalues --   -1.06745  -1.06705  -1.04501  -1.04331  -1.03672
 Alpha  occ. eigenvalues --   -1.03498  -1.03148  -1.02875  -1.02326  -1.01948
 Alpha  occ. eigenvalues --   -0.91914  -0.91840  -0.89416  -0.89343  -0.89128
 Alpha  occ. eigenvalues --   -0.89009  -0.88184  -0.88076  -0.87805  -0.87645
 Alpha  occ. eigenvalues --   -0.87592  -0.87523  -0.87155  -0.86883  -0.84917
 Alpha  occ. eigenvalues --   -0.84852  -0.83835  -0.83740  -0.82835  -0.82713
 Alpha  occ. eigenvalues --   -0.82576  -0.82473  -0.81569  -0.81488  -0.80536
 Alpha  occ. eigenvalues --   -0.80298  -0.78697  -0.78434  -0.77134  -0.76985
 Alpha  occ. eigenvalues --   -0.76886  -0.76776  -0.75877  -0.75701  -0.74813
 Alpha  occ. eigenvalues --   -0.74666  -0.72693  -0.72539  -0.71601  -0.71437
 Alpha  occ. eigenvalues --   -0.69782  -0.69614  -0.68803  -0.68674  -0.67566
 Alpha  occ. eigenvalues --   -0.67444  -0.67146  -0.67029  -0.65230  -0.65132
 Alpha  occ. eigenvalues --   -0.64797  -0.64628  -0.64555  -0.64518  -0.64172
 Alpha  occ. eigenvalues --   -0.64060  -0.62290  -0.62178  -0.60332  -0.60138
 Alpha  occ. eigenvalues --   -0.59738  -0.59645  -0.58915  -0.58844  -0.58436
 Alpha  occ. eigenvalues --   -0.58280  -0.57572  -0.57445  -0.57227  -0.57075
 Alpha  occ. eigenvalues --   -0.56241  -0.56044  -0.55981  -0.55778  -0.55432
 Alpha  occ. eigenvalues --   -0.55280  -0.55276  -0.55122  -0.54479  -0.54375
 Alpha  occ. eigenvalues --   -0.53837  -0.53769  -0.53214  -0.53146  -0.53068
 Alpha  occ. eigenvalues --   -0.52979  -0.52872  -0.52765  -0.52645  -0.52428
 Alpha  occ. eigenvalues --   -0.52309  -0.52259  -0.51864  -0.51755  -0.51548
 Alpha  occ. eigenvalues --   -0.51489  -0.51136  -0.51065  -0.50425  -0.50214
 Alpha  occ. eigenvalues --   -0.49917  -0.49815  -0.49793  -0.49703  -0.49437
 Alpha  occ. eigenvalues --   -0.49303  -0.49151  -0.49044  -0.49035  -0.48970
 Alpha  occ. eigenvalues --   -0.48557  -0.48428  -0.48393  -0.48341  -0.48248
 Alpha  occ. eigenvalues --   -0.48130  -0.47613  -0.47428  -0.47211  -0.46938
 Alpha  occ. eigenvalues --   -0.46715  -0.46562  -0.46498  -0.46403  -0.46282
 Alpha  occ. eigenvalues --   -0.46108  -0.46100  -0.45952  -0.45796  -0.45710
 Alpha  occ. eigenvalues --   -0.45105  -0.45068  -0.44539  -0.44406  -0.44385
 Alpha  occ. eigenvalues --   -0.44323  -0.44068  -0.44013  -0.43984  -0.43941
 Alpha  occ. eigenvalues --   -0.43923  -0.43737  -0.43472  -0.43452  -0.43308
 Alpha  occ. eigenvalues --   -0.43244  -0.42959  -0.42838  -0.42763  -0.42723
 Alpha  occ. eigenvalues --   -0.42547  -0.42392  -0.41921  -0.41824  -0.41640
 Alpha  occ. eigenvalues --   -0.41529  -0.41468  -0.41315  -0.41070  -0.40844
 Alpha  occ. eigenvalues --   -0.40792  -0.40706  -0.40570  -0.40502  -0.40474
 Alpha  occ. eigenvalues --   -0.40355  -0.40174  -0.40067  -0.39306  -0.39281
 Alpha  occ. eigenvalues --   -0.38372  -0.38212  -0.37698  -0.37523  -0.37225
 Alpha  occ. eigenvalues --   -0.37201  -0.37118  -0.37046  -0.36728  -0.36697
 Alpha  occ. eigenvalues --   -0.36142  -0.36089  -0.34208  -0.34099  -0.33811
 Alpha  occ. eigenvalues --   -0.33786  -0.33111  -0.33015  -0.31221  -0.31059
 Alpha  occ. eigenvalues --   -0.30956  -0.30812  -0.30012  -0.29835  -0.29358
 Alpha  occ. eigenvalues --   -0.29247  -0.29141  -0.29044  -0.23999  -0.23876
 Alpha  occ. eigenvalues --   -0.21041  -0.20948
 Alpha virt. eigenvalues --   -0.08687  -0.08618  -0.01657  -0.01516   0.00039
 Alpha virt. eigenvalues --    0.00168   0.02258   0.02353   0.03202   0.03448
 Alpha virt. eigenvalues --    0.04786   0.04874   0.05058   0.05238   0.06207

 Mulliken charges:
               1
     1  Mg   0.839295
     2  C   -0.003340
     3  C   -0.093645
     4  C   -0.045697
     5  C   -0.063625
     6  N   -0.256846
     7  C   -0.052628
     8  C   -0.014111
     9  C   -0.087141
    10  C    0.046573
    11  C    0.104810
    12  C    0.053311
    13  C   -0.071429
    14  H    0.034649
    15  N   -0.433264
    16  C    0.168974
    17  C   -0.176403
    18  C   -0.003467
    19  C    0.148976
    20  C    0.110018
    21  C    0.012848
    22  O   -0.249701
    23  C    0.062017
    24  N   -0.341210
    25  C    0.041501
    26  C   -0.028170
    27  C   -0.023933
    28  C    0.074813
    29  C    0.076242
    30  C    0.035079
    31  C   -0.004842
    32  N   -0.310201
    33  C    0.080069
    34  C   -0.170314
    35  C    0.007632
    36  C    0.082616
    37  C    0.127559
    38  C    0.045124
    39  O   -0.189954
    40  C   -0.005052
    41  C    0.212762
    42  O   -0.258455
    43  O   -0.304379
    44  C    0.158253
    45  H   -0.017485
    46  H   -0.016698
    47  H   -0.041459
    48  H    0.000474
    49  H   -0.003734
    50  H    0.025249
    51  H    0.016574
    52  H    0.016633
    53  H    0.012407
    54  H    0.043320
    55  H    0.017693
    56  H    0.018607
    57  H    0.005869
    58  H    0.026726
    59  H    0.041521
    60  H    0.037084
    61  H    0.035845
    62  H    0.033382
    63  H    0.016770
    64  H    0.009160
    65  H    0.023156
    66  H    0.012392
    67  H    0.004641
    68  H    0.006084
    69  H    0.004872
    70  H    0.008347
    71  H    0.020441
    72  H    0.028793
    73  H    0.046269
    74  H    0.009529
    75  H    0.045784
    76  H    0.035064
    77  H    0.042606
    78  H    0.046733
    79  H    0.052039
    80  Mg   0.838113
    81  C   -0.017019
    82  C   -0.086579
    83  C   -0.045611
    84  C   -0.064919
    85  N   -0.254554
    86  C   -0.050184
    87  C   -0.015191
    88  C   -0.090703
    89  C    0.045953
    90  C    0.114400
    91  C    0.062163
    92  C   -0.077392
    93  H    0.033167
    94  N   -0.423696
    95  C    0.163714
    96  C   -0.173121
    97  C   -0.007102
    98  C    0.152276
    99  C    0.098850
   100  C    0.016059
   101  O   -0.254271
   102  C    0.060261
   103  N   -0.350043
   104  C    0.037741
   105  C   -0.019788
   106  C   -0.034573
   107  C    0.088580
   108  C    0.073829
   109  C    0.034822
   110  C   -0.007595
   111  N   -0.323863
   112  C    0.077885
   113  C   -0.163717
   114  C    0.001780
   115  C    0.095803
   116  C    0.131643
   117  C    0.041761
   118  O   -0.189155
   119  C    0.001061
   120  C    0.211180
   121  O   -0.251682
   122  O   -0.305449
   123  C    0.152425
   124  H   -0.019401
   125  H   -0.015851
   126  H   -0.040962
   127  H   -0.001228
   128  H   -0.003805
   129  H    0.022132
   130  H    0.014465
   131  H    0.016134
   132  H    0.015641
   133  H    0.037036
   134  H    0.020418
   135  H    0.020193
   136  H    0.008683
   137  H    0.025603
   138  H    0.044920
   139  H    0.038013
   140  H    0.035764
   141  H    0.038444
   142  H    0.014134
   143  H    0.011979
   144  H    0.024756
   145  H    0.011639
   146  H    0.005409
   147  H    0.005733
   148  H    0.003411
   149  H    0.010558
   150  H    0.018371
   151  H    0.030334
   152  H    0.045208
   153  H    0.008284
   154  H    0.046461
   155  H    0.034698
   156  H    0.043446
   157  H    0.049516
   158  H    0.052608
 Sum of Mulliken charges =  -0.00000

 Dipole moment (field-independent basis, Debye):
    X=              1.2942    Y=              3.0767    Z=              0.1273  Tot=              3.3403
 Quadrupole moment (field-independent basis, Debye-Ang):
   XX=           -503.3529   YY=           -461.5191   ZZ=           -530.4468
   XY=              3.1310   XZ=             51.0103   YZ=              7.8706

 Normal termination of Gaussian 16 at Fri Sep 10 12:27:44 2021.
