 Gaussian 16, Revision A.03,
 Gaussian 16:  ES64L-G16RevA.03 25-Dec-2016

 -----------------------------------
 #p cam-b3lyp/Def2SVP td=(nstates=5)
 -----------------------------------

 --------------------------------
 TDDFT excited states in gaussian
 --------------------------------
 Symbolic Z-matrix:
 Charge =  0 Multiplicity = 1

                         Standard orientation:
 ---------------------------------------------------------------------
 Center     Atomic      Atomic             Coordinates (Angstroms)
 Number     Number       Type             X           Y           Z
 ---------------------------------------------------------------------
      1         12           0       -6.521922    0.669120    0.380712
      2          6           0       -6.863550   -2.291502   -1.601766
      3          6           0       -7.210845   -1.258636    3.110584
      4          6           0       -6.674332    3.335857    2.090070
      5          6           0       -6.985739    2.504298   -2.545490
      6          7           0       -6.961984   -1.489454    0.598765
      7          6           0       -7.003643   -2.526297   -0.232134
      8          6           0       -7.134854   -3.897111    0.496581
      9          6           0       -7.794950   -3.395981    1.858617
     10          6           0       -7.263299   -1.973686    1.877303
     11          6           0       -9.318963   -3.350164    1.816356
     12          6           0       -5.744627   -4.572192    0.748106
     13          6           0       -5.798791   -6.047539    1.155258
     14          1           0       -4.753656   -6.943134    0.683081
     15          7           0       -6.406412    0.947800    2.333106
     16          6           0       -6.710081    0.047734    3.299001
     17          6           0       -6.460591    0.731469    4.586224
     18          6           0       -6.169156    2.162166    4.292513
     19          6           0       -6.434151    2.212207    2.877362
     20          6           0       -6.464051    0.025298    5.907232
     21          6           0       -5.732808    3.305598    5.152917
     22          8           0       -5.761384    4.515834    4.741715
     23          6           0       -5.349706    2.976756    6.537886
     24          7           0       -7.008922    2.640392   -0.103596
     25          6           0       -6.939665    3.613135    0.811805
     26          6           0       -7.054692    4.968016    0.178557
     27          6           0       -6.973532    4.727488   -1.397931
     28          6           0       -6.904007    3.180414   -1.397338
     29          6           0       -8.329978    5.755429    0.509672
     30          6           0       -5.887925    5.514297   -2.174337
     31          6           0       -4.514113    5.027909   -1.770398
     32          7           0       -6.688800    0.224701   -1.737233
     33          6           0       -6.901419    1.141504   -2.776915
     34          6           0       -7.052120    0.359866   -4.018043
     35          6           0       -6.932446   -0.966842   -3.608934
     36          6           0       -6.746639   -1.012373   -2.197660
     37          6           0       -7.327128    0.890865   -5.309106
     38          6           0       -6.942934   -2.357712   -4.032286
     39          8           0       -6.969176   -2.932424   -5.121557
     40          6           0       -7.020626   -3.276153   -2.733726
     41          6           0       -5.981461   -4.354551   -2.876917
     42          8           0       -4.764922   -4.076769   -2.861638
     43          8           0       -6.569838   -5.555817   -2.770548
     44          6           0       -5.589738   -6.669729   -2.874277
     45          1           0       -7.645124   -1.713229    4.003158
     46          1           0       -6.624726    4.286323    2.625414
     47          1           0       -7.048591    3.012471   -3.509473
     48          1           0       -7.794213   -4.612221    0.004354
     49          1           0       -7.422789   -3.950979    2.719544
     50          1           0       -9.695774   -3.546729    0.812714
     51          1           0       -9.588779   -2.342721    2.133768
     52          1           0       -9.747480   -4.023274    2.559372
     53          1           0       -5.296446   -4.148099    1.646626
     54          1           0       -5.098980   -4.462307   -0.123898
     55          1           0       -6.783328   -6.476920    0.967569
     56          1           0       -5.678646   -6.107957    2.236977
     57          1           0       -6.872127   -0.981085    5.822307
     58          1           0       -7.171068    0.551922    6.547937
     59          1           0       -5.478439    0.021167    6.372940
     60          1           0       -6.193456    2.505516    7.042434
     61          1           0       -4.981273    3.903619    6.976101
     62          1           0       -4.551569    2.234145    6.516603
     63          1           0       -6.232367    5.613612    0.484193
     64          1           0       -7.904180    4.992070   -1.900490
     65          1           0       -8.138326    6.733717    0.951177
     66          1           0       -8.943078    5.142011    1.169307
     67          1           0       -9.004230    5.908596   -0.332552
     68          1           0       -5.938366    6.574209   -1.927382
     69          1           0       -5.980148    5.421147   -3.256497
     70          1           0       -4.313673    5.592712   -0.860644
     71          1           0       -3.783993    5.263895   -2.545283
     72          1           0       -4.528960    3.971523   -1.501488
     73          1           0       -6.675257    0.359705   -6.002578
     74          1           0       -7.148463    1.965400   -5.341603
     75          1           0       -8.382914    0.639875   -5.409979
     76          1           0       -8.030667   -3.683133   -2.697601
     77          1           0       -5.926834   -7.319711   -3.681818
     78          1           0       -5.506359   -7.102947   -1.877394
     79          1           0       -4.592796   -6.403319   -3.227081
     80         12           0        6.683581    0.664847   -0.526815
     81          6           0        6.592076   -2.504771    1.153719
     82          6           0        6.013874    2.113908    2.487532
     83          6           0        6.311561    3.424383   -2.047987
     84          6           0        6.207803   -1.062870   -3.515855
     85          7           0        6.365952   -0.190443    1.488092
     86          6           0        6.416035   -1.403594    2.017342
     87          6           0        6.349511   -1.432101    3.567933
     88          6           0        5.604798   -0.028807    3.802512
     89          6           0        6.046037    0.697232    2.533320
     90          6           0        4.089423   -0.141538    3.785957
     91          6           0        7.773339   -1.444016    4.227160
     92          6           0        7.788253   -1.782456    5.719479
     93          1           0        8.908620   -2.556791    6.246408
     94          7           0        6.715946    2.525684    0.162237
     95          6           0        6.439525    2.933034    1.418804
     96          6           0        6.584420    4.396952    1.408203
     97          6           0        6.807842    4.836052    0.003928
     98          6           0        6.595068    3.587208   -0.699775
     99          6           0        6.585651    5.223602    2.661227
    100          6           0        7.143291    6.163341   -0.605979
    101          8           0        7.056765    6.365264   -1.868739
    102          6           0        7.485910    7.246059    0.327724
    103          7           0        6.103014    1.138767   -2.466060
    104          6           0        6.074670    2.415557   -2.886708
    105          6           0        5.896375    2.492667   -4.384261
    106          6           0        6.053939    0.991795   -4.913531
    107          6           0        6.214364    0.262274   -3.561687
    108          6           0        4.563757    3.064982   -4.866937
    109          6           0        7.117027    0.743107   -6.018370
    110          6           0        8.504212    0.960408   -5.458107
    111          7           0        6.625231   -1.408184   -1.132762
    112          6           0        6.387062   -1.911112   -2.430615
    113          6           0        6.329532   -3.383393   -2.323238
    114          6           0        6.516771   -3.635721   -0.955845
    115          6           0        6.659352   -2.406489   -0.257152
    116          6           0        6.079339   -4.286477   -3.394667
    117          6           0        6.615612   -4.661980    0.056929
    118          8           0        6.656433   -5.891597    0.046571
    119          6           0        6.542416   -3.970269    1.486115
    120          6           0        7.650355   -4.534626    2.332577
    121          8           0        8.840241   -4.322785    2.039520
    122          8           0        7.126065   -5.044040    3.462179
    123          6           0        8.187232   -5.605959    4.339672
    124          1           0        5.583009    2.650679    3.333178
    125          1           0        6.283049    4.343294   -2.638127
    126          1           0        6.160694   -1.677928   -4.417050
    127          1           0        5.758966   -2.240299    3.982488
    128          1           0        5.986969    0.478586    4.684472
    129          1           0        3.762066   -1.130235    3.500567
    130          1           0        3.747690    0.592181    3.067682
    131          1           0        3.677881    0.167206    4.751177
    132          1           0        8.159704   -0.417306    4.263485
    133          1           0        8.431832   -2.106506    3.699792
    134          1           0        6.834980   -2.208625    6.055033
    135          1           0        7.879933   -0.852195    6.285375
    136          1           0        6.236209    4.644967    3.525216
    137          1           0        5.826659    6.002622    2.531105
    138          1           0        7.550485    5.698494    2.851585
    139          1           0        6.656393    7.409116    1.011670
    140          1           0        7.781452    8.089753   -0.298934
    141          1           0        8.338152    6.925683    0.937372
    142          1           0        6.666776    3.106704   -4.834317
    143          1           0        5.122241    0.618483   -5.363440
    144          1           0        4.680434    3.941172   -5.532340
    145          1           0        3.968829    3.321971   -4.000597
    146          1           0        3.919671    2.358923   -5.388313
    147          1           0        6.994213    1.463249   -6.831053
    148          1           0        7.061897   -0.248286   -6.455500
    149          1           0        8.631590    2.044816   -5.528210
    150          1           0        9.245876    0.436302   -6.057508
    151          1           0        8.546359    0.691514   -4.396233
    152          1           0        6.779598   -5.103596   -3.283079
    153          1           0        6.188405   -3.797509   -4.360472
    154          1           0        5.040307   -4.554475   -3.185265
    155          1           0        5.558077   -4.184906    1.903932
    156          1           0        7.916370   -6.646777    4.542212
    157          1           0        8.249242   -4.923468    5.208069
    158          1           0        9.177679   -5.723800    3.915901
 ---------------------------------------------------------------------

 SCF Done:  E(RCAM-B3LYP) =  -4069.81181433     A.U. after   19 cycles

 Excitation energies and oscillator strengths:

 Excited State   1:      Singlet-A      1.6709 eV  742.04 nm  f=0.2111  <S**2>=0.000
     309 -> 315       -0.10007
     310 -> 316        0.14070
     311 -> 313       -0.39651
     312 -> 314        0.56005
 This state for optimization and/or second-order correction.
 Total Energy, E(TD-HF/TD-DFT) =  -4069.75041147
 Copying the excited state density for this state as the 1-particle RhoCI density.

 Excited State   2:      Singlet-A      1.6829 eV  736.71 nm  f=0.5217  <S**2>=0.000
     309 -> 315        0.14368
     310 -> 316        0.10163
     311 -> 313        0.55941
     312 -> 314        0.39619

 Excited State   3:      Singlet-A      2.1856 eV  567.27 nm  f=0.0880  <S**2>=0.000
     310 -> 314        0.63571
     312 -> 316       -0.27013

 Excited State   4:      Singlet-A      2.1918 eV  565.67 nm  f=0.1093  <S**2>=0.000
     309 -> 313        0.63396
     311 -> 315       -0.27484

 Excited State   5:      Singlet-A      2.6503 eV  467.82 nm  f=0.0000  <S**2>=0.000
     312 -> 313        0.70710

 The electronic state is 1-A.
 Alpha  occ. eigenvalues --  -46.87851 -46.87557 -19.26310 -19.26286 -19.19109
 Alpha  occ. eigenvalues --  -19.19032 -19.18903 -19.18623 -19.18213 -19.17963
 Alpha  occ. eigenvalues --  -14.42500 -14.42400 -14.41503 -14.41251 -14.39461
 Alpha  occ. eigenvalues --  -14.39251 -14.38640 -14.38495 -10.39093 -10.39036
 Alpha  occ. eigenvalues --  -10.35539 -10.35301 -10.34431 -10.34142 -10.31735
 Alpha  occ. eigenvalues --  -10.31660 -10.31449 -10.31215 -10.30959 -10.30937
 Alpha  occ. eigenvalues --  -10.30621 -10.30564 -10.30292 -10.30266 -10.30258
 Alpha  occ. eigenvalues --  -10.30029 -10.29973 -10.29781 -10.29690 -10.29331
 Alpha  occ. eigenvalues --  -10.29315 -10.29298 -10.28777 -10.28659 -10.28633
 Alpha  occ. eigenvalues --  -10.28529 -10.28420 -10.28308 -10.28149 -10.28076
 Alpha  occ. eigenvalues --  -10.27898 -10.27850 -10.27778 -10.27648 -10.27572
 Alpha  occ. eigenvalues --  -10.27559 -10.27553 -10.27504 -10.27452 -10.27388
 Alpha  occ. eigenvalues --  -10.27385 -10.27378 -10.27366 -10.27250 -10.27191
 Alpha  occ. eigenvalues --  -10.26973 -10.26719 -10.26648 -10.26528 -10.26335
 Alpha  occ. eigenvalues --  -10.26264 -10.26232 -10.26073 -10.26014 -10.25968
 Alpha  occ. eigenvalues --  -10.25892 -10.25820 -10.25712 -10.25487 -10.25254
 Alpha  occ. eigenvalues --  -10.24887 -10.24844 -10.24770 -10.24738 -10.24623
 Alpha  occ. eigenvalues --  -10.24585  -3.16594  -3.16307  -1.91476  -1.91189
 Alpha  occ. eigenvalues --   -1.91062  -1.90904  -1.90778  -1.90614  -1.16637
 Alpha  occ. eigenvalues --   -1.16601  -1.08668  -1.08574  -1.07306  -1.06894
 Alpha  occ. eigenvalues --   -1.06876  -1.06654  -1.04631  -1.04400  -1.03814
 Alpha  occ. eigenvalues --   -1.03561  -1.03290  -1.02931  -1.02465  -1.02006
 Alpha  occ. eigenvalues --   -0.92018  -0.91893  -0.89572  -0.89384  -0.89220
 Alpha  occ. eigenvalues --   -0.89083  -0.88339  -0.88105  -0.87922  -0.87720
 Alpha  occ. eigenvalues --   -0.87682  -0.87588  -0.87347  -0.87025  -0.85019
 Alpha  occ. eigenvalues --   -0.84925  -0.83986  -0.83764  -0.83049  -0.82837
 Alpha  occ. eigenvalues --   -0.82692  -0.82575  -0.81614  -0.81522  -0.80641
 Alpha  occ. eigenvalues --   -0.80359  -0.78861  -0.78536  -0.77265  -0.77057
 Alpha  occ. eigenvalues --   -0.76964  -0.76818  -0.75957  -0.75763  -0.74945
 Alpha  occ. eigenvalues --   -0.74693  -0.72826  -0.72595  -0.71718  -0.71485
 Alpha  occ. eigenvalues --   -0.69958  -0.69643  -0.68916  -0.68750  -0.67695
 Alpha  occ. eigenvalues --   -0.67508  -0.67260  -0.67130  -0.65321  -0.65198
 Alpha  occ. eigenvalues --   -0.64897  -0.64676  -0.64660  -0.64571  -0.64320
 Alpha  occ. eigenvalues --   -0.64095  -0.62322  -0.62205  -0.60509  -0.60239
 Alpha  occ. eigenvalues --   -0.59844  -0.59717  -0.59036  -0.58894  -0.58552
 Alpha  occ. eigenvalues --   -0.58331  -0.57619  -0.57475  -0.57359  -0.57135
 Alpha  occ. eigenvalues --   -0.56364  -0.56109  -0.55997  -0.55823  -0.55580
 Alpha  occ. eigenvalues --   -0.55381  -0.55370  -0.55148  -0.54557  -0.54397
 Alpha  occ. eigenvalues --   -0.53927  -0.53845  -0.53359  -0.53270  -0.53131
 Alpha  occ. eigenvalues --   -0.53062  -0.52955  -0.52825  -0.52819  -0.52587
 Alpha  occ. eigenvalues --   -0.52488  -0.52290  -0.51964  -0.51763  -0.51659
 Alpha  occ. eigenvalues --   -0.51587  -0.51238  -0.51110  -0.50658  -0.50385
 Alpha  occ. eigenvalues --   -0.50085  -0.49985  -0.49896  -0.49756  -0.49565
 Alpha  occ. eigenvalues --   -0.49405  -0.49265  -0.49131  -0.49120  -0.49024
 Alpha  occ. eigenvalues --   -0.48630  -0.48529  -0.48495  -0.48478  -0.48268
 Alpha  occ. eigenvalues --   -0.48250  -0.47744  -0.47508  -0.47351  -0.47022
 Alpha  occ. eigenvalues --   -0.46844  -0.46613  -0.46590  -0.46480  -0.46410
 Alpha  occ. eigenvalues --   -0.46206  -0.46169  -0.45980  -0.45855  -0.45734
 Alpha  occ. eigenvalues --   -0.45253  -0.45097  -0.44620  -0.44564  -0.44434
 Alpha  occ. eigenvalues --   -0.44391  -0.44199  -0.44126  -0.44068  -0.44045
 Alpha  occ. eigenvalues --   -0.43981  -0.43856  -0.43527  -0.43479  -0.43429
 Alpha  occ. eigenvalues --   -0.43299  -0.43073  -0.42864  -0.42808  -0.42737
 Alpha  occ. eigenvalues --   -0.42681  -0.42446  -0.42052  -0.41871  -0.41751
 Alpha  occ. eigenvalues --   -0.41578  -0.41568  -0.41380  -0.41186  -0.40917
 Alpha  occ. eigenvalues --   -0.40899  -0.40889  -0.40644  -0.40619  -0.40618
 Alpha  occ. eigenvalues --   -0.40386  -0.40259  -0.40170  -0.39492  -0.39310
 Alpha  occ. eigenvalues --   -0.38516  -0.38243  -0.37775  -0.37591  -0.37370
 Alpha  occ. eigenvalues --   -0.37300  -0.37162  -0.37116  -0.36737  -0.36708
 Alpha  occ. eigenvalues --   -0.36227  -0.36122  -0.34337  -0.34153  -0.33800
 Alpha  occ. eigenvalues --   -0.33791  -0.33237  -0.33074  -0.31432  -0.31182
 Alpha  occ. eigenvalues --   -0.31087  -0.30875  -0.30070  -0.29869  -0.29513
 Alpha  occ. eigenvalues --   -0.29377  -0.29227  -0.29107  -0.24132  -0.23933
 Alpha  occ. eigenvalues --   -0.21182  -0.21014
 Alpha virt. eigenvalues --   -0.08832  -0.08690  -0.01807  -0.01580  -0.00125
 Alpha virt. eigenvalues --    0.00063   0.02149   0.02307   0.03056   0.03318
 Alpha virt. eigenvalues --    0.04680   0.04817   0.05081   0.05223   0.06165

 Mulliken charges:
               1
     1  Mg   0.838514
     2  C   -0.002913
     3  C   -0.094106
     4  C   -0.046012
     5  C   -0.063982
     6  N   -0.256795
     7  C   -0.052294
     8  C   -0.014004
     9  C   -0.086974
    10  C    0.046279
    11  C    0.104796
    12  C    0.053468
    13  C   -0.072189
    14  H    0.037188
    15  N   -0.433076
    16  C    0.168249
    17  C   -0.177321
    18  C   -0.004303
    19  C    0.148621
    20  C    0.110193
    21  C    0.011893
    22  O   -0.249834
    23  C    0.062689
    24  N   -0.341146
    25  C    0.041249
    26  C   -0.028138
    27  C   -0.024036
    28  C    0.074950
    29  C    0.076164
    30  C    0.035114
    31  C   -0.004494
    32  N   -0.310506
    33  C    0.080503
    34  C   -0.169700
    35  C    0.008448
    36  C    0.083014
    37  C    0.127309
    38  C    0.046161
    39  O   -0.188155
    40  C   -0.005279
    41  C    0.212905
    42  O   -0.257053
    43  O   -0.304839
    44  C    0.157547
    45  H   -0.017559
    46  H   -0.017010
    47  H   -0.041386
    48  H    0.001130
    49  H   -0.003955
    50  H    0.025554
    51  H    0.016350
    52  H    0.016779
    53  H    0.010979
    54  H    0.044277
    55  H    0.017888
    56  H    0.017897
    57  H    0.006060
    58  H    0.026822
    59  H    0.038898
    60  H    0.037621
    61  H    0.035134
    62  H    0.030761
    63  H    0.016362
    64  H    0.009582
    65  H    0.023137
    66  H    0.012565
    67  H    0.004872
    68  H    0.006465
    69  H    0.004861
    70  H    0.008565
    71  H    0.018450
    72  H    0.028828
    73  H    0.047587
    74  H    0.009159
    75  H    0.046178
    76  H    0.035296
    77  H    0.043112
    78  H    0.046653
    79  H    0.053979
    80  Mg   0.838094
    81  C   -0.016909
    82  C   -0.087898
    83  C   -0.045381
    84  C   -0.064029
    85  N   -0.254513
    86  C   -0.049802
    87  C   -0.015060
    88  C   -0.090533
    89  C    0.045743
    90  C    0.114425
    91  C    0.062598
    92  C   -0.077657
    93  H    0.034580
    94  N   -0.423482
    95  C    0.162882
    96  C   -0.174656
    97  C   -0.007863
    98  C    0.152096
    99  C    0.099384
   100  C    0.015492
   101  O   -0.253288
   102  C    0.061229
   103  N   -0.349959
   104  C    0.037692
   105  C   -0.019953
   106  C   -0.035027
   107  C    0.088966
   108  C    0.073439
   109  C    0.034693
   110  C   -0.007632
   111  N   -0.324202
   112  C    0.078477
   113  C   -0.162584
   114  C    0.002255
   115  C    0.096353
   116  C    0.131411
   117  C    0.042548
   118  O   -0.188190
   119  C    0.000832
   120  C    0.211147
   121  O   -0.251042
   122  O   -0.305747
   123  C    0.152123
   124  H   -0.019894
   125  H   -0.015625
   126  H   -0.039890
   127  H   -0.001097
   128  H   -0.004697
   129  H    0.022403
   130  H    0.015066
   131  H    0.015382
   132  H    0.013965
   133  H    0.037670
   134  H    0.020342
   135  H    0.019453
   136  H    0.008555
   137  H    0.026248
   138  H    0.039495
   139  H    0.038297
   140  H    0.036179
   141  H    0.033737
   142  H    0.014137
   143  H    0.013550
   144  H    0.024722
   145  H    0.011813
   146  H    0.006706
   147  H    0.006284
   148  H    0.003914
   149  H    0.010757
   150  H    0.017756
   151  H    0.029932
   152  H    0.045597
   153  H    0.008737
   154  H    0.048160
   155  H    0.034885
   156  H    0.043565
   157  H    0.049272
   158  H    0.053565
 Sum of Mulliken charges =  -0.00000

 Dipole moment (field-independent basis, Debye):
    X=             -3.5921    Y=              1.9849    Z=              6.7636  Tot=              7.9113
 Quadrupole moment (field-independent basis, Debye-Ang):
   XX=           -518.6583   YY=           -524.1263   ZZ=           -474.9028
   XY=             29.4452   XZ=             -5.8938   YZ=            -23.0084

 Normal termination of Gaussian 16 at Sat Sep 11 12:28:18 2021.
