 Gaussian 16, Revision A.03,
 Gaussian 16:  ES64L-G16RevA.03 25-Dec-2016

 -----------------------------------
 #p cam-b3lyp/Def2SVP td=(nstates=5)
 -----------------------------------

 --------------------------------
 TDDFT excited states in gaussian
 --------------------------------
 Symbolic Z-matrix:
 Charge =  0 Multiplicity = 1

                         Standard orientation:
 ---------------------------------------------------------------------
 Center     Atomic      Atomic             Coordinates (Angstroms)
 Number     Number       Type             X           Y           Z
 ---------------------------------------------------------------------
      1         12           0       -3.989085    0.399924    0.455619
      2          6           0       -3.093355    3.826728    0.972241
      3          6           0       -5.003943    1.292444   -2.677516
      4          6           0       -5.202866   -2.512443    0.137075
      5          6           0       -3.972271    0.026739    3.920603
      6          7           0       -3.995308    2.343866   -0.603483
      7          6           0       -3.569379    3.569737   -0.315393
      8          6           0       -3.605839    4.538923   -1.534706
      9          6           0       -4.723823    3.807176   -2.404564
     10          6           0       -4.541325    2.389547   -1.891780
     11          6           0       -6.142587    4.266533   -2.084248
     12          6           0       -2.236166    4.594129   -2.291461
     13          6           0       -2.085135    5.749051   -3.285795
     14          1           0       -0.780163    6.373969   -3.440304
     15          7           0       -4.506487   -0.602073   -1.166461
     16          6           0       -4.874255   -0.076919   -2.359879
     17          6           0       -5.161974   -1.229165   -3.240918
     18          6           0       -5.114913   -2.462361   -2.407186
     19          6           0       -4.963460   -1.898629   -1.090126
     20          6           0       -5.394504   -1.099932   -4.715020
     21          6           0       -5.204418   -3.917496   -2.742897
     22          8           0       -5.374049   -4.813160   -1.846467
     23          6           0       -5.176668   -4.264103   -4.175424
     24          7           0       -4.729742   -0.987744    1.828004
     25          6           0       -5.140510   -2.197650    1.432553
     26          6           0       -5.357824   -3.110068    2.603111
     27          6           0       -4.774037   -2.342818    3.876011
     28          6           0       -4.374536   -1.014180    3.187977
     29          6           0       -6.813181   -3.515304    2.874649
     30          6           0       -3.707450   -3.087341    4.717733
     31          6           0       -2.438014   -3.248058    3.911631
     32          7           0       -3.435817    1.624173    2.160364
     33          6           0       -3.531742    1.275564    3.515335
     34          6           0       -3.144052    2.464899    4.295878
     35          6           0       -2.863662    3.434126    3.334719
     36          6           0       -3.088809    2.893025    2.036717
     37          6           0       -3.141929    2.565943    5.715110
     38          6           0       -2.449939    4.808536    3.103012
     39          8           0       -2.034913    5.721519    3.818350
     40          6           0       -2.699251    5.154990    1.568854
     41          6           0       -1.455451    5.819772    1.045084
     42          8           0       -0.385625    5.185417    0.942948
     43          8           0       -1.774858    7.016156    0.528184
     44          6           0       -0.589863    7.716104   -0.035742
     45          1           0       -5.568705    1.497177   -3.589146
     46          1           0       -5.517192   -3.556116    0.070853
     47          1           0       -3.862001   -0.040579    5.004467
     48          1           0       -3.923492    5.554678   -1.298564
     49          1           0       -4.505730    3.855313   -3.471260
     50          1           0       -6.161066    4.928922   -1.218904
     51          1           0       -6.704047    3.355085   -1.878051
     52          1           0       -6.611416    4.715554   -2.960237
     53          1           0       -2.169972    3.749278   -2.976959
     54          1           0       -1.405656    4.615704   -1.584980
     55          1           0       -2.855942    6.505901   -3.137662
     56          1           0       -2.272951    5.363659   -4.287991
     57          1           0       -5.532631   -0.060212   -5.009041
     58          1           0       -6.353090   -1.572302   -4.928765
     59          1           0       -4.609293   -1.581385   -5.298098
     60          1           0       -6.007389   -3.771375   -4.681062
     61          1           0       -5.160495   -5.352446   -4.221214
     62          1           0       -4.265556   -3.861111   -4.618620
     63          1           0       -4.819189   -4.047848    2.473240
     64          1           0       -5.553706   -2.092614    4.595863
     65          1           0       -6.973931   -4.593657    2.878915
     66          1           0       -7.442923   -3.028985    2.130196
     67          1           0       -7.231399   -3.123586    3.801508
     68          1           0       -4.055327   -4.088184    4.971192
     69          1           0       -3.460232   -2.576551    5.648447
     70          1           0       -2.636533   -4.141296    3.320405
     71          1           0       -1.584125   -3.399322    4.572845
     72          1           0       -2.301009   -2.420335    3.215505
     73          1           0       -2.218518    3.079291    5.982980
     74          1           0       -3.198499    1.582952    6.182154
     75          1           0       -4.042897    3.157531    5.876778
     76          1           0       -3.563433    5.817609    1.533557
     77          1           0       -0.529902    8.689301    0.451626
     78          1           0       -0.706732    7.699288   -1.119469
     79          1           0        0.384140    7.297497    0.220043
     80         12           0        3.559354   -1.906978   -0.437022
     81          6           0        5.182912    1.270653   -0.055213
     82          6           0        1.997909   -0.611653   -3.179033
     83          6           0        1.779072   -4.531365   -0.539925
     84          6           0        4.338456   -2.549554    2.898510
     85          7           0        3.659935    0.084529   -1.394127
     86          6           0        4.358234    1.192593   -1.196802
     87          6           0        4.223273    2.247776   -2.327256
     88          6           0        2.799580    1.791380   -2.913504
     89          6           0        2.827432    0.319941   -2.505138
     90          6           0        1.622119    2.457085   -2.220853
     91          6           0        5.356530    2.117749   -3.404678
     92          6           0        5.468307    3.302602   -4.366650
     93          1           0        6.794742    3.699460   -4.830934
     94          7           0        2.484241   -2.672224   -1.919285
     95          6           0        1.947517   -2.006359   -2.963235
     96          6           0        1.234113   -3.016063   -3.760549
     97          6           0        1.255012   -4.303496   -3.014371
     98          6           0        1.834902   -3.870999   -1.758683
     99          6           0        0.686715   -2.733815   -5.129535
    100          6           0        0.812942   -5.691383   -3.367284
    101          8           0        0.705800   -6.610015   -2.479899
    102          6           0        0.419706   -5.918506   -4.765599
    103          7           0        2.934510   -3.245142    1.026264
    104          6           0        2.211059   -4.332182    0.705476
    105          6           0        2.114306   -5.286663    1.871668
    106          6           0        3.130406   -4.725344    2.971698
    107          6           0        3.592756   -3.437520    2.255375
    108          6           0        0.726014   -5.439706    2.492627
    109          6           0        4.212491   -5.708188    3.496847
    110          6           0        5.191450   -6.036073    2.392532
    111          7           0        4.728706   -0.940232    1.101189
    112          6           0        4.900421   -1.366280    2.436502
    113          6           0        5.684185   -0.322937    3.129022
    114          6           0        5.896073    0.656286    2.146820
    115          6           0        5.270089    0.261155    0.933755
    116          6           0        6.059606   -0.338341    4.501952
    117          6           0        6.497888    1.939305    1.863318
    118          8           0        7.231596    2.710107    2.480807
    119          6           0        5.955264    2.453090    0.460482
    120          6           0        7.132119    2.927551   -0.347235
    121          8           0        8.005585    2.125798   -0.722552
    122          8           0        6.921627    4.201271   -0.726309
    123          6           0        8.056817    4.713002   -1.539522
    124          1           0        1.286497   -0.235547   -3.914778
    125          1           0        1.269669   -5.497740   -0.550183
    126          1           0        4.705919   -2.720893    3.912557
    127          1           0        4.173002    3.274904   -1.986283
    128          1           0        2.769333    1.886200   -3.995838
    129          1           0        1.933989    3.039842   -1.366869
    130          1           0        0.969219    1.651572   -1.911168
    131          1           0        1.048853    3.050619   -2.938781
    132          1           0        5.086951    1.324669   -4.113966
    133          1           0        6.306283    1.939481   -2.939055
    134          1           0        4.908172    4.176144   -4.011509
    135          1           0        4.978966    3.034229   -5.306086
    136          1           0        0.675538   -1.658123   -5.344374
    137          1           0       -0.370768   -3.019131   -5.116145
    138          1           0        1.195845   -3.300756   -5.911870
    139          1           0       -0.395900   -5.247671   -5.024882
    140          1           0        0.221097   -6.989218   -4.843084
    141          1           0        1.262827   -5.653997   -5.413505
    142          1           0        2.424739   -6.283221    1.582539
    143          1           0        2.606831   -4.406304    3.884891
    144          1           0        0.364649   -6.485380    2.501389
    145          1           0        0.037956   -4.804134    1.951184
    146          1           0        0.632045   -5.066999    3.511190
    147          1           0        3.752711   -6.653668    3.794867
    148          1           0        4.758575   -5.331019    4.355062
    149          1           0        4.683313   -6.832566    1.840737
    150          1           0        6.135164   -6.383743    2.807951
    151          1           0        5.312817   -5.187420    1.709376
    152          1           0        7.091766   -0.017097    4.546106
    153          1           0        5.931030   -1.326730    4.938219
    154          1           0        5.347003    0.385061    4.907131
    155          1           0        5.244165    3.256048    0.658436
    156          1           0        8.414247    5.624799   -1.051104
    157          1           0        7.665239    4.813498   -2.569239
    158          1           0        8.962444    4.118380   -1.566091
 ---------------------------------------------------------------------

 SCF Done:  E(RCAM-B3LYP) =  -4069.81165966     A.U. after   19 cycles

 Excitation energies and oscillator strengths:

 Excited State   1:      Singlet-A      1.6352 eV  758.23 nm  f=0.0244  <S**2>=0.000
     309 -> 315       -0.11271
     310 -> 316        0.11868
     311 -> 313       -0.47150
     312 -> 314        0.50160
 This state for optimization and/or second-order correction.
 Total Energy, E(TD-HF/TD-DFT) =  -4069.75156786
 Copying the excited state density for this state as the 1-particle RhoCI density.

 Excited State   2:      Singlet-A      1.7110 eV  724.62 nm  f=0.6625  <S**2>=0.000
     309 -> 315        0.13460
     310 -> 316        0.12475
     311 -> 313        0.49806
     312 -> 314        0.46819

 Excited State   3:      Singlet-A      2.1767 eV  569.61 nm  f=0.0096  <S**2>=0.000
     309 -> 313       -0.34212
     310 -> 314        0.54895
     311 -> 315        0.13929
     312 -> 316       -0.22456

 Excited State   4:      Singlet-A      2.1975 eV  564.21 nm  f=0.1581  <S**2>=0.000
     309 -> 313        0.54218
     310 -> 314        0.33581
     311 -> 315       -0.24077
     312 -> 316       -0.15022

 Excited State   5:      Singlet-A      2.2161 eV  559.46 nm  f=0.0000  <S**2>=0.000
     312 -> 313        0.70691

 The electronic state is 1-A.
 Alpha  occ. eigenvalues --  -46.87972 -46.87410 -19.26536 -19.26099 -19.19302
 Alpha  occ. eigenvalues --  -19.18936 -19.18908 -19.18511 -19.18331 -19.17766
 Alpha  occ. eigenvalues --  -14.42646 -14.42229 -14.41621 -14.41117 -14.39574
 Alpha  occ. eigenvalues --  -14.39111 -14.38759 -14.38339 -10.39345 -10.38828
 Alpha  occ. eigenvalues --  -10.35574 -10.35196 -10.34557 -10.33935 -10.31925
 Alpha  occ. eigenvalues --  -10.31612 -10.31552 -10.31125 -10.31026 -10.30762
 Alpha  occ. eigenvalues --  -10.30758 -10.30662 -10.30373 -10.30144 -10.30110
 Alpha  occ. eigenvalues --  -10.30068 -10.29931 -10.29802 -10.29644 -10.29426
 Alpha  occ. eigenvalues --  -10.29211 -10.29168 -10.29043 -10.28974 -10.28549
 Alpha  occ. eigenvalues --  -10.28497 -10.28402 -10.28377 -10.28146 -10.27963
 Alpha  occ. eigenvalues --  -10.27925 -10.27783 -10.27762 -10.27756 -10.27745
 Alpha  occ. eigenvalues --  -10.27644 -10.27595 -10.27565 -10.27435 -10.27424
 Alpha  occ. eigenvalues --  -10.27359 -10.27343 -10.27246 -10.27214 -10.27178
 Alpha  occ. eigenvalues --  -10.27125 -10.26716 -10.26607 -10.26471 -10.26454
 Alpha  occ. eigenvalues --  -10.26339 -10.26324 -10.26192 -10.25992 -10.25971
 Alpha  occ. eigenvalues --  -10.25705 -10.25595 -10.25533 -10.25436 -10.25206
 Alpha  occ. eigenvalues --  -10.25001 -10.24942 -10.24868 -10.24614 -10.24585
 Alpha  occ. eigenvalues --  -10.24438  -3.16714  -3.16160  -1.91595  -1.91182
 Alpha  occ. eigenvalues --   -1.91042  -1.91024  -1.90630  -1.90467  -1.16887
 Alpha  occ. eigenvalues --   -1.16392  -1.08792  -1.08366  -1.07326  -1.06907
 Alpha  occ. eigenvalues --   -1.06760  -1.06692  -1.04781  -1.04224  -1.03934
 Alpha  occ. eigenvalues --   -1.03411  -1.03404  -1.02796  -1.02584  -1.01860
 Alpha  occ. eigenvalues --   -0.92161  -0.91708  -0.89684  -0.89460  -0.89278
 Alpha  occ. eigenvalues --   -0.88830  -0.88442  -0.88035  -0.88012  -0.87885
 Alpha  occ. eigenvalues --   -0.87540  -0.87466  -0.87441  -0.86952  -0.85239
 Alpha  occ. eigenvalues --   -0.84726  -0.84095  -0.83674  -0.83148  -0.82880
 Alpha  occ. eigenvalues --   -0.82781  -0.82397  -0.81797  -0.81350  -0.80798
 Alpha  occ. eigenvalues --   -0.80204  -0.78986  -0.78436  -0.77434  -0.77163
 Alpha  occ. eigenvalues --   -0.76911  -0.76641  -0.76142  -0.75543  -0.75060
 Alpha  occ. eigenvalues --   -0.74580  -0.72951  -0.72453  -0.71857  -0.71305
 Alpha  occ. eigenvalues --   -0.70069  -0.69567  -0.69111  -0.68565  -0.67829
 Alpha  occ. eigenvalues --   -0.67493  -0.67369  -0.66989  -0.65537  -0.65046
 Alpha  occ. eigenvalues --   -0.64996  -0.64828  -0.64524  -0.64436  -0.64401
 Alpha  occ. eigenvalues --   -0.63986  -0.62508  -0.62038  -0.60617  -0.60148
 Alpha  occ. eigenvalues --   -0.60041  -0.59504  -0.59169  -0.58746  -0.58689
 Alpha  occ. eigenvalues --   -0.58181  -0.57789  -0.57483  -0.57272  -0.57013
 Alpha  occ. eigenvalues --   -0.56498  -0.56217  -0.55978  -0.55709  -0.55652
 Alpha  occ. eigenvalues --   -0.55515  -0.55233  -0.55027  -0.54721  -0.54267
 Alpha  occ. eigenvalues --   -0.54167  -0.53622  -0.53483  -0.53451  -0.53136
 Alpha  occ. eigenvalues --   -0.53013  -0.52983  -0.52905  -0.52672  -0.52604
 Alpha  occ. eigenvalues --   -0.52469  -0.52223  -0.52070  -0.51873  -0.51626
 Alpha  occ. eigenvalues --   -0.51414  -0.51386  -0.50955  -0.50789  -0.50350
 Alpha  occ. eigenvalues --   -0.50218  -0.50115  -0.49751  -0.49734  -0.49657
 Alpha  occ. eigenvalues --   -0.49421  -0.49320  -0.49243  -0.48946  -0.48802
 Alpha  occ. eigenvalues --   -0.48763  -0.48617  -0.48609  -0.48289  -0.48171
 Alpha  occ. eigenvalues --   -0.48122  -0.47903  -0.47484  -0.47367  -0.46997
 Alpha  occ. eigenvalues --   -0.46934  -0.46811  -0.46542  -0.46475  -0.46336
 Alpha  occ. eigenvalues --   -0.46287  -0.46065  -0.46013  -0.45853  -0.45561
 Alpha  occ. eigenvalues --   -0.45354  -0.44990  -0.44773  -0.44718  -0.44329
 Alpha  occ. eigenvalues --   -0.44319  -0.44268  -0.44227  -0.44209  -0.43881
 Alpha  occ. eigenvalues --   -0.43826  -0.43714  -0.43696  -0.43597  -0.43309
 Alpha  occ. eigenvalues --   -0.43215  -0.43120  -0.42917  -0.42831  -0.42688
 Alpha  occ. eigenvalues --   -0.42645  -0.42354  -0.42208  -0.41897  -0.41778
 Alpha  occ. eigenvalues --   -0.41747  -0.41398  -0.41332  -0.41215  -0.41111
 Alpha  occ. eigenvalues --   -0.41016  -0.40748  -0.40703  -0.40565  -0.40517
 Alpha  occ. eigenvalues --   -0.40442  -0.40249  -0.39995  -0.39579  -0.39244
 Alpha  occ. eigenvalues --   -0.38647  -0.38134  -0.38058  -0.37501  -0.37492
 Alpha  occ. eigenvalues --   -0.37424  -0.37039  -0.36942  -0.36937  -0.36533
 Alpha  occ. eigenvalues --   -0.36396  -0.35981  -0.34467  -0.34026  -0.33998
 Alpha  occ. eigenvalues --   -0.33607  -0.33369  -0.32928  -0.31466  -0.31215
 Alpha  occ. eigenvalues --   -0.31067  -0.30712  -0.30194  -0.29665  -0.29617
 Alpha  occ. eigenvalues --   -0.29488  -0.29105  -0.28949  -0.24261  -0.23776
 Alpha  occ. eigenvalues --   -0.21308  -0.20868
 Alpha virt. eigenvalues --   -0.08950  -0.08547  -0.01920  -0.01441  -0.00233
 Alpha virt. eigenvalues --    0.00202   0.02031   0.02343   0.02563   0.03570
 Alpha virt. eigenvalues --    0.04463   0.04778   0.05012   0.05430   0.05781

 Mulliken charges:
               1
     1  Mg   0.838527
     2  C   -0.003418
     3  C   -0.096196
     4  C   -0.044147
     5  C   -0.063504
     6  N   -0.256713
     7  C   -0.053482
     8  C   -0.012302
     9  C   -0.086871
    10  C    0.045909
    11  C    0.104787
    12  C    0.048019
    13  C   -0.072507
    14  H    0.034618
    15  N   -0.433301
    16  C    0.168390
    17  C   -0.178972
    18  C   -0.003713
    19  C    0.149905
    20  C    0.110473
    21  C    0.014020
    22  O   -0.246702
    23  C    0.062685
    24  N   -0.340947
    25  C    0.040988
    26  C   -0.028954
    27  C   -0.024041
    28  C    0.074702
    29  C    0.075946
    30  C    0.037920
    31  C   -0.014683
    32  N   -0.310777
    33  C    0.080797
    34  C   -0.169168
    35  C    0.008684
    36  C    0.083352
    37  C    0.127197
    38  C    0.046565
    39  O   -0.187389
    40  C   -0.005991
    41  C    0.213857
    42  O   -0.258684
    43  O   -0.304428
    44  C    0.157250
    45  H   -0.017919
    46  H   -0.015553
    47  H   -0.041157
    48  H    0.001515
    49  H   -0.005161
    50  H    0.025904
    51  H    0.017071
    52  H    0.016770
    53  H    0.009746
    54  H    0.046708
    55  H    0.019825
    56  H    0.017207
    57  H    0.005405
    58  H    0.027732
    59  H    0.036235
    60  H    0.037307
    61  H    0.037976
    62  H    0.026877
    63  H    0.018174
    64  H    0.009862
    65  H    0.023994
    66  H    0.012538
    67  H    0.004870
    68  H    0.006470
    69  H    0.003936
    70  H    0.014659
    71  H    0.019468
    72  H    0.030756
    73  H    0.048330
    74  H    0.009235
    75  H    0.046354
    76  H    0.035553
    77  H    0.044432
    78  H    0.045522
    79  H    0.053592
    80  Mg   0.837793
    81  C   -0.015717
    82  C   -0.088813
    83  C   -0.045324
    84  C   -0.065102
    85  N   -0.254949
    86  C   -0.046731
    87  C   -0.015058
    88  C   -0.092096
    89  C    0.047004
    90  C    0.111245
    91  C    0.062774
    92  C   -0.076945
    93  H    0.033649
    94  N   -0.423475
    95  C    0.162877
    96  C   -0.175523
    97  C   -0.007371
    98  C    0.151188
    99  C    0.100957
   100  C    0.016074
   101  O   -0.251990
   102  C    0.061793
   103  N   -0.350061
   104  C    0.036292
   105  C   -0.018656
   106  C   -0.035167
   107  C    0.089401
   108  C    0.070958
   109  C    0.034809
   110  C   -0.007339
   111  N   -0.324559
   112  C    0.079478
   113  C   -0.162588
   114  C    0.003635
   115  C    0.096449
   116  C    0.130981
   117  C    0.043577
   118  O   -0.187522
   119  C    0.000062
   120  C    0.210672
   121  O   -0.251901
   122  O   -0.304845
   123  C    0.152358
   124  H   -0.021557
   125  H   -0.015051
   126  H   -0.041070
   127  H    0.001058
   128  H   -0.007517
   129  H    0.036791
   130  H    0.014533
   131  H    0.012523
   132  H    0.013055
   133  H    0.037323
   134  H    0.020434
   135  H    0.018346
   136  H    0.007347
   137  H    0.021122
   138  H    0.038924
   139  H    0.034993
   140  H    0.036573
   141  H    0.033314
   142  H    0.013798
   143  H    0.011256
   144  H    0.024039
   145  H    0.016038
   146  H    0.004110
   147  H    0.005545
   148  H    0.003276
   149  H    0.010803
   150  H    0.017475
   151  H    0.030439
   152  H    0.045575
   153  H    0.007581
   154  H    0.048927
   155  H    0.040389
   156  H    0.043588
   157  H    0.048765
   158  H    0.053026
 Sum of Mulliken charges =  -0.00000

 Dipole moment (field-independent basis, Debye):
    X=             -6.0194    Y=              0.6087    Z=             -6.0393  Tot=              8.5485
 Quadrupole moment (field-independent basis, Debye-Ang):
   XX=           -536.7896   YY=           -528.6694   ZZ=           -460.4239
   XY=            -18.0542   XZ=             -2.9439   YZ=            -53.8546

 Normal termination of Gaussian 16 at Wed Sep  8 19:08:00 2021.
