 Gaussian 16, Revision A.03,
 Gaussian 16:  ES64L-G16RevA.03 25-Dec-2016

 -----------------------------------
 #p cam-b3lyp/Def2SVP td=(nstates=5)
 -----------------------------------

 --------------------------------
 TDDFT excited states in gaussian
 --------------------------------
 Symbolic Z-matrix:
 Charge =  0 Multiplicity = 1

                         Standard orientation:
 ---------------------------------------------------------------------
 Center     Atomic      Atomic             Coordinates (Angstroms)
 Number     Number       Type             X           Y           Z
 ---------------------------------------------------------------------
      1         12           0      -15.839178   -0.710636    0.106998
      2          6           0      -16.024325    2.851839    0.401462
      3          6           0      -16.722732   -0.336892   -3.167557
      4          6           0      -16.125617   -3.864322   -0.062826
      5          6           0      -16.090380   -0.862993    3.579655
      6          7           0      -16.287833    1.081605   -1.112521
      7          6           0      -16.264787    2.392925   -0.895543
      8          6           0      -16.445581    3.237022   -2.192535
      9          6           0      -17.206216    2.160506   -3.089500
     10          6           0      -16.681594    0.890891   -2.442374
     11          6           0      -18.723041    2.200418   -2.934097
     12          6           0      -15.075823    3.648626   -2.829778
     13          6           0      -15.155657    4.737926   -3.903279
     14          1           0      -14.075791    5.708671   -3.997581
     15          7           0      -15.869414   -1.911746   -1.461208
     16          6           0      -16.241142   -1.587163   -2.722854
     17          6           0      -16.089690   -2.821651   -3.522719
     18          6           0      -15.781510   -3.936660   -2.584704
     19          6           0      -15.941105   -3.278723   -1.313081
     20          6           0      -16.188907   -2.851215   -5.017052
     21          6           0      -15.413452   -5.370642   -2.800021
     22          8           0      -15.415050   -6.223650   -1.847681
     23          6           0      -15.133018   -5.775391   -4.189473
     24          7           0      -16.294763   -2.173528    1.524751
     25          6           0      -16.296358   -3.471321    1.201153
     26          6           0      -16.368150   -4.338595    2.422881
     27          6           0      -16.169740   -3.362004    3.670541
     28          6           0      -16.095901   -2.016390    2.907559
     29          6           0      -17.666767   -5.137190    2.601346
     30          6           0      -15.031926   -3.710797    4.662581
     31          6           0      -13.690382   -3.537493    3.986324
     32          7           0      -15.847420    0.717814    1.741167
     33          6           0      -15.985143    0.434742    3.107760
     34          6           0      -16.041205    1.728219    3.813338
     35          6           0      -15.948261    2.680240    2.799996
     36          6           0      -15.867360    2.023341    1.538952
     37          6           0      -16.221392    1.906675    5.213381
     38          6           0      -15.923274    4.099884    2.487196
     39          8           0      -15.867075    5.133967    3.154283
     40          6           0      -16.094232    4.269207    0.913052
     41          6           0      -15.044150    5.238835    0.443521
     42          8           0      -13.832906    4.941962    0.489553
     43          8           0      -15.635255    6.256895   -0.200444
     44          6           0      -14.646893    7.240498   -0.717958
     45          1           0      -17.220591   -0.359743   -4.138925
     46          1           0      -16.118594   -4.956283   -0.065667
     47          1           0      -16.083153   -0.832652    4.670746
     48          1           0      -17.064565    4.126449   -2.073364
     49          1           0      -16.897213    2.209307   -4.133463
     50          1           0      -19.023900    2.876658   -2.134032
     51          1           0      -19.018587    1.177652   -2.699377
     52          1           0      -19.203434    2.440881   -3.882874
     53          1           0      -14.696672    2.822623   -3.431462
     54          1           0      -14.367688    3.953705   -2.058546
     55          1           0      -16.122322    5.242154   -3.888344
     56          1           0      -15.115784    4.257535   -4.880947
     57          1           0      -16.586612   -1.916601   -5.410589
     58          1           0      -16.942983   -3.595780   -5.271417
     59          1           0      -15.240489   -3.113392   -5.486198
     60          1           0      -16.010431   -5.578284   -4.805788
     61          1           0      -14.800781   -6.811720   -4.139560
     62          1           0      -14.333316   -5.148658   -4.585240
     63          1           0      -15.572623   -5.082612    2.421586
     64          1           0      -17.061382   -3.311001    4.295879
     65          1           0      -17.511220   -6.213086    2.684758
     66          1           0      -18.325233   -4.900861    1.765964
     67          1           0      -18.277233   -4.833109    3.451218
     68          1           0      -15.103635   -4.753409    4.970420
     69          1           0      -15.043468   -3.097408    5.563620
     70          1           0      -13.559537   -4.482017    3.459460
     71          1           0      -12.905570   -3.393058    4.729574
     72          1           0      -13.722000   -2.747405    3.235825
     73          1           0      -15.518389    2.683111    5.514882
     74          1           0      -16.043971    0.978921    5.756886
     75          1           0      -17.266064    2.215757    5.244747
     76          1           0      -17.102974    4.645571    0.745983
     77          1           0      -14.921339    8.214655   -0.313073
     78          1           0      -14.636306    7.127950   -1.802220
     79          1           0      -13.627345    7.141869   -0.343613
     80         12           0       15.917318   -0.855151    0.001230
     81          6           0       16.200762    2.710789    0.288988
     82          6           0       14.610931   -0.350562   -3.108979
     83          6           0       15.237867   -3.952566   -0.107394
     84          6           0       16.156021   -1.015154    3.474427
     85          7           0       15.508792    0.988250   -1.150833
     86          6           0       15.714761    2.283270   -0.964196
     87          6           0       15.457024    3.162665   -2.217113
     88          6           0       14.441370    2.188101   -2.990123
     89          6           0       14.898965    0.850312   -2.412545
     90          6           0       12.987902    2.403635   -2.602392
     91          6           0       16.762236    3.411019   -3.051830
     92          6           0       16.648732    4.509267   -4.111406
     93          1           0       17.816486    5.345565   -4.374905
     94          7           0       15.515898   -2.028323   -1.548328
     95          6           0       15.010468   -1.654573   -2.742533
     96          6           0       14.881681   -2.890753   -3.529571
     97          6           0       15.197500   -4.045073   -2.644965
     98          6           0       15.311578   -3.373494   -1.365884
     99          6           0       14.569512   -2.891741   -4.997893
    100          6           0       15.356309   -5.512538   -2.904799
    101          8           0       15.396000   -6.365222   -1.948666
    102          6           0       15.370125   -5.931064   -4.314101
    103          7           0       15.511713   -2.262269    1.476976
    104          6           0       15.301240   -3.552573    1.162766
    105          6           0       15.304659   -4.422200    2.397324
    106          6           0       15.803984   -3.477312    3.587038
    107          6           0       15.922684   -2.143269    2.817860
    108          6           0       13.961884   -5.047861    2.774036
    109          6           0       17.027091   -3.967799    4.409283
    110          6           0       18.266772   -3.961227    3.544102
    111          7           0       16.322107    0.542346    1.598470
    112          6           0       16.349169    0.269901    2.983800
    113          6           0       16.552239    1.558548    3.677052
    114          6           0       16.606643    2.501813    2.639854
    115          6           0       16.428439    1.849862    1.389776
    116          6           0       16.612800    1.744149    5.087011
    117          6           0       16.763679    3.902184    2.318939
    118          8           0       17.032663    4.915938    2.962138
    119          6           0       16.381484    4.116441    0.791062
    120          6           0       17.457365    4.954287    0.156221
    121          8           0       18.614908    4.514687    0.040242
    122          8           0       16.896553    6.042515   -0.402020
    123          6           0       17.922454    6.899355   -1.054066
    124          1           0       13.983557   -0.296394   -3.999110
    125          1           0       15.115224   -5.038050   -0.094297
    126          1           0       16.339311   -0.993388    4.550813
    127          1           0       14.978432    4.113238   -2.014273
    128          1           0       14.606956    2.216439   -4.063967
    129          1           0       12.888672    3.097984   -1.781311
    130          1           0       12.610781    1.429024   -2.321392
    131          1           0       12.406339    2.711387   -3.476119
    132          1           0       16.943764    2.543415   -3.699185
    133          1           0       17.594025    3.616231   -2.406348
    134          1           0       15.756029    5.130038   -3.967655
    135          1           0       16.493325    4.037642   -5.084770
    136          1           0       14.225839   -1.906615   -5.336728
    137          1           0       13.702262   -3.545628   -5.139979
    138          1           0       15.397237   -3.265764   -5.604241
    139          1           0       14.444254   -5.620207   -4.792225
    140          1           0       15.581824   -7.001961   -4.298857
    141          1           0       16.181930   -5.403940   -4.827651
    142          1           0       15.999007   -5.246235    2.287982
    143          1           0       15.022905   -3.332932    4.347900
    144          1           0       13.998230   -6.151575    2.841503
    145          1           0       13.223852   -4.735423    2.047240
    146          1           0       13.531835   -4.690655    3.708194
    147          1           0       16.877857   -5.001762    4.729900
    148          1           0       17.212992   -3.377886    5.300600
    149          1           0       18.198878   -4.912791    3.008386
    150          1           0       19.163150   -3.917797    4.159456
    151          1           0       18.221934   -3.159113    2.798268
    152          1           0       17.432244    2.424651    5.276550
    153          1           0       16.751898    0.798552    5.606892
    154          1           0       15.623334    2.171580    5.270143
    155          1           0       15.408785    4.609011    0.762648
    156          1           0       17.825553    7.899645   -0.620778
    157          1           0       17.745374    6.802227   -2.141706
    158          1           0       18.963477    6.679610   -0.848094
 ---------------------------------------------------------------------

 SCF Done:  E(RCAM-B3LYP) =  -4069.81176625     A.U. after   19 cycles

 Excitation energies and oscillator strengths:

 Excited State   1:      Singlet-A      1.6753 eV  740.07 nm  f=0.2190  <S**2>=0.000
     310 -> 316        0.16881
     311 -> 314       -0.15898
     312 -> 313        0.66738
     310 <- 316        0.10177
 This state for optimization and/or second-order correction.
 Total Energy, E(TD-HF/TD-DFT) =  -4069.75019969
 Copying the excited state density for this state as the 1-particle RhoCI density.

 Excited State   2:      Singlet-A      1.6801 eV  737.96 nm  f=0.5586  <S**2>=0.000
     309 -> 315        0.17083
     311 -> 314        0.66701
     312 -> 313        0.15892
     309 <- 315        0.10228

 Excited State   3:      Singlet-A      2.1861 eV  567.16 nm  f=0.0951  <S**2>=0.000
     310 -> 313        0.64211
     312 -> 316       -0.27293

 Excited State   4:      Singlet-A      2.1925 eV  565.48 nm  f=0.1050  <S**2>=0.000
     309 -> 314        0.64032
     311 -> 315       -0.27814

 Excited State   5:      Singlet-A      3.0658 eV  404.42 nm  f=0.0000  <S**2>=0.000
     312 -> 314        0.70711

 The electronic state is 1-A.
 Alpha  occ. eigenvalues --  -46.87802 -46.87661 -19.26349 -19.26290 -19.19160
 Alpha  occ. eigenvalues --  -19.19026 -19.18821 -19.18715 -19.18174 -19.18050
 Alpha  occ. eigenvalues --  -14.42497 -14.42456 -14.41455 -14.41359 -14.39408
 Alpha  occ. eigenvalues --  -14.39352 -14.38600 -14.38592 -10.39090 -10.39085
 Alpha  occ. eigenvalues --  -10.35455 -10.35393 -10.34394 -10.34228 -10.31755
 Alpha  occ. eigenvalues --  -10.31685 -10.31410 -10.31308 -10.31023 -10.30915
 Alpha  occ. eigenvalues --  -10.30575 -10.30513 -10.30398 -10.30361 -10.30212
 Alpha  occ. eigenvalues --  -10.30141 -10.29926 -10.29894 -10.29636 -10.29437
 Alpha  occ. eigenvalues --  -10.29401 -10.29260 -10.28755 -10.28719 -10.28655
 Alpha  occ. eigenvalues --  -10.28547 -10.28405 -10.28370 -10.28139 -10.28123
 Alpha  occ. eigenvalues --  -10.28001 -10.27798 -10.27733 -10.27669 -10.27590
 Alpha  occ. eigenvalues --  -10.27518 -10.27505 -10.27488 -10.27483 -10.27469
 Alpha  occ. eigenvalues --  -10.27465 -10.27454 -10.27409 -10.27376 -10.27163
 Alpha  occ. eigenvalues --  -10.27049 -10.26712 -10.26693 -10.26417 -10.26417
 Alpha  occ. eigenvalues --  -10.26240 -10.26188 -10.26138 -10.26024 -10.26023
 Alpha  occ. eigenvalues --  -10.25934 -10.25850 -10.25847 -10.25439 -10.25396
 Alpha  occ. eigenvalues --  -10.24873 -10.24838 -10.24793 -10.24732 -10.24691
 Alpha  occ. eigenvalues --  -10.24690  -3.16545  -3.16410  -1.91427  -1.91293
 Alpha  occ. eigenvalues --   -1.91013  -1.90881  -1.90855  -1.90718  -1.16642
 Alpha  occ. eigenvalues --   -1.16639  -1.08657  -1.08632  -1.07222  -1.06967
 Alpha  occ. eigenvalues --   -1.06945  -1.06648  -1.04587  -1.04495  -1.03766
 Alpha  occ. eigenvalues --   -1.03663  -1.03239  -1.03039  -1.02417  -1.02111
 Alpha  occ. eigenvalues --   -0.91987  -0.91978  -0.89525  -0.89495  -0.89194
 Alpha  occ. eigenvalues --   -0.89151  -0.88292  -0.88220  -0.87875  -0.87794
 Alpha  occ. eigenvalues --   -0.87684  -0.87679  -0.87280  -0.87121  -0.84999
 Alpha  occ. eigenvalues --   -0.84988  -0.83941  -0.83876  -0.82973  -0.82933
 Alpha  occ. eigenvalues --   -0.82655  -0.82653  -0.81596  -0.81591  -0.80602
 Alpha  occ. eigenvalues --   -0.80443  -0.78803  -0.78636  -0.77224  -0.77144
 Alpha  occ. eigenvalues --   -0.76940  -0.76898  -0.75929  -0.75838  -0.74903
 Alpha  occ. eigenvalues --   -0.74802  -0.72780  -0.72699  -0.71678  -0.71580
 Alpha  occ. eigenvalues --   -0.69912  -0.69758  -0.68879  -0.68827  -0.67647
 Alpha  occ. eigenvalues --   -0.67602  -0.67226  -0.67200  -0.65292  -0.65271
 Alpha  occ. eigenvalues --   -0.64859  -0.64770  -0.64654  -0.64626  -0.64274
 Alpha  occ. eigenvalues --   -0.64204  -0.62303  -0.62278  -0.60448  -0.60340
 Alpha  occ. eigenvalues --   -0.59810  -0.59796  -0.58993  -0.58993  -0.58509
 Alpha  occ. eigenvalues --   -0.58425  -0.57590  -0.57554  -0.57314  -0.57237
 Alpha  occ. eigenvalues --   -0.56315  -0.56204  -0.55984  -0.55886  -0.55526
 Alpha  occ. eigenvalues --   -0.55452  -0.55344  -0.55247  -0.54529  -0.54488
 Alpha  occ. eigenvalues --   -0.53912  -0.53901  -0.53304  -0.53228  -0.53228
 Alpha  occ. eigenvalues --   -0.53142  -0.52920  -0.52902  -0.52762  -0.52669
 Alpha  occ. eigenvalues --   -0.52443  -0.52401  -0.51919  -0.51884  -0.51659
 Alpha  occ. eigenvalues --   -0.51623  -0.51201  -0.51201  -0.50579  -0.50476
 Alpha  occ. eigenvalues --   -0.50036  -0.49980  -0.49924  -0.49867  -0.49521
 Alpha  occ. eigenvalues --   -0.49488  -0.49220  -0.49202  -0.49104  -0.49102
 Alpha  occ. eigenvalues --   -0.48598  -0.48558  -0.48467  -0.48451  -0.48376
 Alpha  occ. eigenvalues --   -0.48339  -0.47701  -0.47595  -0.47302  -0.47118
 Alpha  occ. eigenvalues --   -0.46802  -0.46709  -0.46561  -0.46554  -0.46364
 Alpha  occ. eigenvalues --   -0.46271  -0.46168  -0.46085  -0.45827  -0.45822
 Alpha  occ. eigenvalues --   -0.45208  -0.45206  -0.44583  -0.44514  -0.44513
 Alpha  occ. eigenvalues --   -0.44476  -0.44150  -0.44127  -0.44094  -0.44078
 Alpha  occ. eigenvalues --   -0.44025  -0.43939  -0.43553  -0.43500  -0.43391
 Alpha  occ. eigenvalues --   -0.43385  -0.43032  -0.42930  -0.42901  -0.42704
 Alpha  occ. eigenvalues --   -0.42660  -0.42554  -0.42015  -0.41964  -0.41709
 Alpha  occ. eigenvalues --   -0.41669  -0.41540  -0.41459  -0.41146  -0.40989
 Alpha  occ. eigenvalues --   -0.40875  -0.40830  -0.40723  -0.40699  -0.40576
 Alpha  occ. eigenvalues --   -0.40493  -0.40241  -0.40227  -0.39446  -0.39426
 Alpha  occ. eigenvalues --   -0.38474  -0.38350  -0.37755  -0.37654  -0.37325
 Alpha  occ. eigenvalues --   -0.37270  -0.37266  -0.37199  -0.36771  -0.36719
 Alpha  occ. eigenvalues --   -0.36217  -0.36198  -0.34291  -0.34253  -0.33862
 Alpha  occ. eigenvalues --   -0.33776  -0.33192  -0.33176  -0.31351  -0.31274
 Alpha  occ. eigenvalues --   -0.31041  -0.30973  -0.30034  -0.29955  -0.29455
 Alpha  occ. eigenvalues --   -0.29328  -0.29327  -0.29211  -0.24086  -0.24036
 Alpha  occ. eigenvalues --   -0.21133  -0.21117
 Alpha virt. eigenvalues --   -0.08792  -0.08780  -0.01755  -0.01684  -0.00064
 Alpha virt. eigenvalues --   -0.00029   0.02195   0.02207   0.03117   0.03227
 Alpha virt. eigenvalues --    0.04712   0.04730   0.05092   0.05166   0.06171

 Mulliken charges:
               1
     1  Mg   0.838777
     2  C   -0.002970
     3  C   -0.094129
     4  C   -0.045876
     5  C   -0.063954
     6  N   -0.256789
     7  C   -0.052468
     8  C   -0.014014
     9  C   -0.087005
    10  C    0.046323
    11  C    0.104811
    12  C    0.053473
    13  C   -0.071787
    14  H    0.036099
    15  N   -0.433148
    16  C    0.168415
    17  C   -0.177168
    18  C   -0.004009
    19  C    0.148718
    20  C    0.110180
    21  C    0.012277
    22  O   -0.249619
    23  C    0.062482
    24  N   -0.341166
    25  C    0.041252
    26  C   -0.028182
    27  C   -0.023972
    28  C    0.074849
    29  C    0.076163
    30  C    0.035124
    31  C   -0.004505
    32  N   -0.310470
    33  C    0.080413
    34  C   -0.169692
    35  C    0.008357
    36  C    0.082967
    37  C    0.127309
    38  C    0.046130
    39  O   -0.188419
    40  C   -0.005326
    41  C    0.212874
    42  O   -0.257118
    43  O   -0.304792
    44  C    0.157699
    45  H   -0.017609
    46  H   -0.016832
    47  H   -0.041472
    48  H    0.000947
    49  H   -0.004049
    50  H    0.025484
    51  H    0.016453
    52  H    0.016656
    53  H    0.011186
    54  H    0.044118
    55  H    0.017885
    56  H    0.017932
    57  H    0.005866
    58  H    0.026827
    59  H    0.039521
    60  H    0.037348
    61  H    0.035646
    62  H    0.031476
    63  H    0.016555
    64  H    0.009474
    65  H    0.023220
    66  H    0.012546
    67  H    0.004767
    68  H    0.006378
    69  H    0.004746
    70  H    0.008777
    71  H    0.018157
    72  H    0.028965
    73  H    0.047585
    74  H    0.009124
    75  H    0.046022
    76  H    0.035159
    77  H    0.042962
    78  H    0.046384
    79  H    0.053680
    80  Mg   0.837887
    81  C   -0.016843
    82  C   -0.087783
    83  C   -0.045513
    84  C   -0.064865
    85  N   -0.254577
    86  C   -0.049813
    87  C   -0.015091
    88  C   -0.090522
    89  C    0.045772
    90  C    0.114374
    91  C    0.062522
    92  C   -0.077894
    93  H    0.034890
    94  N   -0.423491
    95  C    0.162919
    96  C   -0.174619
    97  C   -0.007811
    98  C    0.152115
    99  C    0.099360
   100  C    0.015575
   101  O   -0.253179
   102  C    0.061199
   103  N   -0.350068
   104  C    0.037530
   105  C   -0.019841
   106  C   -0.034818
   107  C    0.088917
   108  C    0.073640
   109  C    0.034733
   110  C   -0.007682
   111  N   -0.324115
   112  C    0.078443
   113  C   -0.163095
   114  C    0.002246
   115  C    0.096191
   116  C    0.131479
   117  C    0.042410
   118  O   -0.187850
   119  C    0.000915
   120  C    0.211265
   121  O   -0.251033
   122  O   -0.305618
   123  C    0.152027
   124  H   -0.019657
   125  H   -0.015561
   126  H   -0.040433
   127  H   -0.000617
   128  H   -0.004338
   129  H    0.022503
   130  H    0.014449
   131  H    0.016297
   132  H    0.013907
   133  H    0.037674
   134  H    0.020810
   135  H    0.019580
   136  H    0.008759
   137  H    0.026152
   138  H    0.039780
   139  H    0.038255
   140  H    0.036391
   141  H    0.033885
   142  H    0.014394
   143  H    0.012461
   144  H    0.025145
   145  H    0.011667
   146  H    0.005719
   147  H    0.006276
   148  H    0.003666
   149  H    0.010930
   150  H    0.017931
   151  H    0.030092
   152  H    0.046010
   153  H    0.008520
   154  H    0.047003
   155  H    0.035073
   156  H    0.043935
   157  H    0.049487
   158  H    0.053570
 Sum of Mulliken charges =  -0.00000

 Dipole moment (field-independent basis, Debye):
    X=             -4.6929    Y=             -1.9813    Z=             -7.4622  Tot=              9.0351
 Quadrupole moment (field-independent basis, Debye-Ang):
   XX=           -538.2582   YY=           -548.1789   ZZ=           -449.6112
   XY=             -4.9097   XZ=              8.8052   YZ=            -50.1807

 Normal termination of Gaussian 16 at Sun Sep 12 09:50:53 2021.
