 Gaussian 16, Revision A.03,
 Gaussian 16:  ES64L-G16RevA.03 25-Dec-2016

 -----------------------------------
 #p cam-b3lyp/Def2SVP td=(nstates=5)
 -----------------------------------

 --------------------------------
 TDDFT excited states in gaussian
 --------------------------------
 Symbolic Z-matrix:
 Charge =  0 Multiplicity = 1

                         Standard orientation:
 ---------------------------------------------------------------------
 Center     Atomic      Atomic             Coordinates (Angstroms)
 Number     Number       Type             X           Y           Z
 ---------------------------------------------------------------------
      1         12           0       -3.547924    1.278460    0.049180
      2          6           0       -4.275092   -1.681744   -1.827155
      3          6           0       -4.692155   -0.369325    2.809361
      4          6           0       -3.341925    4.016719    1.635410
      5          6           0       -3.543737    3.014917   -2.972469
      6          7           0       -4.353624   -0.764422    0.328688
      7          6           0       -4.524325   -1.820850   -0.459976
      8          6           0       -4.921079   -3.112815    0.315129
      9          6           0       -5.558792   -2.441764    1.613209
     10          6           0       -4.798504   -1.127296    1.605533
     11          6           0       -7.049318   -2.147868    1.477352
     12          6           0       -3.678508   -3.993992    0.677446
     13          6           0       -3.999975   -5.417839    1.140775
     14          1           0       -3.095961   -6.495944    0.769568
     15          7           0       -3.490297    1.632487    1.991908
     16          6           0       -3.990590    0.844601    2.973859
     17          6           0       -3.698332    1.542008    4.244642
     18          6           0       -3.156703    2.888535    3.910581
     19          6           0       -3.334786    2.910041    2.481175
     20          6           0       -3.889319    0.913618    5.590896
     21          6           0       -2.581152    3.986473    4.748081
     22          8           0       -2.385265    5.162586    4.286604
     23          6           0       -2.331827    3.669364    6.165939
     24          7           0       -3.672248    3.276023   -0.544051
     25          6           0       -3.489541    4.269030    0.333183
     26          6           0       -3.342898    5.590655   -0.360893
     27          6           0       -3.220294    5.260801   -1.918429
     28          6           0       -3.410596    3.725420   -1.850183
     29          6           0       -4.484170    6.592966   -0.139802
     30          6           0       -1.979079    5.817955   -2.659634
     31          6           0       -0.729130    5.133047   -2.154038
     32          7           0       -3.675133    0.761272   -2.054954
     33          6           0       -3.676452    1.646918   -3.142292
     34          6           0       -3.890249    0.839132   -4.357133
     35          6           0       -4.015816   -0.466816   -3.887477
     36          6           0       -3.914736   -0.471038   -2.466893
     37          6           0       -4.004287    1.342322   -5.683116
     38          6           0       -4.236471   -1.856550   -4.253277
     39          8           0       -4.301120   -2.473326   -5.317654
     40          6           0       -4.534858   -2.682951   -2.925176
     41          6           0       -3.684598   -3.923545   -2.961132
     42          8           0       -2.441247   -3.849419   -2.883987
     43          8           0       -4.470347   -5.004638   -2.841219
     44          6           0       -3.686251   -6.268499   -2.839920
     45          1           0       -5.242682   -0.700590    3.692042
     46          1           0       -3.162299    4.971837    2.133328
     47          1           0       -3.469926    3.477201   -3.958521
     48          1           0       -5.663925   -3.733534   -0.186182
     49          1           0       -5.330493   -3.006296    2.517038
     50          1           0       -7.400373   -2.330110    0.461739
     51          1           0       -7.163176   -1.095035    1.736334
     52          1           0       -7.622848   -2.702882    2.220185
     53          1           0       -3.213608   -3.604674    1.583184
     54          1           0       -2.978615   -4.036045   -0.157842
     55          1           0       -5.031199   -5.688195    0.911876
     56          1           0       -3.948694   -5.442546    2.229333
     57          1           0       -4.454907   -0.014838    5.522893
     58          1           0       -4.531020    1.581104    6.165692
     59          1           0       -2.944158    0.770790    6.114923
     60          1           0       -3.267855    3.369530    6.637637
     61          1           0       -1.837149    4.543842    6.587166
     62          1           0       -1.669118    2.805374    6.223269
     63          1           0       -2.441420    6.106653   -0.033005
     64          1           0       -4.065847    5.649282   -2.486581
     65          1           0       -4.155109    7.547370    0.271944
     66          1           0       -5.225055    6.122932    0.506300
     67          1           0       -5.078064    6.812344   -1.026696
     68          1           0       -1.864478    6.882803   -2.459856
     69          1           0       -2.028529    5.686769   -3.740650
     70          1           0       -0.485195    5.702326   -1.257796
     71          1           0        0.069907    5.206205   -2.892549
     72          1           0       -0.934554    4.108454   -1.843402
     73          1           0       -3.414861    0.676783   -6.313675
     74          1           0       -3.646983    2.369754   -5.748841
     75          1           0       -5.080390    1.263803   -5.837040
     76          1           0       -5.599218   -2.915747   -2.933311
     77          1           0       -4.084347   -6.894029   -3.638961
     78          1           0       -3.729048   -6.658667   -1.822894
     79          1           0       -2.641638   -6.187998   -3.142644
     80         12           0        4.277484   -0.064739   -0.026995
     81          6           0        1.494002   -2.042155    1.078055
     82          6           0        6.299574   -2.625207    0.967856
     83          6           0        6.768870    1.823341   -0.570677
     84          6           0        2.185930    2.718275    0.134047
     85          7           0        3.835662   -2.028609    0.889660
     86          6           0        2.736784   -2.696678    1.206668
     87          6           0        2.977651   -4.175441    1.612602
     88          6           0        4.507254   -4.049022    2.085040
     89          6           0        4.925964   -2.848404    1.238939
     90          6           0        4.655564   -3.675538    3.550592
     91          6           0        2.830607   -5.159819    0.399581
     92          6           0        2.746862   -6.639944    0.779006
     93          1           0        1.889709   -7.514886   -0.016120
     94          7           0        6.193154   -0.510541   -0.291618
     95          6           0        6.844599   -1.602352    0.160989
     96          6           0        8.239471   -1.450652   -0.281125
     97          6           0        8.394600   -0.101432   -0.889603
     98          6           0        7.101791    0.476647   -0.582066
     99          6           0        9.249759   -2.556385   -0.180598
    100          6           0        9.524664    0.563583   -1.615477
    101          8           0        9.526231    1.823932   -1.848635
    102          6           0       10.671977   -0.287630   -1.962755
    103          7           0        4.515935    2.000268    0.008381
    104          6           0        5.690884    2.566220   -0.318897
    105          6           0        5.548100    4.059806   -0.489739
    106          6           0        3.975815    4.348899   -0.445793
    107          6           0        3.463998    2.920978   -0.155145
    108          6           0        6.252916    4.919747    0.559135
    109          6           0        3.368364    5.121252   -1.648767
    110          6           0        3.433794    4.268771   -2.895521
    111          7           0        2.174009    0.281822    0.324185
    112          6           0        1.511370    1.527854    0.373306
    113          6           0        0.109408    1.260657    0.754801
    114          6           0        0.058940   -0.131101    0.924944
    115          6           0        1.343924   -0.689533    0.687355
    116          6           0       -0.902192    2.243437    0.946975
    117          6           0       -0.786676   -1.253650    1.261883
    118          8           0       -1.989436   -1.402353    1.473985
    119          6           0        0.134591   -2.526922    1.499470
    120          6           0       -0.463558   -3.680817    0.742316
    121          8           0       -0.510996   -3.664760   -0.500294
    122          8           0       -0.680779   -4.700617    1.592725
    123          6           0       -1.263359   -5.872606    0.886422
    124          1           0        7.035113   -3.268254    1.451973
    125          1           0        7.568231    2.509123   -0.860876
    126          1           0        1.447343    3.522380    0.110067
    127          1           0        2.363122   -4.527297    2.432548
    128          1           0        5.080507   -4.929713    1.807309
    129          1           0        3.704439   -3.440354    4.004662
    130          1           0        5.307686   -2.812169    3.569599
    131          1           0        5.186174   -4.465923    4.089194
    132          1           0        3.767207   -5.165262   -0.172699
    133          1           0        1.986651   -4.893893   -0.206749
    134          1           0        2.552553   -6.780759    1.849228
    135          1           0        3.728273   -7.094302    0.622737
    136          1           0        8.891217   -3.371874    0.459575
    137          1           0       10.115138   -2.151120    0.354894
    138          1           0        9.576608   -2.918423   -1.157712
    139          1           0       11.086329   -0.722655   -1.056373
    140          1           0       11.336528    0.344799   -2.554588
    141          1           0       10.315454   -1.121583   -2.577600
    142          1           0        5.937283    4.378283   -1.449019
    143          1           0        3.698885    4.964788    0.422436
    144          1           0        6.973338    5.637200    0.122880
    145          1           0        6.748396    4.263154    1.261922
    146          1           0        5.591566    5.493699    1.205969
    147          1           0        3.954014    6.020179   -1.856354
    148          1           0        2.342650    5.435401   -1.486839
    149          1           0        4.453289    4.436118   -3.255664
    150          1           0        2.697956    4.600351   -3.625348
    151          1           0        3.341514    3.204448   -2.649842
    152          1           0       -1.797539    1.865764    0.471361
    153          1           0       -0.606275    3.204908    0.532527
    154          1           0       -0.949078    2.264106    2.039052
    155          1           0        0.164656   -2.713688    2.573620
    156          1           0       -2.193904   -6.126934    1.403238
    157          1           0       -0.467287   -6.640654    0.875169
    158          1           0       -1.618334   -5.721811   -0.126355
 ---------------------------------------------------------------------

 SCF Done:  E(RCAM-B3LYP) =  -4069.74237179     A.U. after   18 cycles

 Excitation energies and oscillator strengths:

 Excited State   1:      Singlet-A      1.6349 eV  758.36 nm  f=0.4079  <S**2>=0.000
     309 -> 315        0.13825
     311 -> 313        0.56675
     312 -> 313       -0.15888
     312 -> 314        0.35641
 This state for optimization and/or second-order correction.
 Total Energy, E(TD-HF/TD-DFT) =  -4069.68229015
 Copying the excited state density for this state as the 1-particle RhoCI density.

 Excited State   2:      Singlet-A      1.6695 eV  742.63 nm  f=0.3946  <S**2>=0.000
     310 -> 316        0.14023
     311 -> 313       -0.30844
     312 -> 313        0.20231
     312 -> 314        0.57733

 Excited State   3:      Singlet-A      1.7642 eV  702.77 nm  f=0.0255  <S**2>=0.000
     311 -> 313        0.23554
     312 -> 313        0.65217

 Excited State   4:      Singlet-A      2.1168 eV  585.70 nm  f=0.0239  <S**2>=0.000
     309 -> 313       -0.24277
     310 -> 313        0.10234
     310 -> 314        0.60043
     312 -> 316       -0.21245

 Excited State   5:      Singlet-A      2.1738 eV  570.35 nm  f=0.1380  <S**2>=0.000
     309 -> 313        0.59707
     310 -> 314        0.23868
     311 -> 315       -0.24342

 The electronic state is 1-A.
 Alpha  occ. eigenvalues --  -46.87940 -46.86327 -19.26613 -19.25329 -19.19301
 Alpha  occ. eigenvalues --  -19.19176 -19.18994 -19.18090 -19.17780 -19.17123
 Alpha  occ. eigenvalues --  -14.42761 -14.41624 -14.40689 -14.40149 -14.39661
 Alpha  occ. eigenvalues --  -14.38945 -14.37647 -14.37314 -10.39097 -10.37813
 Alpha  occ. eigenvalues --  -10.35663 -10.35139 -10.34742 -10.33322 -10.31674
 Alpha  occ. eigenvalues --  -10.31268 -10.31168 -10.30770 -10.30765 -10.30597
 Alpha  occ. eigenvalues --  -10.30301 -10.30215 -10.29819 -10.29795 -10.29751
 Alpha  occ. eigenvalues --  -10.29465 -10.29239 -10.29228 -10.29181 -10.28921
 Alpha  occ. eigenvalues --  -10.28875 -10.28775 -10.28721 -10.28587 -10.28417
 Alpha  occ. eigenvalues --  -10.28390 -10.28107 -10.27968 -10.27833 -10.27778
 Alpha  occ. eigenvalues --  -10.27736 -10.27588 -10.27580 -10.27515 -10.27497
 Alpha  occ. eigenvalues --  -10.27106 -10.26987 -10.26977 -10.26891 -10.26841
 Alpha  occ. eigenvalues --  -10.26774 -10.26754 -10.26655 -10.26640 -10.26623
 Alpha  occ. eigenvalues --  -10.26569 -10.26302 -10.26227 -10.26142 -10.26129
 Alpha  occ. eigenvalues --  -10.26091 -10.26022 -10.25946 -10.25875 -10.25511
 Alpha  occ. eigenvalues --  -10.25451 -10.25169 -10.25112 -10.24999 -10.24973
 Alpha  occ. eigenvalues --  -10.24900 -10.24862 -10.24835 -10.24751 -10.23711
 Alpha  occ. eigenvalues --  -10.23661  -3.16686  -3.15171  -1.91567  -1.91156
 Alpha  occ. eigenvalues --   -1.90996  -1.90106  -1.89615  -1.89463  -1.16835
 Alpha  occ. eigenvalues --   -1.15633  -1.09947  -1.07582  -1.07237  -1.07035
 Alpha  occ. eigenvalues --   -1.06524  -1.05426  -1.04791  -1.03967  -1.03345
 Alpha  occ. eigenvalues --   -1.03127  -1.02485  -1.02414  -1.01989  -1.01153
 Alpha  occ. eigenvalues --   -0.92381  -0.90764  -0.89725  -0.89391  -0.88875
 Alpha  occ. eigenvalues --   -0.88531  -0.88387  -0.87950  -0.87922  -0.87457
 Alpha  occ. eigenvalues --   -0.87428  -0.86819  -0.86474  -0.86297  -0.85252
 Alpha  occ. eigenvalues --   -0.84335  -0.83966  -0.83347  -0.83161  -0.82918
 Alpha  occ. eigenvalues --   -0.82285  -0.82168  -0.81646  -0.80946  -0.80494
 Alpha  occ. eigenvalues --   -0.79551  -0.79084  -0.77782  -0.77523  -0.77453
 Alpha  occ. eigenvalues --   -0.76518  -0.76349  -0.75702  -0.75123  -0.74808
 Alpha  occ. eigenvalues --   -0.74089  -0.73156  -0.71949  -0.71677  -0.70599
 Alpha  occ. eigenvalues --   -0.69887  -0.69399  -0.69169  -0.68087  -0.67859
 Alpha  occ. eigenvalues --   -0.67429  -0.66622  -0.66429  -0.65593  -0.65199
 Alpha  occ. eigenvalues --   -0.64987  -0.64437  -0.64210  -0.63765  -0.63713
 Alpha  occ. eigenvalues --   -0.63233  -0.62724  -0.61319  -0.60660  -0.60195
 Alpha  occ. eigenvalues --   -0.59804  -0.59408  -0.58972  -0.58606  -0.58178
 Alpha  occ. eigenvalues --   -0.58030  -0.57554  -0.57429  -0.57001  -0.56681
 Alpha  occ. eigenvalues --   -0.56484  -0.56358  -0.55977  -0.55686  -0.55311
 Alpha  occ. eigenvalues --   -0.55120  -0.54961  -0.54658  -0.54610  -0.54161
 Alpha  occ. eigenvalues --   -0.54005  -0.53766  -0.53545  -0.53364  -0.53149
 Alpha  occ. eigenvalues --   -0.53024  -0.52868  -0.52567  -0.52351  -0.52263
 Alpha  occ. eigenvalues --   -0.52060  -0.51958  -0.51892  -0.51737  -0.51599
 Alpha  occ. eigenvalues --   -0.50942  -0.50756  -0.50698  -0.50444  -0.50210
 Alpha  occ. eigenvalues --   -0.50165  -0.50034  -0.49809  -0.49712  -0.49573
 Alpha  occ. eigenvalues --   -0.49364  -0.49254  -0.49097  -0.48787  -0.48579
 Alpha  occ. eigenvalues --   -0.48277  -0.48137  -0.48009  -0.47964  -0.47764
 Alpha  occ. eigenvalues --   -0.47677  -0.47470  -0.47352  -0.47246  -0.46936
 Alpha  occ. eigenvalues --   -0.46825  -0.46770  -0.46661  -0.46416  -0.46247
 Alpha  occ. eigenvalues --   -0.45901  -0.45573  -0.45517  -0.45435  -0.45228
 Alpha  occ. eigenvalues --   -0.45041  -0.44780  -0.44664  -0.44524  -0.44332
 Alpha  occ. eigenvalues --   -0.44285  -0.44150  -0.43794  -0.43685  -0.43629
 Alpha  occ. eigenvalues --   -0.43454  -0.43341  -0.43217  -0.43159  -0.43030
 Alpha  occ. eigenvalues --   -0.42759  -0.42579  -0.42512  -0.42357  -0.42183
 Alpha  occ. eigenvalues --   -0.42105  -0.42025  -0.41729  -0.41688  -0.41638
 Alpha  occ. eigenvalues --   -0.41313  -0.41075  -0.40943  -0.40887  -0.40705
 Alpha  occ. eigenvalues --   -0.40506  -0.40373  -0.40302  -0.40003  -0.39881
 Alpha  occ. eigenvalues --   -0.39653  -0.39548  -0.39349  -0.39035  -0.38570
 Alpha  occ. eigenvalues --   -0.38465  -0.37854  -0.37666  -0.37440  -0.37416
 Alpha  occ. eigenvalues --   -0.36943  -0.36483  -0.36239  -0.35961  -0.35652
 Alpha  occ. eigenvalues --   -0.35180  -0.34520  -0.34126  -0.33627  -0.33255
 Alpha  occ. eigenvalues --   -0.32922  -0.32447  -0.31951  -0.31534  -0.31230
 Alpha  occ. eigenvalues --   -0.31004  -0.30595  -0.29886  -0.29660  -0.29598
 Alpha  occ. eigenvalues --   -0.28966  -0.28281  -0.28177  -0.24322  -0.22637
 Alpha  occ. eigenvalues --   -0.21447  -0.19879
 Alpha virt. eigenvalues --   -0.09178  -0.07587  -0.01960  -0.00696  -0.00404
 Alpha virt. eigenvalues --    0.01063   0.01570   0.03120   0.03224   0.04487
 Alpha virt. eigenvalues --    0.04717   0.05213   0.06019   0.06302   0.06406

 Mulliken charges:
               1
     1  Mg   0.635371
     2  C    0.009934
     3  C   -0.089172
     4  C   -0.035894
     5  C   -0.067977
     6  N   -0.234378
     7  C   -0.050722
     8  C    0.023512
     9  C   -0.093123
    10  C    0.083861
    11  C    0.107902
    12  C   -0.014201
    13  C   -0.087762
    14  H    0.037092
    15  N   -0.418786
    16  C    0.186876
    17  C   -0.182906
    18  C   -0.008877
    19  C    0.116399
    20  C    0.113022
    21  C    0.005094
    22  O   -0.253976
    23  C    0.065082
    24  N   -0.319506
    25  C    0.032822
    26  C   -0.025359
    27  C   -0.024384
    28  C    0.077550
    29  C    0.078285
    30  C    0.044122
    31  C   -0.031162
    32  N   -0.302656
    33  C    0.083841
    34  C   -0.173808
    35  C    0.007489
    36  C    0.083866
    37  C    0.127861
    38  C    0.047050
    39  O   -0.192474
    40  C   -0.011174
    41  C    0.205512
    42  O   -0.238601
    43  O   -0.307357
    44  C    0.156334
    45  H   -0.026970
    46  H   -0.024807
    47  H   -0.047814
    48  H   -0.007396
    49  H   -0.008175
    50  H    0.022934
    51  H    0.016061
    52  H    0.011394
    53  H    0.031111
    54  H    0.071066
    55  H    0.004183
    56  H    0.016861
    57  H    0.005713
    58  H    0.023207
    59  H    0.034719
    60  H    0.037359
    61  H    0.032033
    62  H    0.028448
    63  H    0.008798
    64  H    0.008328
    65  H    0.019910
    66  H    0.014074
    67  H    0.003197
    68  H    0.003748
    69  H    0.003687
    70  H    0.013530
    71  H    0.021601
    72  H    0.037819
    73  H    0.045206
    74  H    0.006064
    75  H    0.043695
    76  H    0.031747
    77  H    0.040650
    78  H    0.041943
    79  H    0.056623
    80  Mg   0.843752
    81  C   -0.021119
    82  C   -0.087912
    83  C   -0.044977
    84  C   -0.065199
    85  N   -0.255359
    86  C   -0.051992
    87  C   -0.015672
    88  C   -0.090739
    89  C    0.047895
    90  C    0.114427
    91  C    0.062185
    92  C   -0.077193
    93  H    0.036243
    94  N   -0.423755
    95  C    0.165158
    96  C   -0.173597
    97  C   -0.006455
    98  C    0.153408
    99  C    0.099054
   100  C    0.016639
   101  O   -0.251586
   102  C    0.060714
   103  N   -0.350058
   104  C    0.039297
   105  C   -0.020807
   106  C   -0.034688
   107  C    0.086411
   108  C    0.073186
   109  C    0.034095
   110  C   -0.008879
   111  N   -0.324000
   112  C    0.080111
   113  C   -0.175061
   114  C    0.007468
   115  C    0.103046
   116  C    0.251159
   117  C    0.063619
   118  O   -0.188625
   119  C    0.033910
   120  C    0.200650
   121  O   -0.223874
   122  O   -0.316787
   123  C    0.169802
   124  H   -0.018859
   125  H   -0.014261
   126  H   -0.036853
   127  H   -0.001720
   128  H   -0.003323
   129  H    0.021611
   130  H    0.014485
   131  H    0.016911
   132  H    0.014301
   133  H    0.042975
   134  H    0.019131
   135  H    0.019223
   136  H    0.009615
   137  H    0.027186
   138  H    0.041480
   139  H    0.038486
   140  H    0.037552
   141  H    0.034790
   142  H    0.015296
   143  H    0.014338
   144  H    0.025696
   145  H    0.011201
   146  H    0.007517
   147  H    0.005198
   148  H    0.003628
   149  H    0.009680
   150  H    0.019371
   151  H    0.031061
   152  H    0.025289
   153  H    0.016750
   154  H    0.075495
   155  H    0.030489
   156  H    0.042107
   157  H    0.038899
   158  H    0.046196
 Sum of Mulliken charges =  -0.00000

 Dipole moment (field-independent basis, Debye):
    X=              3.8723    Y=             -3.4447    Z=              5.8491  Tot=              7.8149
 Quadrupole moment (field-independent basis, Debye-Ang):
   XX=           -493.5510   YY=           -474.6140   ZZ=           -520.3657
   XY=            -24.4171   XZ=             -8.1218   YZ=            -38.8213

 Normal termination of Gaussian 16 at Thu Sep  9 00:30:41 2021.
