 Gaussian 16, Revision A.03,
 Gaussian 16:  ES64L-G16RevA.03 25-Dec-2016

 -----------------------------------
 #p cam-b3lyp/Def2SVP td=(nstates=5)
 -----------------------------------

 --------------------------------
 TDDFT excited states in gaussian
 --------------------------------
 Symbolic Z-matrix:
 Charge =  0 Multiplicity = 1

                         Standard orientation:
 ---------------------------------------------------------------------
 Center     Atomic      Atomic             Coordinates (Angstroms)
 Number     Number       Type             X           Y           Z
 ---------------------------------------------------------------------
      1         12           0       -3.641630    0.649169   -1.316283
      2          6           0       -4.512799   -2.495609    0.154653
      3          6           0       -5.483138    2.139248    1.139645
      4          6           0       -3.264575    3.398077   -2.851846
      5          6           0       -2.850718   -1.098286   -4.226011
      6          7           0       -4.802135   -0.179955    0.376771
      7          6           0       -5.006721   -1.399302    0.865143
      8          6           0       -5.731206   -1.398858    2.244453
      9          6           0       -6.460449    0.015487    2.145301
     10          6           0       -5.507355    0.713850    1.191453
     11          6           0       -7.839782   -0.054272    1.497941
     12          6           0       -4.725856   -1.442207    3.444088
     13          6           0       -5.346197   -1.772031    4.804877
     14          1           0       -4.579032   -2.570089    5.749286
     15          7           0       -3.853865    2.509025   -0.684823
     16          6           0       -4.632246    2.932513    0.339905
     17          6           0       -4.448230    4.397945    0.412895
     18          6           0       -3.647925    4.815602   -0.771659
     19          6           0       -3.578159    3.578633   -1.506792
     20          6           0       -4.961063    5.236329    1.543322
     21          6           0       -3.051084    6.124647   -1.181920
     22          8           0       -2.593215    6.324375   -2.358797
     23          6           0       -3.097397    7.209121   -0.184518
     24          7           0       -3.340365    1.122905   -3.326867
     25          6           0       -3.149191    2.388039   -3.716575
     26          6           0       -2.676729    2.455870   -5.138587
     27          6           0       -2.349843    0.953029   -5.567967
     28          6           0       -2.794453    0.234743   -4.270024
     29          6           0       -3.661733    3.070680   -6.142473
     30          6           0       -0.928511    0.671825   -6.116744
     31          6           0        0.091724    0.850598   -5.014809
     32          7           0       -3.496389   -1.436110   -1.900716
     33          6           0       -3.172389   -1.935234   -3.170587
     34          6           0       -3.307308   -3.402078   -3.105533
     35          6           0       -3.719139   -3.654743   -1.798475
     36          6           0       -3.859522   -2.421893   -1.099430
     37          6           0       -3.114748   -4.305483   -4.187760
     38          6           0       -4.097011   -4.677783   -0.836987
     39          8           0       -4.081223   -5.909529   -0.830112
     40          6           0       -4.743250   -3.960825    0.429572
     41          6           0       -4.110787   -4.553505    1.659218
     42          8           0       -2.902535   -4.367578    1.910067
     43          8           0       -5.069736   -5.040278    2.461719
     44          6           0       -4.511621   -5.616715    3.714070
     45          1           0       -6.219956    2.701000    1.717117
     46          1           0       -3.018968    4.316172   -3.389634
     47          1           0       -2.539031   -1.715718   -5.070453
     48          1           0       -6.469959   -2.190624    2.370054
     49          1           0       -6.481071    0.530902    3.105324
     50          1           0       -8.040486   -1.046394    1.093796
     51          1           0       -7.823776    0.686475    0.698234
     52          1           0       -8.611697    0.273604    2.194663
     53          1           0       -4.362564   -0.434414    3.645172
     54          1           0       -3.912038   -2.139026    3.240448
     55          1           0       -6.354433   -2.172856    4.696663
     56          1           0       -5.482694   -0.839754    5.352991
     57          1           0       -5.649751    4.677675    2.175904
     58          1           0       -5.573582    6.023270    1.103716
     59          1           0       -4.152739    5.680844    2.124141
     60          1           0       -4.135193    7.405665    0.085479
     61          1           0       -2.545574    8.041602   -0.619624
     62          1           0       -2.602108    6.872249    0.726611
     63          1           0       -1.771569    3.056037   -5.221715
     64          1           0       -3.014209    0.599304   -6.356745
     65          1           0       -3.256474    3.923807   -6.687123
     66          1           0       -4.566469    3.346167   -5.601315
     67          1           0       -4.055274    2.373802   -6.882002
     68          1           0       -0.678460    1.382490   -6.903748
     69          1           0       -0.816686   -0.331452   -6.528061
     70          1           0        0.270792    1.925182   -5.020851
     71          1           0        1.004366    0.301399   -5.248639
     72          1           0       -0.325664    0.595283   -4.040598
     73          1           0       -2.543411   -5.143128   -3.787892
     74          1           0       -2.590224   -3.826946   -5.014489
     75          1           0       -4.148192   -4.548910   -4.433914
     76          1           0       -5.814629   -4.154261    0.386533
     77          1           0       -4.865989   -6.645478    3.779676
     78          1           0       -4.786682   -4.934531    4.518664
     79          1           0       -3.431974   -5.769211    3.735206
     80         12           0        3.769994    0.434028    1.537286
     81          6           0        4.681554   -1.201068   -1.524515
     82          6           0        2.368657   -2.516054    2.521097
     83          6           0        2.561661    1.958361    4.044027
     84          6           0        4.205126    3.470469   -0.116914
     85          7           0        3.610259   -1.533583    0.539660
     86          6           0        4.047972   -2.054074   -0.596932
     87          6           0        3.863809   -3.590966   -0.713582
     88          6           0        2.646972   -3.766445    0.319560
     89          6           0        2.904289   -2.551710    1.208870
     90          6           0        1.280987   -3.604723   -0.326397
     91          6           0        5.134629   -4.382580   -0.244108
     92          6           0        5.142614   -5.866369   -0.618333
     93          1           0        6.417082   -6.490418   -0.962972
     94          7           0        3.071677   -0.271995    3.255556
     95          6           0        2.560850   -1.500225    3.483118
     96          6           0        2.169718   -1.516867    4.901187
     97          6           0        2.339432   -0.144313    5.450732
     98          6           0        2.651196    0.587857    4.239602
     99          6           0        1.766306   -2.771839    5.619334
    100          6           0        2.225754    0.418723    6.835025
    101          8           0        2.180709    1.682085    7.046484
    102          6           0        2.074726   -0.553227    7.927721
    103          7           0        3.225927    2.415301    1.854897
    104          6           0        2.776236    2.825027    3.053986
    105          6           0        2.710907    4.331976    3.126249
    106          6           0        3.442519    4.857576    1.804850
    107          6           0        3.738410    3.503341    1.123753
    108          6           0        1.308132    4.934023    3.204663
    109          6           0        4.614203    5.858450    1.999930
    110          6           0        5.776968    5.166744    2.674391
    111          7           0        4.513393    1.061738   -0.391804
    112          6           0        4.584039    2.380919   -0.890662
    113          6           0        5.051063    2.292988   -2.289447
    114          6           0        5.198864    0.916350   -2.516416
    115          6           0        4.829360    0.196035   -1.348467
    116          6           0        5.235133    3.391587   -3.175621
    117          6           0        5.573294   -0.091796   -3.481888
    118          8           0        6.054475   -0.074108   -4.614085
    119          6           0        5.134215   -1.513803   -2.923765
    120          6           0        6.294255   -2.456661   -3.090609
    121          8           0        7.348662   -2.280128   -2.455243
    122          8           0        5.893801   -3.526527   -3.801511
    123          6           0        7.006861   -4.495841   -3.984117
    124          1           0        1.702903   -3.321725    2.831797
    125          1           0        2.255061    2.540097    4.916411
    126          1           0        4.459699    4.377658   -0.669073
    127          1           0        3.570433   -3.940018   -1.696370
    128          1           0        2.744094   -4.685383    0.891817
    129          1           0        1.356937   -3.280425   -1.353634
    130          1           0        0.760942   -2.863928    0.266746
    131          1           0        0.704999   -4.529182   -0.226661
    132          1           0        5.121130   -4.464898    0.850325
    133          1           0        6.029888   -3.914217   -0.604366
    134          1           0        4.381534   -6.105765   -1.370924
    135          1           0        4.844731   -6.446918    0.258169
    136          1           0        1.575918   -3.593315    4.917667
    137          1           0        0.791984   -2.577224    6.080506
    138          1           0        2.475629   -3.057502    6.399031
    139          1           0        1.186852   -1.156585    7.754211
    140          1           0        2.099384    0.034704    8.847288
    141          1           0        2.929668   -1.238261    7.907279
    142          1           0        3.244277    4.701034    3.993657
    143          1           0        2.749646    5.397516    1.142871
    144          1           0        1.158223    5.577259    4.092278
    145          1           0        0.588824    4.125924    3.194817
    146          1           0        1.008295    5.520779    2.338047
    147          1           0        4.310527    6.672511    2.662674
    148          1           0        4.957038    6.307911    1.073939
    149          1           0        5.511187    5.214476    3.734666
    150          1           0        6.705878    5.697621    2.476050
    151          1           0        5.822052    4.108186    2.393191
    152          1           0        6.170176    3.221347   -3.692547
    153          1           0        5.243146    4.338114   -2.639161
    154          1           0        4.348254    3.284492   -3.805893
    155          1           0        4.261130   -1.834058   -3.493629
    156          1           0        7.112315   -4.662147   -5.060638
    157          1           0        6.744664   -5.372411   -3.362314
    158          1           0        8.005733   -4.167191   -3.722027
 ---------------------------------------------------------------------

 SCF Done:  E(RCAM-B3LYP) =  -4069.81361464     A.U. after   19 cycles

 Excitation energies and oscillator strengths:

 Excited State   1:      Singlet-A      1.6680 eV  743.29 nm  f=0.3319  <S**2>=0.000
     310 -> 316        0.15661
     311 -> 313        0.25990
     312 -> 314        0.63466
 This state for optimization and/or second-order correction.
 Total Energy, E(TD-HF/TD-DFT) =  -4069.75231506
 Copying the excited state density for this state as the 1-particle RhoCI density.

 Excited State   2:      Singlet-A      1.6729 eV  741.12 nm  f=0.3143  <S**2>=0.000
     309 -> 315        0.16060
     311 -> 313        0.63430
     312 -> 314       -0.26023

 Excited State   3:      Singlet-A      2.1834 eV  567.86 nm  f=0.1014  <S**2>=0.000
     310 -> 314        0.63573
     312 -> 316       -0.26549

 Excited State   4:      Singlet-A      2.1922 eV  565.56 nm  f=0.0959  <S**2>=0.000
     309 -> 313        0.63373
     311 -> 315       -0.27386

 Excited State   5:      Singlet-A      2.2110 eV  560.77 nm  f=0.0000  <S**2>=0.000
     312 -> 313        0.70701

 The electronic state is 1-A.
 Alpha  occ. eigenvalues --  -46.87964 -46.87367 -19.26736 -19.26125 -19.19529
 Alpha  occ. eigenvalues --  -19.18990 -19.18930 -19.18541 -19.18452 -19.17821
 Alpha  occ. eigenvalues --  -14.42622 -14.42146 -14.41600 -14.41084 -14.39570
 Alpha  occ. eigenvalues --  -14.39060 -14.38778 -14.38317 -10.39549 -10.38858
 Alpha  occ. eigenvalues --  -10.35621 -10.35222 -10.34678 -10.33997 -10.32149
 Alpha  occ. eigenvalues --  -10.31599 -10.31545 -10.31095 -10.30900 -10.30763
 Alpha  occ. eigenvalues --  -10.30690 -10.30665 -10.30325 -10.30147 -10.30078
 Alpha  occ. eigenvalues --  -10.30044 -10.29870 -10.29822 -10.29668 -10.29415
 Alpha  occ. eigenvalues --  -10.29141 -10.29138 -10.28960 -10.28800 -10.28565
 Alpha  occ. eigenvalues --  -10.28301 -10.28253 -10.28232 -10.28106 -10.27991
 Alpha  occ. eigenvalues --  -10.27892 -10.27768 -10.27714 -10.27611 -10.27606
 Alpha  occ. eigenvalues --  -10.27546 -10.27519 -10.27489 -10.27462 -10.27343
 Alpha  occ. eigenvalues --  -10.27259 -10.27236 -10.27208 -10.27182 -10.27134
 Alpha  occ. eigenvalues --  -10.26949 -10.26808 -10.26583 -10.26400 -10.26284
 Alpha  occ. eigenvalues --  -10.26283 -10.26165 -10.26137 -10.26059 -10.25990
 Alpha  occ. eigenvalues --  -10.25649 -10.25617 -10.25496 -10.25416 -10.25051
 Alpha  occ. eigenvalues --  -10.24990 -10.24950 -10.24597 -10.24595 -10.24588
 Alpha  occ. eigenvalues --  -10.24439  -3.16706  -3.16118  -1.91587  -1.91174
 Alpha  occ. eigenvalues --   -1.91017  -1.91001  -1.90588  -1.90426  -1.17088
 Alpha  occ. eigenvalues --   -1.16417  -1.08931  -1.08437  -1.07389  -1.07126
 Alpha  occ. eigenvalues --   -1.06800  -1.06715  -1.04762  -1.04147  -1.03920
 Alpha  occ. eigenvalues --   -1.03409  -1.03363  -1.02767  -1.02584  -1.01827
 Alpha  occ. eigenvalues --   -0.92197  -0.91696  -0.89630  -0.89381  -0.89264
 Alpha  occ. eigenvalues --   -0.88618  -0.88383  -0.88074  -0.88027  -0.87846
 Alpha  occ. eigenvalues --   -0.87519  -0.87442  -0.87331  -0.86865  -0.85181
 Alpha  occ. eigenvalues --   -0.84581  -0.84037  -0.83711  -0.83109  -0.82852
 Alpha  occ. eigenvalues --   -0.82733  -0.82280  -0.81870  -0.81323  -0.80817
 Alpha  occ. eigenvalues --   -0.80161  -0.78972  -0.78351  -0.77379  -0.77147
 Alpha  occ. eigenvalues --   -0.76849  -0.76534  -0.76145  -0.75410  -0.75024
 Alpha  occ. eigenvalues --   -0.74599  -0.72948  -0.72396  -0.71848  -0.71247
 Alpha  occ. eigenvalues --   -0.69947  -0.69568  -0.69069  -0.68436  -0.67839
 Alpha  occ. eigenvalues --   -0.67427  -0.67337  -0.66858  -0.65498  -0.65077
 Alpha  occ. eigenvalues --   -0.64889  -0.64809  -0.64477  -0.64381  -0.64327
 Alpha  occ. eigenvalues --   -0.63969  -0.62597  -0.62027  -0.60596  -0.60102
 Alpha  occ. eigenvalues --   -0.59998  -0.59359  -0.59173  -0.58704  -0.58702
 Alpha  occ. eigenvalues --   -0.58151  -0.57899  -0.57476  -0.57302  -0.57013
 Alpha  occ. eigenvalues --   -0.56531  -0.56291  -0.55909  -0.55724  -0.55610
 Alpha  occ. eigenvalues --   -0.55526  -0.55181  -0.55044  -0.54737  -0.54283
 Alpha  occ. eigenvalues --   -0.54101  -0.53476  -0.53440  -0.53426  -0.53173
 Alpha  occ. eigenvalues --   -0.52970  -0.52938  -0.52851  -0.52593  -0.52468
 Alpha  occ. eigenvalues --   -0.52315  -0.52216  -0.52136  -0.51833  -0.51635
 Alpha  occ. eigenvalues --   -0.51395  -0.51288  -0.50915  -0.50718  -0.50231
 Alpha  occ. eigenvalues --   -0.50143  -0.50059  -0.49746  -0.49726  -0.49573
 Alpha  occ. eigenvalues --   -0.49442  -0.49307  -0.49140  -0.48887  -0.48849
 Alpha  occ. eigenvalues --   -0.48664  -0.48637  -0.48591  -0.48234  -0.48172
 Alpha  occ. eigenvalues --   -0.48072  -0.47873  -0.47472  -0.47270  -0.46957
 Alpha  occ. eigenvalues --   -0.46851  -0.46768  -0.46551  -0.46398  -0.46345
 Alpha  occ. eigenvalues --   -0.46123  -0.46082  -0.45994  -0.45867  -0.45532
 Alpha  occ. eigenvalues --   -0.45314  -0.45028  -0.44825  -0.44668  -0.44348
 Alpha  occ. eigenvalues --   -0.44260  -0.44248  -0.44213  -0.44127  -0.43855
 Alpha  occ. eigenvalues --   -0.43773  -0.43716  -0.43623  -0.43550  -0.43286
 Alpha  occ. eigenvalues --   -0.43220  -0.43069  -0.43036  -0.42742  -0.42692
 Alpha  occ. eigenvalues --   -0.42617  -0.42334  -0.42140  -0.41899  -0.41719
 Alpha  occ. eigenvalues --   -0.41706  -0.41388  -0.41318  -0.41093  -0.41039
 Alpha  occ. eigenvalues --   -0.40994  -0.40666  -0.40634  -0.40483  -0.40447
 Alpha  occ. eigenvalues --   -0.40361  -0.40124  -0.39832  -0.39462  -0.39240
 Alpha  occ. eigenvalues --   -0.38575  -0.38127  -0.37971  -0.37481  -0.37442
 Alpha  occ. eigenvalues --   -0.37284  -0.37084  -0.36998  -0.36814  -0.36546
 Alpha  occ. eigenvalues --   -0.36394  -0.35953  -0.34474  -0.34220  -0.33956
 Alpha  occ. eigenvalues --   -0.33621  -0.33378  -0.32878  -0.31517  -0.31220
 Alpha  occ. eigenvalues --   -0.31098  -0.30670  -0.30318  -0.29727  -0.29638
 Alpha  occ. eigenvalues --   -0.29526  -0.29067  -0.28944  -0.24259  -0.23732
 Alpha  occ. eigenvalues --   -0.21300  -0.20813
 Alpha virt. eigenvalues --   -0.08957  -0.08505  -0.01912  -0.01405  -0.00248
 Alpha virt. eigenvalues --    0.00254   0.01970   0.02349   0.02584   0.03622
 Alpha virt. eigenvalues --    0.04528   0.04666   0.05150   0.05408   0.05912

 Mulliken charges:
               1
     1  Mg   0.839195
     2  C   -0.004332
     3  C   -0.093460
     4  C   -0.045346
     5  C   -0.063801
     6  N   -0.256991
     7  C   -0.052424
     8  C   -0.014261
     9  C   -0.087265
    10  C    0.046769
    11  C    0.104668
    12  C    0.053346
    13  C   -0.071281
    14  H    0.033109
    15  N   -0.433344
    16  C    0.169171
    17  C   -0.176633
    18  C   -0.003854
    19  C    0.149383
    20  C    0.109991
    21  C    0.011948
    22  O   -0.249131
    23  C    0.062117
    24  N   -0.341288
    25  C    0.041942
    26  C   -0.028358
    27  C   -0.024061
    28  C    0.075249
    29  C    0.076048
    30  C    0.034827
    31  C   -0.005652
    32  N   -0.310120
    33  C    0.079780
    34  C   -0.171179
    35  C    0.007344
    36  C    0.082058
    37  C    0.127668
    38  C    0.043670
    39  O   -0.190117
    40  C   -0.004729
    41  C    0.213857
    42  O   -0.262262
    43  O   -0.303350
    44  C    0.158445
    45  H   -0.017099
    46  H   -0.016303
    47  H   -0.040928
    48  H    0.000670
    49  H   -0.003327
    50  H    0.025428
    51  H    0.016824
    52  H    0.017177
    53  H    0.013278
    54  H    0.041412
    55  H    0.018345
    56  H    0.019684
    57  H    0.006551
    58  H    0.027204
    59  H    0.040506
    60  H    0.038081
    61  H    0.035607
    62  H    0.031229
    63  H    0.017197
    64  H    0.009685
    65  H    0.023808
    66  H    0.012231
    67  H    0.005232
    68  H    0.007774
    69  H    0.005128
    70  H    0.008519
    71  H    0.022700
    72  H    0.027588
    73  H    0.045444
    74  H    0.010045
    75  H    0.046545
    76  H    0.035917
    77  H    0.043818
    78  H    0.047386
    79  H    0.049987
    80  Mg   0.836399
    81  C   -0.016788
    82  C   -0.086375
    83  C   -0.046881
    84  C   -0.064717
    85  N   -0.255115
    86  C   -0.049177
    87  C   -0.015287
    88  C   -0.089899
    89  C    0.043284
    90  C    0.112794
    91  C    0.062396
    92  C   -0.077327
    93  H    0.032549
    94  N   -0.423772
    95  C    0.161880
    96  C   -0.172552
    97  C   -0.009423
    98  C    0.152927
    99  C    0.099362
   100  C    0.014764
   101  O   -0.254927
   102  C    0.061589
   103  N   -0.350392
   104  C    0.037587
   105  C   -0.019489
   106  C   -0.035247
   107  C    0.088645
   108  C    0.074061
   109  C    0.035015
   110  C   -0.007500
   111  N   -0.323982
   112  C    0.077734
   113  C   -0.163507
   114  C    0.001786
   115  C    0.095980
   116  C    0.131607
   117  C    0.041055
   118  O   -0.189798
   119  C    0.001252
   120  C    0.211395
   121  O   -0.251180
   122  O   -0.305695
   123  C    0.152216
   124  H   -0.008843
   125  H   -0.017586
   126  H   -0.040771
   127  H   -0.001261
   128  H   -0.003506
   129  H    0.017593
   130  H    0.020756
   131  H    0.029132
   132  H    0.013452
   133  H    0.036199
   134  H    0.021772
   135  H    0.020400
   136  H    0.012601
   137  H    0.025334
   138  H    0.038284
   139  H    0.037573
   140  H    0.035005
   141  H    0.034186
   142  H    0.013763
   143  H    0.013131
   144  H    0.022922
   145  H    0.010819
   146  H    0.003775
   147  H    0.004858
   148  H    0.003971
   149  H    0.010226
   150  H    0.017492
   151  H    0.030797
   152  H    0.045043
   153  H    0.008453
   154  H    0.046335
   155  H    0.033805
   156  H    0.042897
   157  H    0.050298
   158  H    0.053162
 Sum of Mulliken charges =  -0.00000

 Dipole moment (field-independent basis, Debye):
    X=             -6.1211    Y=              0.4077    Z=              3.6846  Tot=              7.1562
 Quadrupole moment (field-independent basis, Debye-Ang):
   XX=           -518.8412   YY=           -499.1762   ZZ=           -502.0872
   XY=            -20.9930   XZ=             -4.0798   YZ=             -4.4057

 Normal termination of Gaussian 16 at Fri Sep  3 18:31:31 2021.
