 Gaussian 16, Revision A.03,
 Gaussian 16:  ES64L-G16RevA.03 25-Dec-2016

 -----------------------------------
 #p cam-b3lyp/Def2SVP td=(nstates=5)
 -----------------------------------

 --------------------------------
 TDDFT excited states in gaussian
 --------------------------------
 Symbolic Z-matrix:
 Charge =  0 Multiplicity = 1

                         Standard orientation:
 ---------------------------------------------------------------------
 Center     Atomic      Atomic             Coordinates (Angstroms)
 Number     Number       Type             X           Y           Z
 ---------------------------------------------------------------------
      1         12           0       -7.803332   -0.761647   -0.088974
      2          6           0       -8.085384    2.027451    2.136693
      3          6           0       -8.667836    1.359468   -2.618117
      4          6           0       -8.004604   -3.289076   -1.993760
      5          6           0       -8.080738   -2.828941    2.702980
      6          7           0       -8.288651    1.398114   -0.112290
      7          6           0       -8.302260    2.365767    0.799101
      8          6           0       -8.494020    3.786459    0.188989
      9          6           0       -9.217994    3.380236   -1.172202
     10          6           0       -8.665586    1.974699   -1.331059
     11          6           0      -10.736644    3.300719   -1.054385
     12          6           0       -7.130135    4.506868   -0.080382
     13          6           0       -7.229425    6.008152   -0.366117
     14          1           0       -6.174880    6.884850    0.120384
     15          7           0       -7.788025   -0.884438   -2.060658
     16          6           0       -8.157187    0.082130   -2.935158
     17          6           0       -7.966093   -0.493720   -4.283697
     18          6           0       -7.636680   -1.936874   -4.119717
     19          6           0       -7.824759   -2.102718   -2.701090
     20          6           0       -8.051432    0.313370   -5.542694
     21          6           0       -7.228884   -3.000551   -5.089471
     22          8           0       -7.216198   -4.239564   -4.774413
     23          6           0       -6.925694   -2.556809   -6.462137
     24          7           0       -8.232360   -2.774117    0.262506
     25          6           0       -8.196736   -3.670719   -0.729371
     26          6           0       -8.256191   -5.073000   -0.200210
     27          6           0       -8.094638   -4.954900    1.383995
     28          6           0       -8.049820   -3.411436    1.502224
     29          6           0       -9.534700   -5.857512   -0.525736
     30          6           0       -6.956692   -5.778093    2.038098
     31          6           0       -5.614355   -5.234173    1.602920
     32          7           0       -7.863702   -0.487632    2.063308
     33          6           0       -8.005810   -1.487001    3.036828
     34          6           0       -8.102291   -0.807981    4.342083
     35          6           0       -8.025758    0.548785    4.033582
     36          6           0       -7.916464    0.708244    2.622583
     37          6           0       -8.299369   -1.443712    5.599637
     38          6           0       -8.035668    1.901803    4.565655
     39          8           0       -8.012722    2.388940    5.696877
     40          6           0       -8.197294    2.917228    3.349671
     41          6           0       -7.169213    4.001739    3.523445
     42          8           0       -5.950975    3.750440    3.422891
     43          8           0       -7.781440    5.195610    3.543271
     44          6           0       -6.815007    6.317419    3.683647
     45          1           0       -9.156409    1.873667   -3.448079
     46          1           0       -7.968622   -4.193585   -2.604503
     47          1           0       -8.083852   -3.412093    3.625681
     48          1           0       -9.137374    4.447532    0.769938
     49          1           0       -8.901284    4.008200   -2.004715
     50          1           0      -11.062297    3.410612   -0.020076
     51          1           0      -11.007023    2.315976   -1.436050
     52          1           0      -11.214933    4.021143   -1.718468
     53          1           0       -6.723986    4.163400   -1.031767
     54          1           0       -6.437099    4.342097    0.745377
     55          1           0       -8.209205    6.401723   -0.094013
     56          1           0       -7.168296    6.155364   -1.444445
     57          1           0       -8.470310    1.301650   -5.357248
     58          1           0       -8.783261   -0.175606   -6.185373
     59          1           0       -7.092336    0.373657   -6.057313
     60          1           0       -7.802604   -2.064566   -6.883176
     61          1           0       -6.566560   -3.438998   -6.990925
     62          1           0       -6.139454   -1.802288   -6.423745
     63          1           0       -7.441246   -5.676109   -0.598395
     64          1           0       -8.992748   -5.276568    1.911823
     65          1           0       -9.351431   -6.794244   -1.052662
     66          1           0      -10.191874   -5.206805   -1.101925
     67          1           0      -10.160411   -6.089549    0.335694
     68          1           0       -7.003434   -6.816247    1.710995
     69          1           0       -6.992357   -5.771713    3.127565
     70          1           0       -5.453927   -5.721979    0.642118
     71          1           0       -4.840170   -5.515345    2.317617
     72          1           0       -5.660340   -4.160504    1.419600
     73          1           0       -7.619849   -0.955445    6.298077
     74          1           0       -8.102180   -2.513700    5.537640
     75          1           0       -9.352099   -1.222589    5.774908
     76          1           0       -9.214157    3.305461    3.398523
     77          1           0       -7.118697    6.895380    4.556554
     78          1           0       -6.791968    6.828844    2.721192
     79          1           0       -5.796513    6.044273    3.961856
     80         12           0        8.063330   -0.516069    0.185473
     81          6           0        6.974568    1.847973   -2.285352
     82          6           0        9.944428    1.988138    1.536416
     83          6           0        9.385424   -2.675501    2.097630
     84          6           0        7.033680   -3.044417   -1.980857
     85          7           0        8.339907    1.601757   -0.389491
     86          6           0        7.827098    2.404930   -1.309423
     87          6           0        8.188108    3.903726   -1.128154
     88          6           0        9.541872    3.724492   -0.283137
     89          6           0        9.250812    2.370319    0.360429
     90          6           0       10.780034    3.583725   -1.152892
     91          6           0        7.100461    4.685976   -0.311383
     92          6           0        7.232143    6.209802   -0.360031
     93          1           0        6.013232    7.013986   -0.363717
     94          7           0        9.064168   -0.286492    1.883769
     95          6           0        9.752169    0.804156    2.281777
     96          6           0       10.324184    0.462508    3.593354
     97          6           0       10.054808   -0.976193    3.862205
     98          6           0        9.496999   -1.382551    2.587918
     99          6           0       10.974065    1.478420    4.487238
    100          6           0       10.275985   -1.845773    5.062673
    101          8           0       10.187453   -3.122634    4.994705
    102          6           0       10.690722   -1.164888    6.297942
    103          7           0        8.388174   -2.560400   -0.008210
    104          6           0        8.935004   -3.271462    0.993430
    105          6           0        8.817301   -4.754941    0.736826
    106          6           0        7.858512   -4.896142   -0.535325
    107          6           0        7.650546   -3.401156   -0.862654
    108          6           0       10.130380   -5.489827    0.468206
    109          6           0        6.604821   -5.799042   -0.374953
    110          6           0        5.637510   -5.170262    0.601954
    111          7           0        7.000566   -0.617776   -1.692884
    112          6           0        6.698380   -1.777169   -2.440265
    113          6           0        6.067542   -1.331283   -3.699494
    114          6           0        6.067383    0.068675   -3.606755
    115          6           0        6.674816    0.467809   -2.385600
    116          6           0        5.631228   -2.178482   -4.756848
    117          6           0        5.701089    1.299914   -4.269007
    118          8           0        5.077757    1.584509   -5.290873
    119          6           0        6.386350    2.510536   -3.500099
    120          6           0        5.343666    3.572706   -3.283044
    121          8           0        4.367532    3.358294   -2.542919
    122          8           0        5.780388    4.732490   -3.807032
    123          6           0        4.785207    5.819399   -3.606932
    124          1           0       10.741959    2.635603    1.901939
    125          1           0        9.727022   -3.465857    2.770042
    126          1           0        6.595999   -3.774840   -2.664657
    127          1           0        8.392472    4.436356   -2.049193
    128          1           0        9.637868    4.495241    0.477184
    129          1           0       10.529930    3.508770   -2.200728
    130          1           0       11.274807    2.681976   -0.816574
    131          1           0       11.476815    4.402576   -0.952134
    132          1           0        7.267206    4.517093    0.760263
    133          1           0        6.113628    4.398564   -0.618299
    134          1           0        7.912525    6.539575   -1.154555
    135          1           0        7.713300    6.546123    0.561581
    136          1           0       11.173897    2.415290    3.952701
    137          1           0       11.967625    1.092767    4.740173
    138          1           0       10.414790    1.646611    5.410056
    139          1           0       11.617677   -0.625240    6.119078
    140          1           0       10.711975   -1.940388    7.066070
    141          1           0        9.934416   -0.414799    6.554809
    142          1           0        8.359345   -5.258046    1.579596
    143          1           0        8.384696   -5.335894   -1.395314
    144          1           0       10.312077   -6.328329    1.166759
    145          1           0       10.938979   -4.772637    0.516482
    146          1           0       10.237419   -5.891301   -0.538058
    147          1           0        6.886641   -6.766951    0.046803
    148          1           0        6.089637   -5.992823   -1.309847
    149          1           0        6.031335   -5.481513    1.574126
    150          1           0        4.630809   -5.551685    0.443443
    151          1           0        5.690866   -4.076187    0.559628
    152          1           0        4.665912   -1.807597   -5.074807
    153          1           0        5.573240   -3.216603   -4.436352
    154          1           0        6.434495   -2.016583   -5.480602
    155          1           0        7.211015    2.866731   -4.118667
    156          1           0        4.561952    6.234011   -4.594831
    157          1           0        5.235583    6.503681   -2.863518
    158          1           0        3.795564    5.536613   -3.267681
 ---------------------------------------------------------------------

 SCF Done:  E(RCAM-B3LYP) =  -4069.81176862     A.U. after   19 cycles

 Excitation energies and oscillator strengths:

 Excited State   1:      Singlet-A      1.6707 eV  742.11 nm  f=0.0797  <S**2>=0.000
     309 -> 315        0.14083
     311 -> 313        0.56062
     312 -> 314        0.39592
 This state for optimization and/or second-order correction.
 Total Energy, E(TD-HF/TD-DFT) =  -4069.75037138
 Copying the excited state density for this state as the 1-particle RhoCI density.

 Excited State   2:      Singlet-A      1.6848 eV  735.91 nm  f=0.6839  <S**2>=0.000
     309 -> 315       -0.10151
     310 -> 316        0.14442
     311 -> 313       -0.39544
     312 -> 314        0.55985

 Excited State   3:      Singlet-A      2.1856 eV  567.28 nm  f=0.0576  <S**2>=0.000
     309 -> 313        0.62691
     310 -> 314       -0.14192
     311 -> 315       -0.26599

 Excited State   4:      Singlet-A      2.1930 eV  565.37 nm  f=0.1354  <S**2>=0.000
     309 -> 313        0.14092
     310 -> 314        0.62492
     312 -> 316       -0.27164

 Excited State   5:      Singlet-A      2.7683 eV  447.87 nm  f=0.0000  <S**2>=0.000
     312 -> 313        0.70705

 The electronic state is 1-A.
 Alpha  occ. eigenvalues --  -46.87606 -46.87605 -19.26324 -19.26120 -19.19124
 Alpha  occ. eigenvalues --  -19.18844 -19.18656 -19.18619 -19.18017 -19.17998
 Alpha  occ. eigenvalues --  -14.42444 -14.42263 -14.41306 -14.41267 -14.39296
 Alpha  occ. eigenvalues --  -14.39211 -14.38546 -14.38400 -10.39054 -10.38905
 Alpha  occ. eigenvalues --  -10.35333 -10.35251 -10.34218 -10.34194 -10.31744
 Alpha  occ. eigenvalues --  -10.31528 -10.31260 -10.31223 -10.30970 -10.30719
 Alpha  occ. eigenvalues --  -10.30386 -10.30345 -10.30323 -10.30310 -10.30086
 Alpha  occ. eigenvalues --  -10.30024 -10.29844 -10.29745 -10.29445 -10.29382
 Alpha  occ. eigenvalues --  -10.29349 -10.29066 -10.28670 -10.28603 -10.28564
 Alpha  occ. eigenvalues --  -10.28353 -10.28350 -10.28177 -10.28094 -10.27952
 Alpha  occ. eigenvalues --  -10.27937 -10.27617 -10.27609 -10.27542 -10.27464
 Alpha  occ. eigenvalues --  -10.27433 -10.27413 -10.27407 -10.27394 -10.27338
 Alpha  occ. eigenvalues --  -10.27325 -10.27288 -10.27274 -10.27219 -10.27013
 Alpha  occ. eigenvalues --  -10.26985 -10.26634 -10.26501 -10.26350 -10.26193
 Alpha  occ. eigenvalues --  -10.26077 -10.26072 -10.26026 -10.25988 -10.25881
 Alpha  occ. eigenvalues --  -10.25839 -10.25814 -10.25685 -10.25355 -10.25289
 Alpha  occ. eigenvalues --  -10.24824 -10.24658 -10.24651 -10.24638 -10.24606
 Alpha  occ. eigenvalues --  -10.24519  -3.16354  -3.16348  -1.91236  -1.91230
 Alpha  occ. eigenvalues --   -1.90825  -1.90817  -1.90662  -1.90659  -1.16615
 Alpha  occ. eigenvalues --   -1.16467  -1.08625  -1.08457  -1.07020  -1.06910
 Alpha  occ. eigenvalues --   -1.06907  -1.06468  -1.04443  -1.04394  -1.03610
 Alpha  occ. eigenvalues --   -1.03577  -1.03048  -1.02986  -1.02226  -1.02059
 Alpha  occ. eigenvalues --   -0.91940  -0.91791  -0.89441  -0.89346  -0.89102
 Alpha  occ. eigenvalues --   -0.89005  -0.88167  -0.88116  -0.87748  -0.87694
 Alpha  occ. eigenvalues --   -0.87632  -0.87488  -0.87077  -0.87063  -0.84949
 Alpha  occ. eigenvalues --   -0.84797  -0.83823  -0.83769  -0.82874  -0.82772
 Alpha  occ. eigenvalues --   -0.82602  -0.82464  -0.81558  -0.81414  -0.80415
 Alpha  occ. eigenvalues --   -0.80397  -0.78607  -0.78583  -0.77094  -0.77039
 Alpha  occ. eigenvalues --   -0.76853  -0.76760  -0.75796  -0.75748  -0.74755
 Alpha  occ. eigenvalues --   -0.74731  -0.72649  -0.72595  -0.71534  -0.71497
 Alpha  occ. eigenvalues --   -0.69740  -0.69700  -0.68778  -0.68689  -0.67552
 Alpha  occ. eigenvalues --   -0.67458  -0.67145  -0.67026  -0.65223  -0.65103
 Alpha  occ. eigenvalues --   -0.64722  -0.64676  -0.64608  -0.64443  -0.64151
 Alpha  occ. eigenvalues --   -0.64095  -0.62240  -0.62128  -0.60285  -0.60253
 Alpha  occ. eigenvalues --   -0.59747  -0.59621  -0.58944  -0.58809  -0.58378
 Alpha  occ. eigenvalues --   -0.58325  -0.57515  -0.57410  -0.57186  -0.57131
 Alpha  occ. eigenvalues --   -0.56156  -0.56128  -0.55848  -0.55807  -0.55405
 Alpha  occ. eigenvalues --   -0.55334  -0.55201  -0.55172  -0.54443  -0.54355
 Alpha  occ. eigenvalues --   -0.53863  -0.53711  -0.53177  -0.53116  -0.53094
 Alpha  occ. eigenvalues --   -0.53034  -0.52855  -0.52736  -0.52612  -0.52561
 Alpha  occ. eigenvalues --   -0.52342  -0.52271  -0.51843  -0.51746  -0.51607
 Alpha  occ. eigenvalues --   -0.51427  -0.51156  -0.51021  -0.50416  -0.50368
 Alpha  occ. eigenvalues --   -0.49928  -0.49859  -0.49815  -0.49728  -0.49435
 Alpha  occ. eigenvalues --   -0.49328  -0.49156  -0.49062  -0.49033  -0.48920
 Alpha  occ. eigenvalues --   -0.48516  -0.48420  -0.48330  -0.48291  -0.48286
 Alpha  occ. eigenvalues --   -0.48257  -0.47546  -0.47513  -0.47116  -0.47069
 Alpha  occ. eigenvalues --   -0.46659  -0.46620  -0.46504  -0.46371  -0.46220
 Alpha  occ. eigenvalues --   -0.46179  -0.46040  -0.45991  -0.45783  -0.45654
 Alpha  occ. eigenvalues --   -0.45159  -0.45033  -0.44471  -0.44426  -0.44404
 Alpha  occ. eigenvalues --   -0.44319  -0.44082  -0.44025  -0.43965  -0.43911
 Alpha  occ. eigenvalues --   -0.43889  -0.43836  -0.43514  -0.43339  -0.43324
 Alpha  occ. eigenvalues --   -0.43206  -0.42893  -0.42858  -0.42851  -0.42529
 Alpha  occ. eigenvalues --   -0.42498  -0.42486  -0.41910  -0.41835  -0.41624
 Alpha  occ. eigenvalues --   -0.41527  -0.41407  -0.41351  -0.40964  -0.40943
 Alpha  occ. eigenvalues --   -0.40689  -0.40667  -0.40644  -0.40627  -0.40441
 Alpha  occ. eigenvalues --   -0.40401  -0.40172  -0.40039  -0.39366  -0.39273
 Alpha  occ. eigenvalues --   -0.38298  -0.38297  -0.37602  -0.37560  -0.37213
 Alpha  occ. eigenvalues --   -0.37148  -0.37145  -0.37076  -0.36734  -0.36543
 Alpha  occ. eigenvalues --   -0.36169  -0.36018  -0.34202  -0.34102  -0.33821
 Alpha  occ. eigenvalues --   -0.33591  -0.33124  -0.33002  -0.31215  -0.31150
 Alpha  occ. eigenvalues --   -0.30921  -0.30852  -0.29922  -0.29858  -0.29273
 Alpha  occ. eigenvalues --   -0.29259  -0.29162  -0.29138  -0.23984  -0.23895
 Alpha  occ. eigenvalues --   -0.21064  -0.20943
 Alpha virt. eigenvalues --   -0.08740  -0.08588  -0.01630  -0.01564   0.00025
 Alpha virt. eigenvalues --    0.00134   0.02252   0.02378   0.03311   0.03354
 Alpha virt. eigenvalues --    0.04781   0.04901   0.05201   0.05273   0.06231

 Mulliken charges:
               1
     1  Mg   0.839548
     2  C   -0.002728
     3  C   -0.093795
     4  C   -0.045865
     5  C   -0.064073
     6  N   -0.256760
     7  C   -0.052388
     8  C   -0.014161
     9  C   -0.087079
    10  C    0.046559
    11  C    0.104885
    12  C    0.053368
    13  C   -0.071707
    14  H    0.036046
    15  N   -0.433133
    16  C    0.168777
    17  C   -0.176832
    18  C   -0.003786
    19  C    0.148919
    20  C    0.110164
    21  C    0.012601
    22  O   -0.249906
    23  C    0.062236
    24  N   -0.341162
    25  C    0.041289
    26  C   -0.028124
    27  C   -0.023894
    28  C    0.074831
    29  C    0.076296
    30  C    0.035191
    31  C   -0.004474
    32  N   -0.310402
    33  C    0.080405
    34  C   -0.169870
    35  C    0.008194
    36  C    0.083121
    37  C    0.127338
    38  C    0.046058
    39  O   -0.188967
    40  C   -0.005352
    41  C    0.212689
    42  O   -0.256585
    43  O   -0.304949
    44  C    0.157808
    45  H   -0.017731
    46  H   -0.017030
    47  H   -0.041840
    48  H    0.000578
    49  H   -0.003889
    50  H    0.025252
    51  H    0.016325
    52  H    0.016421
    53  H    0.012009
    54  H    0.044493
    55  H    0.017358
    56  H    0.018082
    57  H    0.005811
    58  H    0.026501
    59  H    0.040558
    60  H    0.037040
    61  H    0.035563
    62  H    0.032627
    63  H    0.016505
    64  H    0.009123
    65  H    0.022958
    66  H    0.012471
    67  H    0.004469
    68  H    0.005956
    69  H    0.004493
    70  H    0.008703
    71  H    0.017969
    72  H    0.029556
    73  H    0.047371
    74  H    0.008921
    75  H    0.045643
    76  H    0.034806
    77  H    0.042429
    78  H    0.046396
    79  H    0.053769
    80  Mg   0.838401
    81  C   -0.016740
    82  C   -0.087756
    83  C   -0.045445
    84  C   -0.064855
    85  N   -0.254565
    86  C   -0.049800
    87  C   -0.015173
    88  C   -0.090534
    89  C    0.045910
    90  C    0.114414
    91  C    0.062473
    92  C   -0.077880
    93  H    0.034944
    94  N   -0.423496
    95  C    0.163122
    96  C   -0.174575
    97  C   -0.007693
    98  C    0.152239
    99  C    0.099389
   100  C    0.015738
   101  O   -0.253171
   102  C    0.061105
   103  N   -0.350107
   104  C    0.037553
   105  C   -0.019836
   106  C   -0.034786
   107  C    0.088961
   108  C    0.073706
   109  C    0.034710
   110  C   -0.007705
   111  N   -0.324087
   112  C    0.078517
   113  C   -0.163094
   114  C    0.002065
   115  C    0.096387
   116  C    0.131483
   117  C    0.042399
   118  O   -0.188512
   119  C    0.000918
   120  C    0.210996
   121  O   -0.250521
   122  O   -0.305746
   123  C    0.152155
   124  H   -0.019733
   125  H   -0.015567
   126  H   -0.040504
   127  H   -0.000902
   128  H   -0.004265
   129  H    0.022298
   130  H    0.014387
   131  H    0.016168
   132  H    0.014287
   133  H    0.037952
   134  H    0.020462
   135  H    0.019683
   136  H    0.008726
   137  H    0.026041
   138  H    0.040107
   139  H    0.038123
   140  H    0.036452
   141  H    0.034232
   142  H    0.014508
   143  H    0.012246
   144  H    0.025103
   145  H    0.011541
   146  H    0.005547
   147  H    0.006133
   148  H    0.003634
   149  H    0.010944
   150  H    0.018142
   151  H    0.030346
   152  H    0.045824
   153  H    0.008637
   154  H    0.046660
   155  H    0.034761
   156  H    0.043309
   157  H    0.049598
   158  H    0.053612
 Sum of Mulliken charges =  -0.00000

 Dipole moment (field-independent basis, Debye):
    X=              1.5921    Y=              3.0173    Z=             -1.9940  Tot=              3.9516
 Quadrupole moment (field-independent basis, Debye-Ang):
   XX=           -437.0178   YY=           -461.5549   ZZ=           -536.8940
   XY=             18.9405   XZ=             38.9490   YZ=            -11.1804

 Normal termination of Gaussian 16 at Sat Sep 11 23:27:56 2021.
