 Gaussian 16, Revision A.03,
 Gaussian 16:  ES64L-G16RevA.03 25-Dec-2016

 -----------------------------------
 #p cam-b3lyp/Def2SVP td=(nstates=5)
 -----------------------------------

 --------------------------------
 TDDFT excited states in gaussian
 --------------------------------
 Symbolic Z-matrix:
 Charge =  0 Multiplicity = 1

                         Standard orientation:
 ---------------------------------------------------------------------
 Center     Atomic      Atomic             Coordinates (Angstroms)
 Number     Number       Type             X           Y           Z
 ---------------------------------------------------------------------
      1         12           0        3.893469    1.589064    0.772943
      2          6           0        4.962871   -1.769854    0.151441
      3          6           0        5.070393    2.380001   -2.330657
      4          6           0        3.374622    4.638369    1.472341
      5          6           0        3.853411    0.791916    4.165377
      6          7           0        4.870056    0.371832   -0.797175
      7          6           0        5.168158   -0.916328   -0.934835
      8          6           0        5.649310   -1.289294   -2.368977
      9          6           0        6.170085    0.142120   -2.839981
     10          6           0        5.294074    1.019785   -1.963492
     11          6           0        7.631889    0.403517   -2.491695
     12          6           0        4.478588   -1.799576   -3.274930
     13          6           0        4.909480   -2.487731   -4.573440
     14          1           0        4.123292   -3.608642   -5.066204
     15          7           0        3.725159    3.163726   -0.408142
     16          6           0        4.255003    3.307438   -1.646649
     17          6           0        3.849149    4.651747   -2.110110
     18          6           0        3.201004    5.351033   -0.965994
     19          6           0        3.434142    4.410006    0.099602
     20          6           0        4.041931    5.130221   -3.516398
     21          6           0        2.494310    6.664434   -0.848978
     22          8           0        2.210880    7.185785    0.283468
     23          6           0        2.217700    7.376218   -2.109888
     24          7           0        3.859106    2.647400    2.571937
     25          6           0        3.551253    3.948689    2.601229
     26          6           0        3.312977    4.421949    4.004507
     27          6           0        3.284148    3.110171    4.914540
     28          6           0        3.610702    2.059606    3.824611
     29          6           0        4.348231    5.407953    4.563130
     30          6           0        2.028360    2.893016    5.795595
     31          6           0        0.826601    2.622140    4.918384
     32          7           0        4.152426   -0.207443    1.963131
     33          6           0        4.117050   -0.304651    3.361692
     34          6           0        4.452631   -1.698416    3.706474
     35          6           0        4.677596   -2.315109    2.477277
     36          6           0        4.519859   -1.360281    1.432425
     37          6           0        4.573943   -2.225253    5.022590
     38          6           0        5.038656   -3.552631    1.804945
     39          8           0        5.202325   -4.719278    2.165001
     40          6           0        5.357090   -3.220191    0.280508
     41          6           0        4.625620   -4.225726   -0.566345
     42          8           0        3.378589   -4.236553   -0.612851
     43          8           0        5.501145   -4.855081   -1.365037
     44          6           0        4.836121   -5.845905   -2.252824
     45          1           0        5.612616    2.792438   -3.183788
     46          1           0        3.088653    5.654118    1.753257
     47          1           0        3.777770    0.449160    5.198939
     48          1           0        6.465343   -2.011430   -2.401148
     49          1           0        5.957775    0.326155   -3.892967
     50          1           0        8.038947   -0.387371   -1.861837
     51          1           0        7.638711    1.355173   -1.959908
     52          1           0        8.223062    0.560401   -3.394291
     53          1           0        3.943827   -0.943868   -3.687063
     54          1           0        3.819856   -2.464918   -2.715717
     55          1           0        5.969478   -2.742742   -4.556623
     56          1           0        4.816611   -1.769196   -5.387862
     57          1           0        4.692092    4.462986   -4.080875
     58          1           0        4.596300    6.066864   -3.460865
     59          1           0        3.093278    5.294277   -4.027744
     60          1           0        3.157285    7.567935   -2.628515
     61          1           0        1.628709    8.251485   -1.838140
     62          1           0        1.634736    6.725374   -2.762195
     63          1           0        2.355676    4.934985    4.086936
     64          1           0        4.113085    3.085068    5.622288
     65          1           0        3.917128    6.350416    4.901684
     66          1           0        5.102096    5.576449    3.794633
     67          1           0        4.955090    5.019264    5.380479
     68          1           0        1.809166    3.791545    6.371395
     69          1           0        2.133312    2.066236    6.498213
     70          1           0        0.495681    3.622894    4.643041
     71          1           0        0.054796    2.097024    5.482106
     72          1           0        1.111818    2.108997    3.999787
     73          1           0        4.073670   -3.193529    5.010863
     74          1           0        4.127422   -1.557580    5.759091
     75          1           0        5.658071   -2.285666    5.116778
     76          1           0        6.437692   -3.294463    0.162588
     77          1           0        5.321623   -6.806784   -2.081846
     78          1           0        4.873074   -5.432610   -3.260904
     79          1           0        3.801643   -6.092063   -2.010749
     80         12           0       -4.787863   -0.401892   -0.499576
     81          6           0       -2.339261   -3.018284   -0.304811
     82          6           0       -2.610536    1.281713   -2.514342
     83          6           0       -6.723814    2.106141   -0.328438
     84          6           0       -6.238395   -1.735208    2.375140
     85          7           0       -2.766687   -0.907078   -1.242458
     86          6           0       -1.962737   -1.955876   -1.152719
     87          6           0       -0.721351   -1.896143   -2.082749
     88          6           0       -0.632264   -0.302886   -2.262869
     89          6           0       -2.099101    0.052036   -2.028112
     90          6           0        0.201520    0.378323   -1.190441
     91          6           0       -0.967240   -2.616475   -3.454858
     92          6           0        0.293726   -2.866182   -4.285143
     93          1           0        0.372904   -4.088586   -5.080084
     94          7           0       -4.921507    1.199160   -1.664614
     95          6           0       -3.946853    1.730917   -2.431788
     96          6           0       -4.541915    2.911295   -3.077368
     97          6           0       -5.896995    3.127720   -2.501490
     98          6           0       -5.891613    2.143594   -1.437754
     99          6           0       -3.863896    3.659829   -4.187958
    100          6           0       -7.008270    4.073752   -2.842518
    101          8           0       -8.006498    4.250605   -2.058240
    102          6           0       -6.847583    4.856182   -4.076807
    103          7           0       -6.139393    0.240118    0.943874
    104          6           0       -6.893293    1.335815    0.746361
    105          6           0       -7.980273    1.445227    1.788904
    106          6           0       -7.949886    0.060401    2.588217
    107          6           0       -6.738638   -0.603892    1.897592
    108          6           0       -7.841913    2.604880    2.775043
    109          6           0       -9.281859   -0.734520    2.669731
    110          6           0       -9.664371   -1.242688    1.298296
    111          7           0       -4.502385   -2.168848    0.710557
    112          6           0       -5.201476   -2.519561    1.886295
    113          6           0       -4.575387   -3.748857    2.414769
    114          6           0       -3.532562   -4.017287    1.515352
    115          6           0       -3.497584   -3.014071    0.509455
    116          6           0       -4.954100   -4.429189    3.606351
    117          6           0       -2.446708   -4.915296    1.194120
    118          8           0       -2.048327   -5.990856    1.639311
    119          6           0       -1.546174   -4.238550    0.072765
    120          6           0       -1.287005   -5.264238   -0.996490
    121          8           0       -2.220718   -5.703262   -1.690795
    122          8           0        0.040969   -5.395265   -1.168790
    123          6           0        0.348133   -6.393832   -2.227245
    124          1           0       -1.915607    1.990526   -2.965507
    125          1           0       -7.483764    2.889617   -0.282457
    126          1           0       -6.694275   -2.267416    3.212750
    127          1           0        0.194408   -2.272371   -1.642737
    128          1           0       -0.332236   -0.035712   -3.272802
    129          1           0        0.500025   -0.310424   -0.414132
    130          1           0       -0.425921    1.159774   -0.782149
    131          1           0        1.057771    0.885549   -1.644186
    132          1           0       -1.502543   -1.933473   -4.126953
    133          1           0       -1.494167   -3.539736   -3.311433
    134          1           0        1.208783   -2.731100   -3.695763
    135          1           0        0.357483   -2.097436   -5.059088
    136          1           0       -2.809834    3.371067   -4.282777
    137          1           0       -3.831148    4.713412   -3.890054
    138          1           0       -4.396408    3.577536   -5.137863
    139          1           0       -5.934884    5.444131   -4.015425
    140          1           0       -7.782152    5.407535   -4.197046
    141          1           0       -6.719814    4.163386   -4.916051
    142          1           0       -8.951639    1.561451    1.324099
    143          1           0       -7.670600    0.204396    3.642309
    144          1           0       -8.722385    3.274718    2.787408
    145          1           0       -6.946202    3.158751    2.527110
    146          1           0       -7.655100    2.313544    3.807237
    147          1           0      -10.094029   -0.080197    2.995933
    148          1           0       -9.244484   -1.570306    3.360423
    149          1           0      -10.163876   -0.380624    0.846163
    150          1           0      -10.339355   -2.092339    1.379122
    151          1           0       -8.774145   -1.460634    0.696929
    152          1           0       -4.956579   -5.485876    3.374164
    153          1           0       -5.927417   -4.097112    3.961537
    154          1           0       -4.145729   -4.118505    4.273641
    155          1           0       -0.624762   -3.903490    0.550592
    156          1           0        1.011043   -7.140559   -1.779311
    157          1           0        0.747291   -5.812523   -3.079588
    158          1           0       -0.465363   -7.017291   -2.579355
 ---------------------------------------------------------------------

 SCF Done:  E(RCAM-B3LYP) =  -4069.81235151     A.U. after   19 cycles

 Excitation energies and oscillator strengths:

 Excited State   1:      Singlet-A      1.6434 eV  754.45 nm  f=0.0011  <S**2>=0.000
     309 -> 315        0.11834
     310 -> 316       -0.11603
     311 -> 313        0.48826
     312 -> 314       -0.48465
 This state for optimization and/or second-order correction.
 Total Energy, E(TD-HF/TD-DFT) =  -4069.75195893
 Copying the excited state density for this state as the 1-particle RhoCI density.

 Excited State   2:      Singlet-A      1.7053 eV  727.04 nm  f=0.6869  <S**2>=0.000
     309 -> 315        0.12886
     310 -> 316        0.12821
     311 -> 313        0.48175
     312 -> 314        0.48541

 Excited State   3:      Singlet-A      2.1793 eV  568.91 nm  f=0.0518  <S**2>=0.000
     309 -> 313        0.26301
     310 -> 314        0.58844
     311 -> 315       -0.10871
     312 -> 316       -0.24498

 Excited State   4:      Singlet-A      2.1944 eV  565.01 nm  f=0.1349  <S**2>=0.000
     309 -> 313        0.57903
     310 -> 314       -0.25977
     311 -> 315       -0.25442
     312 -> 316        0.11555

 Excited State   5:      Singlet-A      2.2437 eV  552.58 nm  f=0.0015  <S**2>=0.000
     312 -> 313        0.70101

 The electronic state is 1-A.
 Alpha  occ. eigenvalues --  -46.88135 -46.87366 -19.26602 -19.25464 -19.19353
 Alpha  occ. eigenvalues --  -19.19113 -19.18482 -19.18475 -19.18395 -19.17589
 Alpha  occ. eigenvalues --  -14.42783 -14.42202 -14.41749 -14.41065 -14.39729
 Alpha  occ. eigenvalues --  -14.39061 -14.38898 -14.38292 -10.39382 -10.38376
 Alpha  occ. eigenvalues --  -10.35748 -10.35159 -10.34623 -10.33739 -10.32031
 Alpha  occ. eigenvalues --  -10.31729 -10.31268 -10.31118 -10.30987 -10.30883
 Alpha  occ. eigenvalues --  -10.30797 -10.30681 -10.30504 -10.30185 -10.30091
 Alpha  occ. eigenvalues --  -10.30037 -10.29923 -10.29900 -10.29597 -10.29569
 Alpha  occ. eigenvalues --  -10.29181 -10.29156 -10.29103 -10.28984 -10.28691
 Alpha  occ. eigenvalues --  -10.28476 -10.28345 -10.28237 -10.28081 -10.28073
 Alpha  occ. eigenvalues --  -10.28058 -10.27892 -10.27882 -10.27836 -10.27727
 Alpha  occ. eigenvalues --  -10.27720 -10.27700 -10.27665 -10.27440 -10.27401
 Alpha  occ. eigenvalues --  -10.27306 -10.27306 -10.27267 -10.27175 -10.27150
 Alpha  occ. eigenvalues --  -10.27130 -10.26744 -10.26533 -10.26396 -10.26358
 Alpha  occ. eigenvalues --  -10.26331 -10.26305 -10.26244 -10.26003 -10.25954
 Alpha  occ. eigenvalues --  -10.25902 -10.25661 -10.25626 -10.25583 -10.25197
 Alpha  occ. eigenvalues --  -10.25116 -10.25077 -10.24846 -10.24550 -10.24548
 Alpha  occ. eigenvalues --  -10.24390  -3.16853  -3.16117  -1.91735  -1.91322
 Alpha  occ. eigenvalues --   -1.91164  -1.90999  -1.90587  -1.90424  -1.16947
 Alpha  occ. eigenvalues --   -1.15819  -1.08848  -1.08161  -1.07512  -1.06948
 Alpha  occ. eigenvalues --   -1.06732  -1.06245  -1.04914  -1.04183  -1.04065
 Alpha  occ. eigenvalues --   -1.03540  -1.03363  -1.02748  -1.02716  -1.01812
 Alpha  occ. eigenvalues --   -0.92275  -0.91590  -0.89776  -0.89564  -0.89214
 Alpha  occ. eigenvalues --   -0.88834  -0.88536  -0.88128  -0.88004  -0.87964
 Alpha  occ. eigenvalues --   -0.87594  -0.87497  -0.87381  -0.86877  -0.85344
 Alpha  occ. eigenvalues --   -0.84696  -0.84170  -0.83607  -0.83267  -0.82981
 Alpha  occ. eigenvalues --   -0.82708  -0.82342  -0.81894  -0.81123  -0.80911
 Alpha  occ. eigenvalues --   -0.80043  -0.79101  -0.78370  -0.77521  -0.77250
 Alpha  occ. eigenvalues --   -0.76867  -0.76548  -0.76237  -0.75491  -0.75149
 Alpha  occ. eigenvalues --   -0.74510  -0.73059  -0.72409  -0.71967  -0.71280
 Alpha  occ. eigenvalues --   -0.70127  -0.69532  -0.69214  -0.68532  -0.67943
 Alpha  occ. eigenvalues --   -0.67613  -0.67280  -0.66894  -0.65646  -0.65158
 Alpha  occ. eigenvalues --   -0.64936  -0.64889  -0.64528  -0.64455  -0.64244
 Alpha  occ. eigenvalues --   -0.63911  -0.62601  -0.61697  -0.60740  -0.60152
 Alpha  occ. eigenvalues --   -0.60081  -0.59454  -0.59280  -0.58794  -0.58655
 Alpha  occ. eigenvalues --   -0.58066  -0.57868  -0.57582  -0.57084  -0.56835
 Alpha  occ. eigenvalues --   -0.56599  -0.56310  -0.55911  -0.55824  -0.55589
 Alpha  occ. eigenvalues --   -0.55377  -0.55093  -0.54880  -0.54780  -0.54276
 Alpha  occ. eigenvalues --   -0.54035  -0.53616  -0.53592  -0.53550  -0.53211
 Alpha  occ. eigenvalues --   -0.53098  -0.52934  -0.52810  -0.52646  -0.52485
 Alpha  occ. eigenvalues --   -0.52421  -0.52153  -0.52127  -0.51984  -0.51584
 Alpha  occ. eigenvalues --   -0.51473  -0.51348  -0.50905  -0.50837  -0.50311
 Alpha  occ. eigenvalues --   -0.50273  -0.50211  -0.49847  -0.49736  -0.49631
 Alpha  occ. eigenvalues --   -0.49513  -0.49402  -0.49219  -0.48902  -0.48842
 Alpha  occ. eigenvalues --   -0.48783  -0.48749  -0.48695  -0.48202  -0.48120
 Alpha  occ. eigenvalues --   -0.48013  -0.47999  -0.47593  -0.47285  -0.47087
 Alpha  occ. eigenvalues --   -0.46915  -0.46836  -0.46642  -0.46443  -0.46421
 Alpha  occ. eigenvalues --   -0.46258  -0.46089  -0.45986  -0.45726  -0.45450
 Alpha  occ. eigenvalues --   -0.45418  -0.44935  -0.44866  -0.44805  -0.44438
 Alpha  occ. eigenvalues --   -0.44405  -0.44306  -0.44200  -0.44142  -0.43852
 Alpha  occ. eigenvalues --   -0.43830  -0.43778  -0.43704  -0.43570  -0.43320
 Alpha  occ. eigenvalues --   -0.43187  -0.43091  -0.42922  -0.42875  -0.42595
 Alpha  occ. eigenvalues --   -0.42314  -0.42280  -0.42151  -0.41987  -0.41868
 Alpha  occ. eigenvalues --   -0.41664  -0.41435  -0.41296  -0.41200  -0.41164
 Alpha  occ. eigenvalues --   -0.41140  -0.40821  -0.40713  -0.40676  -0.40446
 Alpha  occ. eigenvalues --   -0.40425  -0.40204  -0.39825  -0.39652  -0.39202
 Alpha  occ. eigenvalues --   -0.38736  -0.38151  -0.38090  -0.37621  -0.37594
 Alpha  occ. eigenvalues --   -0.37344  -0.37000  -0.36992  -0.36884  -0.36481
 Alpha  occ. eigenvalues --   -0.36231  -0.35738  -0.34590  -0.34078  -0.33945
 Alpha  occ. eigenvalues --   -0.33494  -0.33268  -0.32839  -0.31641  -0.31344
 Alpha  occ. eigenvalues --   -0.31032  -0.30650  -0.30256  -0.29759  -0.29604
 Alpha  occ. eigenvalues --   -0.29468  -0.29044  -0.28890  -0.24395  -0.23716
 Alpha  occ. eigenvalues --   -0.21437  -0.20829
 Alpha virt. eigenvalues --   -0.09080  -0.08490  -0.02061  -0.01401  -0.00376
 Alpha virt. eigenvalues --    0.00232   0.01942   0.02557   0.02885   0.03529
 Alpha virt. eigenvalues --    0.04266   0.04659   0.04921   0.05405   0.05834

 Mulliken charges:
               1
     1  Mg   0.825165
     2  C   -0.002257
     3  C   -0.094430
     4  C   -0.044635
     5  C   -0.062620
     6  N   -0.255242
     7  C   -0.057403
     8  C   -0.006107
     9  C   -0.086129
    10  C    0.043306
    11  C    0.104580
    12  C    0.033240
    13  C   -0.073263
    14  H    0.038450
    15  N   -0.433497
    16  C    0.164195
    17  C   -0.178774
    18  C   -0.005139
    19  C    0.148829
    20  C    0.110475
    21  C    0.011902
    22  O   -0.248507
    23  C    0.063149
    24  N   -0.339515
    25  C    0.040815
    26  C   -0.028134
    27  C   -0.024375
    28  C    0.075003
    29  C    0.075918
    30  C    0.034862
    31  C   -0.004774
    32  N   -0.310298
    33  C    0.080767
    34  C   -0.168395
    35  C    0.009687
    36  C    0.080045
    37  C    0.126723
    38  C    0.048176
    39  O   -0.185264
    40  C   -0.007803
    41  C    0.214081
    42  O   -0.255526
    43  O   -0.304373
    44  C    0.157481
    45  H   -0.017874
    46  H   -0.016351
    47  H   -0.040326
    48  H    0.001511
    49  H   -0.004614
    50  H    0.026104
    51  H    0.017534
    52  H    0.017201
    53  H    0.009289
    54  H    0.054614
    55  H    0.019713
    56  H    0.018212
    57  H    0.005797
    58  H    0.027796
    59  H    0.037043
    60  H    0.037993
    61  H    0.036502
    62  H    0.028639
    63  H    0.017131
    64  H    0.010147
    65  H    0.023812
    66  H    0.012594
    67  H    0.005287
    68  H    0.007031
    69  H    0.005405
    70  H    0.009156
    71  H    0.019220
    72  H    0.028666
    73  H    0.050302
    74  H    0.009830
    75  H    0.046561
    76  H    0.035838
    77  H    0.044121
    78  H    0.045737
    79  H    0.050204
    80  Mg   0.836754
    81  C   -0.018006
    82  C   -0.087655
    83  C   -0.045879
    84  C   -0.066145
    85  N   -0.254149
    86  C   -0.050113
    87  C   -0.020012
    88  C   -0.092130
    89  C    0.044541
    90  C    0.086591
    91  C    0.063161
    92  C   -0.078299
    93  H    0.029914
    94  N   -0.423362
    95  C    0.162406
    96  C   -0.175015
    97  C   -0.008412
    98  C    0.151933
    99  C    0.100002
   100  C    0.015213
   101  O   -0.253874
   102  C    0.061379
   103  N   -0.350261
   104  C    0.037192
   105  C   -0.019560
   106  C   -0.034794
   107  C    0.089429
   108  C    0.073890
   109  C    0.034907
   110  C   -0.007559
   111  N   -0.324280
   112  C    0.079087
   113  C   -0.163964
   114  C    0.003261
   115  C    0.095523
   116  C    0.131618
   117  C    0.041996
   118  O   -0.185345
   119  C    0.002773
   120  C    0.207487
   121  O   -0.255501
   122  O   -0.291307
   123  C    0.155643
   124  H   -0.021291
   125  H   -0.016372
   126  H   -0.041189
   127  H    0.016572
   128  H   -0.006506
   129  H    0.037283
   130  H    0.015982
   131  H    0.034383
   132  H    0.011461
   133  H    0.037860
   134  H    0.027949
   135  H    0.014893
   136  H    0.006426
   137  H    0.025002
   138  H    0.038523
   139  H    0.037700
   140  H    0.035655
   141  H    0.033257
   142  H    0.013860
   143  H    0.011764
   144  H    0.024519
   145  H    0.011872
   146  H    0.004833
   147  H    0.005685
   148  H    0.003341
   149  H    0.010680
   150  H    0.017459
   151  H    0.030509
   152  H    0.046134
   153  H    0.007650
   154  H    0.046878
   155  H    0.047663
   156  H    0.045109
   157  H    0.046464
   158  H    0.048700
 Sum of Mulliken charges =  -0.00000

 Dipole moment (field-independent basis, Debye):
    X=              4.6072    Y=              5.5166    Z=             -4.1454  Tot=              8.2972
 Quadrupole moment (field-independent basis, Debye-Ang):
   XX=           -503.4735   YY=           -564.5144   ZZ=           -454.9870
   XY=             12.4718   XZ=            -37.5601   YZ=              5.0265

 Normal termination of Gaussian 16 at Fri Sep 10 02:18:49 2021.
