 Gaussian 16, Revision A.03,
 Gaussian 16:  ES64L-G16RevA.03 25-Dec-2016

 -----------------------------------
 #p cam-b3lyp/Def2SVP td=(nstates=5)
 -----------------------------------

 --------------------------------
 TDDFT excited states in gaussian
 --------------------------------
 Symbolic Z-matrix:
 Charge =  0 Multiplicity = 1

                         Standard orientation:
 ---------------------------------------------------------------------
 Center     Atomic      Atomic             Coordinates (Angstroms)
 Number     Number       Type             X           Y           Z
 ---------------------------------------------------------------------
      1         12           0       -4.564917    0.003169    0.394894
      2          6           0       -4.102887    3.491973    1.048339
      3          6           0       -5.591577    0.878304   -2.739300
      4          6           0       -5.410018   -3.020142   -0.054563
      5          6           0       -4.600450   -0.487475    3.845063
      6          7           0       -4.775325    1.968661   -0.601708
      7          6           0       -4.508246    3.225653   -0.261395
      8          6           0       -4.626873    4.226015   -1.449914
      9          6           0       -5.623857    3.397275   -2.377928
     10          6           0       -5.286544    1.994332   -1.904753
     11          6           0       -7.096004    3.672461   -2.088864
     12          6           0       -3.253126    4.470948   -2.160236
     13          6           0       -3.214356    5.670029   -3.112105
     14          1           0       -1.990249    6.451257   -3.204808
     15          7           0       -4.912316   -0.995494   -1.273889
     16          6           0       -5.307007   -0.476159   -2.461237
     17          6           0       -5.429174   -1.622666   -3.387130
     18          6           0       -5.257449   -2.870104   -2.591830
     19          6           0       -5.211909   -2.339195   -1.253383
     20          6           0       -5.634154   -1.470125   -4.863092
     21          6           0       -5.161759   -4.312754   -2.976196
     22          8           0       -5.247440   -5.253354   -2.114509
     23          6           0       -5.052360   -4.602765   -4.417364
     24          7           0       -5.171386   -1.510555    1.698148
     25          6           0       -5.422331   -2.746105    1.251576
     26          6           0       -5.560998   -3.718699    2.385053
     27          6           0       -5.109688   -2.932707    3.699696
     28          6           0       -4.853841   -1.542429    3.067289
     29          6           0       -6.964052   -4.304030    2.596807
     30          6           0       -3.985277   -3.573903    4.551158
     31          6           0       -2.683633   -3.553432    3.781481
     32          7           0       -4.210989    1.223715    2.154453
     33          6           0       -4.302210    0.818520    3.493919
     34          6           0       -4.082485    2.017306    4.323800
     35          6           0       -3.893931    3.046399    3.403333
     36          6           0       -4.015858    2.528478    2.082279
     37          6           0       -4.132318    2.067698    5.744860
     38          6           0       -3.642269    4.467675    3.228695
     39          8           0       -3.360335    5.397821    3.985553
     40          6           0       -3.888357    4.835866    1.699086
     41          6           0       -2.719401    5.662390    1.236800
     42          8           0       -1.578576    5.164226    1.148959
     43          8           0       -3.165836    6.829618    0.748110
     44          6           0       -2.058339    7.685435    0.244939
     45          1           0       -6.151094    1.046251   -3.661621
     46          1           0       -5.594492   -4.090870   -0.163880
     47          1           0       -4.513305   -0.579389    4.929227
     48          1           0       -5.070940    5.187632   -1.191997
     49          1           0       -5.383328    3.508732   -3.435021
     50          1           0       -7.218304    4.296937   -1.203995
     51          1           0       -7.549266    2.693821   -1.929771
     52          1           0       -7.590719    4.092986   -2.964760
     53          1           0       -3.066563    3.664770   -2.869696
     54          1           0       -2.451379    4.566503   -1.427162
     55          1           0       -4.074482    6.323792   -2.964845
     56          1           0       -3.326266    5.300615   -4.131521
     57          1           0       -5.888093   -0.444584   -5.128284
     58          1           0       -6.522563   -2.045655   -5.122328
     59          1           0       -4.780682   -1.833552   -5.435664
     60          1           0       -5.921834   -4.195133   -4.933503
     61          1           0       -4.904065   -5.679103   -4.497089
     62          1           0       -4.184299   -4.078539   -4.818123
     63          1           0       -4.910005   -4.580334    2.242855
     64          1           0       -5.933669   -2.802901    4.401751
     65          1           0       -6.993929   -5.393334    2.561732
     66          1           0       -7.626622   -3.870343    1.848337
     67          1           0       -7.452182   -3.997991    3.521732
     68          1           0       -4.217159   -4.617426    4.761479
     69          1           0       -3.827506   -3.070453    5.505044
     70          1           0       -2.756573   -4.442536    3.156177
     71          1           0       -1.836619   -3.624984    4.464604
     72          1           0       -2.627767   -2.691212    3.116694
     73          1           0       -3.285263    2.677779    6.058337
     74          1           0       -4.083260    1.069103    6.178455
     75          1           0       -5.102101    2.541473    5.896230
     76          1           0       -4.824664    5.391466    1.657122
     77          1           0       -2.129606    8.641011    0.764583
     78          1           0       -2.141913    7.693077   -0.841966
     79          1           0       -1.048597    7.377268    0.518422
     80         12           0        4.265822   -1.534936   -0.423626
     81          6           0        5.763839    1.697687    0.006681
     82          6           0        2.446388   -0.187030   -2.974596
     83          6           0        2.606698   -4.237184   -0.535849
     84          6           0        5.319694   -2.299997    2.808972
     85          7           0        4.202326    0.503539   -1.279700
     86          6           0        4.861108    1.634268   -1.075217
     87          6           0        4.593607    2.735383   -2.136128
     88          6           0        3.153040    2.237336   -2.641675
     89          6           0        3.279509    0.750935   -2.314112
     90          6           0        2.000655    2.808428   -1.832228
     91          6           0        5.648468    2.715252   -3.297550
     92          6           0        5.633261    3.949855   -4.201575
     93          1           0        6.901628    4.435025   -4.738528
     94          7           0        3.120235   -2.279749   -1.862885
     95          6           0        2.477039   -1.591401   -2.829190
     96          6           0        1.754036   -2.595415   -3.625039
     97          6           0        1.890155   -3.915143   -2.950858
     98          6           0        2.541044   -3.516029   -1.719133
     99          6           0        1.093888   -2.274367   -4.934450
    100          6           0        1.488049   -5.304536   -3.343404
    101          8           0        1.489965   -6.269696   -2.500033
    102          6           0        1.002954   -5.482433   -4.719824
    103          7           0        3.814324   -2.972750    1.008565
    104          6           0        3.120331   -4.077734    0.684021
    105          6           0        3.154981   -5.091765    1.802467
    106          6           0        4.222847   -4.534653    2.854550
    107          6           0        4.570331   -3.191740    2.175403
    108          6           0        1.825296   -5.344492    2.512712
    109          6           0        5.385468   -5.486450    3.248295
    110          6           0        6.293828   -5.710387    2.060799
    111          7           0        5.500067   -0.587127    1.075154
    112          6           0        5.790172   -1.068834    2.370486
    113          6           0        6.573902   -0.022596    3.058651
    114          6           0        6.666461    1.012897    2.116486
    115          6           0        5.971098    0.646662    0.932503
    116          6           0        7.050637   -0.086284    4.398350
    117          6           0        7.185269    2.336832    1.858173
    118          8           0        7.926221    3.112354    2.460916
    119          6           0        6.516588    2.890752    0.526847
    120          6           0        7.606840    3.462615   -0.337367
    121          8           0        8.486305    2.725026   -0.816029
    122          8           0        7.309792    4.741179   -0.632987
    123          6           0        8.356382    5.348399   -1.497708
    124          1           0        1.665554    0.188437   -3.636567
    125          1           0        2.143403   -5.226249   -0.560142
    126          1           0        5.769078   -2.502082    3.783605
    127          1           0        4.521136    3.740776   -1.739011
    128          1           0        3.038054    2.383349   -3.712566
    129          1           0        2.347708    3.363629   -0.973471
    130          1           0        1.410712    1.956979   -1.519100
    131          1           0        1.348652    3.406842   -2.474969
    132          1           0        5.364066    1.945284   -4.026246
    133          1           0        6.637459    2.562314   -2.911378
    134          1           0        5.061078    4.775760   -3.761770
    135          1           0        5.088440    3.703547   -5.116195
    136          1           0        1.016797   -1.191372   -5.091203
    137          1           0        0.054721   -2.612712   -4.860083
    138          1           0        1.569255   -2.776096   -5.780013
    139          1           0        0.140031   -4.841506   -4.884277
    140          1           0        0.849102   -6.556685   -4.838894
    141          1           0        1.782386   -5.144564   -5.411881
    142          1           0        3.489043   -6.056148    1.439900
    143          1           0        3.754337   -4.287339    3.818487
    144          1           0        1.514573   -6.406149    2.492562
    145          1           0        1.070111   -4.718521    2.056216
    146          1           0        1.790074   -5.027233    3.553532
    147          1           0        4.993550   -6.467271    3.528576
    148          1           0        5.975714   -5.124795    4.083642
    149          1           0        5.783644   -6.503429    1.505936
    150          1           0        7.280942   -6.030170    2.388504
    151          1           0        6.324512   -4.824310    1.416153
    152          1           0        8.067176    0.283814    4.385008
    153          1           0        7.000917   -1.100034    4.790283
    154          1           0        6.337275    0.579760    4.891085
    155          1           0        5.785632    3.646360    0.817247
    156          1           0        8.706366    6.252000   -0.989084
    157          1           0        7.885115    5.479377   -2.489929
    158          1           0        9.284185    4.801991   -1.620454
 ---------------------------------------------------------------------

 SCF Done:  E(RCAM-B3LYP) =  -4069.81129506     A.U. after   19 cycles

 Excitation energies and oscillator strengths:

 Excited State   1:      Singlet-A      1.6449 eV  753.74 nm  f=0.0454  <S**2>=0.000
     309 -> 315       -0.11341
     310 -> 316        0.12148
     311 -> 313       -0.46714
     312 -> 314        0.50489
 This state for optimization and/or second-order correction.
 Total Energy, E(TD-HF/TD-DFT) =  -4069.75084499
 Copying the excited state density for this state as the 1-particle RhoCI density.

 Excited State   2:      Singlet-A      1.7038 eV  727.68 nm  f=0.6651  <S**2>=0.000
     309 -> 315        0.13407
     310 -> 316        0.12241
     311 -> 313        0.50209
     312 -> 314        0.46461

 Excited State   3:      Singlet-A      2.1794 eV  568.88 nm  f=0.0135  <S**2>=0.000
     309 -> 313       -0.31853
     310 -> 314        0.56156
     311 -> 315        0.13122
     312 -> 316       -0.23237

 Excited State   4:      Singlet-A      2.1958 eV  564.63 nm  f=0.1605  <S**2>=0.000
     309 -> 313        0.55634
     310 -> 314        0.31382
     311 -> 315       -0.24535
     312 -> 316       -0.13904

 Excited State   5:      Singlet-A      2.3222 eV  533.91 nm  f=0.0000  <S**2>=0.000
     312 -> 313        0.70694

 The electronic state is 1-A.
 Alpha  occ. eigenvalues --  -46.87970 -46.87455 -19.26512 -19.26161 -19.19256
 Alpha  occ. eigenvalues --  -19.18971 -19.18950 -19.18552 -19.18334 -19.17838
 Alpha  occ. eigenvalues --  -14.42639 -14.42276 -14.41613 -14.41162 -14.39576
 Alpha  occ. eigenvalues --  -14.39155 -14.38758 -14.38391 -10.39309 -10.38894
 Alpha  occ. eigenvalues --  -10.35586 -10.35236 -10.34558 -10.34011 -10.31914
 Alpha  occ. eigenvalues --  -10.31601 -10.31597 -10.31116 -10.31077 -10.30812
 Alpha  occ. eigenvalues --  -10.30753 -10.30663 -10.30365 -10.30196 -10.30161
 Alpha  occ. eigenvalues --  -10.30062 -10.29964 -10.29801 -10.29694 -10.29426
 Alpha  occ. eigenvalues --  -10.29250 -10.29218 -10.29015 -10.28920 -10.28547
 Alpha  occ. eigenvalues --  -10.28521 -10.28463 -10.28355 -10.28200 -10.27964
 Alpha  occ. eigenvalues --  -10.27917 -10.27833 -10.27806 -10.27762 -10.27730
 Alpha  occ. eigenvalues --  -10.27619 -10.27588 -10.27547 -10.27464 -10.27433
 Alpha  occ. eigenvalues --  -10.27369 -10.27349 -10.27292 -10.27270 -10.27219
 Alpha  occ. eigenvalues --  -10.27072 -10.26812 -10.26608 -10.26511 -10.26438
 Alpha  occ. eigenvalues --  -10.26342 -10.26289 -10.26183 -10.26012 -10.25975
 Alpha  occ. eigenvalues --  -10.25747 -10.25651 -10.25521 -10.25510 -10.25254
 Alpha  occ. eigenvalues --  -10.25002 -10.24939 -10.24783 -10.24669 -10.24608
 Alpha  occ. eigenvalues --  -10.24490  -3.16713  -3.16204  -1.91594  -1.91181
 Alpha  occ. eigenvalues --   -1.91086  -1.91023  -1.90675  -1.90512  -1.16862
 Alpha  occ. eigenvalues --   -1.16454  -1.08794  -1.08443  -1.07343  -1.06874
 Alpha  occ. eigenvalues --   -1.06802  -1.06755  -1.04773  -1.04275  -1.03928
 Alpha  occ. eigenvalues --   -1.03459  -1.03403  -1.02843  -1.02580  -1.01909
 Alpha  occ. eigenvalues --   -0.92155  -0.91771  -0.89664  -0.89435  -0.89318
 Alpha  occ. eigenvalues --   -0.88882  -0.88422  -0.88052  -0.88034  -0.87872
 Alpha  occ. eigenvalues --   -0.87593  -0.87485  -0.87464  -0.86985  -0.85217
 Alpha  occ. eigenvalues --   -0.84773  -0.84067  -0.83715  -0.83140  -0.82861
 Alpha  occ. eigenvalues --   -0.82810  -0.82443  -0.81785  -0.81403  -0.80788
 Alpha  occ. eigenvalues --   -0.80253  -0.78982  -0.78475  -0.77414  -0.77140
 Alpha  occ. eigenvalues --   -0.76952  -0.76690  -0.76128  -0.75596  -0.75041
 Alpha  occ. eigenvalues --   -0.74627  -0.72944  -0.72501  -0.71846  -0.71356
 Alpha  occ. eigenvalues --   -0.70030  -0.69602  -0.69093  -0.68611  -0.67821
 Alpha  occ. eigenvalues --   -0.67474  -0.67417  -0.67027  -0.65516  -0.65049
 Alpha  occ. eigenvalues --   -0.65035  -0.64811  -0.64572  -0.64451  -0.64415
 Alpha  occ. eigenvalues --   -0.64028  -0.62493  -0.62091  -0.60612  -0.60187
 Alpha  occ. eigenvalues --   -0.60025  -0.59555  -0.59160  -0.58795  -0.58679
 Alpha  occ. eigenvalues --   -0.58232  -0.57777  -0.57470  -0.57343  -0.57061
 Alpha  occ. eigenvalues --   -0.56491  -0.56199  -0.56023  -0.55703  -0.55703
 Alpha  occ. eigenvalues --   -0.55492  -0.55277  -0.55072  -0.54693  -0.54314
 Alpha  occ. eigenvalues --   -0.54143  -0.53662  -0.53476  -0.53438  -0.53113
 Alpha  occ. eigenvalues --   -0.53053  -0.52972  -0.52950  -0.52715  -0.52562
 Alpha  occ. eigenvalues --   -0.52504  -0.52254  -0.52068  -0.51856  -0.51683
 Alpha  occ. eigenvalues --   -0.51461  -0.51373  -0.51006  -0.50781  -0.50371
 Alpha  occ. eigenvalues --   -0.50192  -0.50099  -0.49789  -0.49721  -0.49697
 Alpha  occ. eigenvalues --   -0.49409  -0.49305  -0.49288  -0.48997  -0.48835
 Alpha  occ. eigenvalues --   -0.48786  -0.48614  -0.48599  -0.48341  -0.48211
 Alpha  occ. eigenvalues --   -0.48168  -0.47887  -0.47475  -0.47410  -0.46976
 Alpha  occ. eigenvalues --   -0.46964  -0.46792  -0.46530  -0.46518  -0.46329
 Alpha  occ. eigenvalues --   -0.46324  -0.46101  -0.46006  -0.45902  -0.45615
 Alpha  occ. eigenvalues --   -0.45339  -0.45031  -0.44763  -0.44704  -0.44320
 Alpha  occ. eigenvalues --   -0.44317  -0.44295  -0.44268  -0.44203  -0.43921
 Alpha  occ. eigenvalues --   -0.43877  -0.43763  -0.43684  -0.43581  -0.43362
 Alpha  occ. eigenvalues --   -0.43201  -0.43172  -0.42900  -0.42796  -0.42743
 Alpha  occ. eigenvalues --   -0.42700  -0.42390  -0.42182  -0.41885  -0.41787
 Alpha  occ. eigenvalues --   -0.41758  -0.41457  -0.41322  -0.41255  -0.41085
 Alpha  occ. eigenvalues --   -0.41010  -0.40755  -0.40714  -0.40554  -0.40529
 Alpha  occ. eigenvalues --   -0.40493  -0.40300  -0.40037  -0.39560  -0.39275
 Alpha  occ. eigenvalues --   -0.38625  -0.38173  -0.38026  -0.37489  -0.37475
 Alpha  occ. eigenvalues --   -0.37465  -0.37082  -0.36986  -0.36916  -0.36588
 Alpha  occ. eigenvalues --   -0.36376  -0.36028  -0.34461  -0.34048  -0.33995
 Alpha  occ. eigenvalues --   -0.33669  -0.33362  -0.32976  -0.31478  -0.31209
 Alpha  occ. eigenvalues --   -0.31108  -0.30764  -0.30195  -0.29740  -0.29622
 Alpha  occ. eigenvalues --   -0.29490  -0.29148  -0.29007  -0.24255  -0.23827
 Alpha  occ. eigenvalues --   -0.21303  -0.20916
 Alpha virt. eigenvalues --   -0.08948  -0.08597  -0.01916  -0.01486  -0.00234
 Alpha virt. eigenvalues --    0.00158   0.02038   0.02403   0.02760   0.03472
 Alpha virt. eigenvalues --    0.04488   0.04848   0.04959   0.05364   0.05823

 Mulliken charges:
               1
     1  Mg   0.838680
     2  C   -0.003575
     3  C   -0.095870
     4  C   -0.044397
     5  C   -0.063516
     6  N   -0.256703
     7  C   -0.053075
     8  C   -0.013745
     9  C   -0.086743
    10  C    0.045752
    11  C    0.104754
    12  C    0.053328
    13  C   -0.071429
    14  H    0.034129
    15  N   -0.433123
    16  C    0.168030
    17  C   -0.178788
    18  C   -0.004141
    19  C    0.149304
    20  C    0.110477
    21  C    0.013053
    22  O   -0.247133
    23  C    0.063001
    24  N   -0.341071
    25  C    0.041095
    26  C   -0.028582
    27  C   -0.024099
    28  C    0.075013
    29  C    0.075961
    30  C    0.035098
    31  C   -0.006100
    32  N   -0.310556
    33  C    0.080614
    34  C   -0.169230
    35  C    0.008597
    36  C    0.083127
    37  C    0.127226
    38  C    0.046339
    39  O   -0.187715
    40  C   -0.005495
    41  C    0.213233
    42  O   -0.258206
    43  O   -0.304504
    44  C    0.157546
    45  H   -0.017778
    46  H   -0.015654
    47  H   -0.041014
    48  H    0.001478
    49  H   -0.004976
    50  H    0.025836
    51  H    0.016949
    52  H    0.016779
    53  H    0.008668
    54  H    0.043562
    55  H    0.019444
    56  H    0.017385
    57  H    0.005535
    58  H    0.027642
    59  H    0.036676
    60  H    0.037479
    61  H    0.037553
    62  H    0.027326
    63  H    0.018024
    64  H    0.009729
    65  H    0.023955
    66  H    0.012439
    67  H    0.004860
    68  H    0.006797
    69  H    0.004495
    70  H    0.011272
    71  H    0.017314
    72  H    0.029447
    73  H    0.048108
    74  H    0.009377
    75  H    0.046344
    76  H    0.035474
    77  H    0.044036
    78  H    0.045686
    79  H    0.053295
    80  Mg   0.838497
    81  C   -0.016446
    82  C   -0.088173
    83  C   -0.045443
    84  C   -0.064849
    85  N   -0.254810
    86  C   -0.047915
    87  C   -0.015130
    88  C   -0.091480
    89  C    0.047007
    90  C    0.115386
    91  C    0.062683
    92  C   -0.077175
    93  H    0.033810
    94  N   -0.423451
    95  C    0.162960
    96  C   -0.175159
    97  C   -0.007562
    98  C    0.151573
    99  C    0.100259
   100  C    0.016202
   101  O   -0.252188
   102  C    0.061719
   103  N   -0.349894
   104  C    0.037178
   105  C   -0.019871
   106  C   -0.034857
   107  C    0.089135
   108  C    0.073431
   109  C    0.034831
   110  C   -0.007573
   111  N   -0.324319
   112  C    0.079065
   113  C   -0.162803
   114  C    0.002931
   115  C    0.096444
   116  C    0.131218
   117  C    0.042910
   118  O   -0.187792
   119  C    0.000596
   120  C    0.210947
   121  O   -0.251613
   122  O   -0.305101
   123  C    0.152285
   124  H   -0.020869
   125  H   -0.015294
   126  H   -0.040835
   127  H    0.000268
   128  H   -0.006762
   129  H    0.028996
   130  H    0.015897
   131  H    0.014760
   132  H    0.013188
   133  H    0.037322
   134  H    0.020809
   135  H    0.018569
   136  H    0.007643
   137  H    0.022897
   138  H    0.038789
   139  H    0.035611
   140  H    0.036641
   141  H    0.033249
   142  H    0.014123
   143  H    0.011969
   144  H    0.024664
   145  H    0.013290
   146  H    0.004280
   147  H    0.005728
   148  H    0.003435
   149  H    0.010802
   150  H    0.017558
   151  H    0.030344
   152  H    0.045631
   153  H    0.007930
   154  H    0.048203
   155  H    0.037675
   156  H    0.043716
   157  H    0.049060
   158  H    0.053142
 Sum of Mulliken charges =  -0.00000

 Dipole moment (field-independent basis, Debye):
    X=             -6.1313    Y=              0.2515    Z=             -5.9861  Tot=              8.5726
 Quadrupole moment (field-independent basis, Debye-Ang):
   XX=           -537.8666   YY=           -527.0844   ZZ=           -464.8136
   XY=            -17.7448   XZ=              4.6162   YZ=            -56.3604

 Normal termination of Gaussian 16 at Thu Sep  9 22:13:53 2021.
