 Gaussian 16, Revision A.03,
 Gaussian 16:  ES64L-G16RevA.03 25-Dec-2016

 -----------------------------------
 #p cam-b3lyp/Def2SVP td=(nstates=5)
 -----------------------------------

 --------------------------------
 TDDFT excited states in gaussian
 --------------------------------
 Symbolic Z-matrix:
 Charge =  0 Multiplicity = 1

                         Standard orientation:
 ---------------------------------------------------------------------
 Center     Atomic      Atomic             Coordinates (Angstroms)
 Number     Number       Type             X           Y           Z
 ---------------------------------------------------------------------
      1         12           0       -4.056425   -1.741112    0.130171
      2          6           0       -5.649093    1.461225    0.273899
      3          6           0       -5.033684   -1.914868   -3.134464
      4          6           0       -3.058773   -4.751208    0.104914
      5          6           0       -4.206664   -1.807724    3.611356
      6          7           0       -5.191031   -0.340141   -1.154584
      7          6           0       -5.693097    0.880430   -0.995504
      8          6           0       -6.203471    1.516398   -2.323073
      9          6           0       -6.475070    0.182489   -3.153084
     10          6           0       -5.482971   -0.738219   -2.464635
     11          6           0       -7.880420   -0.378656   -2.961744
     12          6           0       -5.116118    2.408194   -3.011617
     13          6           0       -5.630783    3.320095   -4.129165
     14          1           0       -5.029741    4.635163   -4.292541
     15          7           0       -3.612441   -2.931022   -1.383052
     16          6           0       -4.089874   -2.845134   -2.647950
     17          6           0       -3.461798   -3.954775   -3.396882
     18          6           0       -2.728305   -4.805824   -2.419233
     19          6           0       -3.130699   -4.203763   -1.173850
     20          6           0       -3.549120   -4.095949   -4.885571
     21          6           0       -1.818713   -5.982506   -2.581082
     22          8           0       -1.473841   -6.716616   -1.592791
     23          6           0       -1.407460   -6.310407   -3.958177
     24          7           0       -3.881211   -3.191593    1.621157
     25          6           0       -3.365479   -4.396534    1.354467
     26          6           0       -3.077757   -5.158292    2.614181
     27          6           0       -3.279579   -4.122791    3.812830
     28          6           0       -3.754187   -2.899409    2.990424
     29          6           0       -3.947674   -6.398870    2.859585
     30          6           0       -2.091792   -3.938508    4.790388
     31          6           0       -0.935219   -3.278089    4.073950
     32          7           0       -4.626223   -0.355135    1.700343
     33          6           0       -4.631750   -0.601132    3.080970
     34          6           0       -5.196503    0.595890    3.730786
     35          6           0       -5.497582    1.454069    2.674981
     36          6           0       -5.167674    0.822075    1.442083
     37          6           0       -5.425326    0.757155    5.125801
     38          6           0       -6.044096    2.748175    2.300188
     39          8           0       -6.402441    3.750602    2.920045
     40          6           0       -6.277144    2.756474    0.724928
     41          6           0       -5.705015    4.039923    0.187587
     42          8           0       -4.475883    4.253885    0.216237
     43          8           0       -6.657436    4.703945   -0.485101
     44          6           0       -6.147729    5.973162   -1.069430
     45          1           0       -5.486192   -2.182938   -4.091185
     46          1           0       -2.615690   -5.748271    0.149408
     47          1           0       -4.206182   -1.722662    4.699574
     48          1           0       -7.125816    2.089573   -2.227292
     49          1           0       -6.217103    0.298454   -4.205570
     50          1           0       -8.422197    0.160266   -2.184594
     51          1           0       -7.741021   -1.421294   -2.675445
     52          1           0       -8.422091   -0.397555   -3.907795
     53          1           0       -4.441604    1.773300   -3.586074
     54          1           0       -4.584840    3.008605   -2.272309
     55          1           0       -6.718329    3.396636   -4.112051
     56          1           0       -5.407504    2.847451   -5.085698
     57          1           0       -4.289537   -3.418643   -5.309344
     58          1           0       -3.943921   -5.091289   -5.088397
     59          1           0       -2.577584   -3.980814   -5.366399
     60          1           0       -2.293856   -6.510893   -4.560386
     61          1           0       -0.688259   -7.124099   -3.871536
     62          1           0       -0.927291   -5.437149   -4.400678
     63          1           0       -2.051103   -5.521997    2.625395
     64          1           0       -4.113772   -4.400813    4.457423
     65          1           0       -3.374412   -7.317641    2.985816
     66          1           0       -4.650283   -6.486977    2.031413
     67          1           0       -4.624125   -6.321764    3.710400
     68          1           0       -1.738899   -4.906325    5.144989
     69          1           0       -2.342709   -3.336614    5.663896
     70          1           0       -0.440483   -4.116872    3.585575
     71          1           0       -0.269577   -2.795544    4.790387
     72          1           0       -1.284267   -2.604777    3.290812
     73          1           0       -5.089822    1.763639    5.375592
     74          1           0       -4.888729    0.005682    5.704555
     75          1           0       -6.506244    0.624717    5.169763
     76          1           0       -7.353125    2.690082    0.566880
     77          1           0       -6.786601    6.775677   -0.700585
     78          1           0       -6.098974    5.820288   -2.147696
     79          1           0       -5.171768    6.308476   -0.716720
     80         12           0        4.213166    1.810363   -0.113287
     81          6           0        5.428868   -1.557317   -0.357904
     82          6           0        3.621326    1.198219    3.189681
     83          6           0        2.724187    4.608214    0.036281
     84          6           0        3.831586    1.776779   -3.577236
     85          7           0        4.527049    0.013691    1.137993
     86          6           0        5.052779   -1.187441    0.950214
     87          6           0        5.257017   -2.010556    2.250343
     88          6           0        4.149240   -1.293466    3.165468
     89          6           0        4.115850    0.072709    2.483451
     90          6           0        2.770652   -1.921362    3.044772
     91          6           0        6.697037   -1.835662    2.848490
     92          6           0        7.067486   -2.843927    3.938418
     93          1           0        8.448696   -3.312046    4.013163
     94          7           0        3.757312    2.940448    1.453132
     95          6           0        3.576615    2.531554    2.726495
     96          6           0        3.237677    3.740569    3.493020
     97          6           0        3.071480    4.870019    2.538331
     98          6           0        3.159361    4.163409    1.276162
     99          6           0        3.179897    3.763552    4.992875
    100          6           0        2.854846    6.340611    2.729742
    101          8           0        2.499752    7.100660    1.760686
    102          6           0        2.979668    6.848282    4.103841
    103          7           0        3.197795    2.944663   -1.529170
    104          6           0        2.689807    4.149287   -1.214933
    105          6           0        2.250527    4.895610   -2.452032
    106          6           0        2.793752    4.037218   -3.687206
    107          6           0        3.402662    2.844318   -2.918049
    108          6           0        0.744015    5.105997   -2.602204
    109          6           0        3.681540    4.779146   -4.723584
    110          6           0        4.997060    5.170646   -4.089923
    111          7           0        4.727032    0.462368   -1.721675
    112          6           0        4.452159    0.630835   -3.096495
    113          6           0        4.891241   -0.601663   -3.782495
    114          6           0        5.373797   -1.417358   -2.747954
    115          6           0        5.225984   -0.749037   -1.502567
    116          6           0        4.771785   -0.865666   -5.176099
    117          6           0        5.964829   -2.696066   -2.425028
    118          8           0        6.397789   -3.643213   -3.080165
    119          6           0        5.910418   -2.894346   -0.848927
    120          6           0        7.265277   -3.361871   -0.392540
    121          8           0        8.257245   -2.618533   -0.492804
    122          8           0        7.128255   -4.517746    0.282404
    123          6           0        8.443894   -5.015787    0.764968
    124          1           0        3.186830    1.041131    4.177323
    125          1           0        2.303380    5.616215    0.018034
    126          1           0        3.836696    1.727416   -4.668203
    127          1           0        5.036098   -3.067208    2.158427
    128          1           0        4.487925   -1.198075    4.193840
    129          1           0        2.737186   -2.674304    2.271389
    130          1           0        2.096441   -1.108014    2.810368
    131          1           0        2.447550   -2.310704    4.014492
    132          1           0        6.731943   -0.906753    3.432135
    133          1           0        7.436976   -1.854626    2.072114
    134          1           0        6.372201   -3.691614    3.969281
    135          1           0        6.946668   -2.362610    4.911941
    136          1           0        3.184108    2.749449    5.411174
    137          1           0        2.199729    4.167175    5.268958
    138          1           0        3.957416    4.390322    5.434794
    139          1           0        2.267406    6.334228    4.744853
    140          1           0        2.879071    7.932512    4.025082
    141          1           0        3.978286    6.598881    4.479583
    142          1           0        2.695805    5.882328   -2.486933
    143          1           0        1.971319    3.632336   -4.295081
    144          1           0        0.459812    6.170541   -2.702352
    145          1           0        0.250298    4.659212   -1.749460
    146          1           0        0.285093    4.579115   -3.437067
    147          1           0        3.200079    5.708221   -5.038497
    148          1           0        3.877485    4.198458   -5.618790
    149          1           0        4.754355    6.104656   -3.574372
    150          1           0        5.757922    5.326651   -4.852011
    151          1           0        5.299091    4.442516   -3.328167
    152          1           0        5.706436   -1.311204   -5.489823
    153          1           0        4.555598    0.042070   -5.735612
    154          1           0        3.924643   -1.556759   -5.171776
    155          1           0        5.131578   -3.628105   -0.637752
    156          1           0        8.560780   -6.033692    0.380400
    157          1           0        8.425485   -4.891574    1.864051
    158          1           0        9.334672   -4.538335    0.373802
 ---------------------------------------------------------------------

 SCF Done:  E(RCAM-B3LYP) =  -4069.81162732     A.U. after   19 cycles

 Excitation energies and oscillator strengths:

 Excited State   1:      Singlet-A      1.6479 eV  752.37 nm  f=0.0030  <S**2>=0.000
     309 -> 315        0.11258
     310 -> 316        0.12360
     311 -> 313        0.46262
     312 -> 314        0.50885
 This state for optimization and/or second-order correction.
 Total Energy, E(TD-HF/TD-DFT) =  -4069.75106720
 Copying the excited state density for this state as the 1-particle RhoCI density.

 Excited State   2:      Singlet-A      1.7055 eV  726.99 nm  f=0.6962  <S**2>=0.000
     309 -> 315        0.13476
     310 -> 316       -0.12220
     311 -> 313        0.50619
     312 -> 314       -0.46023

 Excited State   3:      Singlet-A      2.1820 eV  568.21 nm  f=0.0112  <S**2>=0.000
     309 -> 313        0.33207
     310 -> 314        0.55331
     311 -> 315       -0.13747
     312 -> 316       -0.23026

 Excited State   4:      Singlet-A      2.1976 eV  564.19 nm  f=0.1621  <S**2>=0.000
     309 -> 313        0.54803
     310 -> 314       -0.32753
     311 -> 315       -0.24225
     312 -> 316        0.14595

 Excited State   5:      Singlet-A      2.3511 eV  527.36 nm  f=0.0000  <S**2>=0.000
     312 -> 313        0.70709

 The electronic state is 1-A.
 Alpha  occ. eigenvalues --  -46.87901 -46.87439 -19.26317 -19.26182 -19.19055
 Alpha  occ. eigenvalues --  -19.18991 -19.18840 -19.18432 -19.18247 -19.17857
 Alpha  occ. eigenvalues --  -14.42552 -14.42278 -14.41569 -14.41136 -14.39498
 Alpha  occ. eigenvalues --  -14.39120 -14.38691 -14.38387 -10.39120 -10.38916
 Alpha  occ. eigenvalues --  -10.35467 -10.35105 -10.34468 -10.34036 -10.31694
 Alpha  occ. eigenvalues --  -10.31611 -10.31512 -10.31116 -10.30992 -10.30788
 Alpha  occ. eigenvalues --  -10.30677 -10.30613 -10.30330 -10.30176 -10.30164
 Alpha  occ. eigenvalues --  -10.30053 -10.29904 -10.29725 -10.29672 -10.29350
 Alpha  occ. eigenvalues --  -10.29198 -10.29188 -10.28837 -10.28635 -10.28523
 Alpha  occ. eigenvalues --  -10.28517 -10.28451 -10.28206 -10.28174 -10.27947
 Alpha  occ. eigenvalues --  -10.27886 -10.27829 -10.27784 -10.27701 -10.27666
 Alpha  occ. eigenvalues --  -10.27623 -10.27526 -10.27498 -10.27454 -10.27317
 Alpha  occ. eigenvalues --  -10.27260 -10.27237 -10.27229 -10.27216 -10.27123
 Alpha  occ. eigenvalues --  -10.26845 -10.26802 -10.26525 -10.26490 -10.26352
 Alpha  occ. eigenvalues --  -10.26314 -10.26152 -10.26116 -10.25994 -10.25991
 Alpha  occ. eigenvalues --  -10.25813 -10.25761 -10.25732 -10.25579 -10.25099
 Alpha  occ. eigenvalues --  -10.25035 -10.24926 -10.24897 -10.24662 -10.24590
 Alpha  occ. eigenvalues --  -10.24442  -3.16644  -3.16189  -1.91525  -1.91112
 Alpha  occ. eigenvalues --   -1.91071  -1.90954  -1.90659  -1.90496  -1.16667
 Alpha  occ. eigenvalues --   -1.16475  -1.08703  -1.08470  -1.07237  -1.06775
 Alpha  occ. eigenvalues --   -1.06679  -1.06676  -1.04680  -1.04277  -1.03874
 Alpha  occ. eigenvalues --   -1.03439  -1.03338  -1.02815  -1.02518  -1.01889
 Alpha  occ. eigenvalues --   -0.92064  -0.91774  -0.89695  -0.89288  -0.89282
 Alpha  occ. eigenvalues --   -0.88957  -0.88452  -0.87997  -0.87984  -0.87779
 Alpha  occ. eigenvalues --   -0.87620  -0.87473  -0.87331  -0.86872  -0.85077
 Alpha  occ. eigenvalues --   -0.84797  -0.84129  -0.83657  -0.83031  -0.82721
 Alpha  occ. eigenvalues --   -0.82677  -0.82435  -0.81665  -0.81411  -0.80678
 Alpha  occ. eigenvalues --   -0.80236  -0.78877  -0.78414  -0.77350  -0.77043
 Alpha  occ. eigenvalues --   -0.76945  -0.76698  -0.76010  -0.75640  -0.75038
 Alpha  occ. eigenvalues --   -0.74556  -0.72890  -0.72495  -0.71777  -0.71352
 Alpha  occ. eigenvalues --   -0.70139  -0.69562  -0.68964  -0.68623  -0.67730
 Alpha  occ. eigenvalues --   -0.67385  -0.67296  -0.66992  -0.65388  -0.65076
 Alpha  occ. eigenvalues --   -0.64961  -0.64733  -0.64565  -0.64454  -0.64419
 Alpha  occ. eigenvalues --   -0.63994  -0.62375  -0.62090  -0.60527  -0.60097
 Alpha  occ. eigenvalues --   -0.59898  -0.59597  -0.59099  -0.58777  -0.58608
 Alpha  occ. eigenvalues --   -0.58213  -0.57663  -0.57418  -0.57364  -0.57014
 Alpha  occ. eigenvalues --   -0.56401  -0.56040  -0.56006  -0.55698  -0.55599
 Alpha  occ. eigenvalues --   -0.55483  -0.55234  -0.55043  -0.54650  -0.54288
 Alpha  occ. eigenvalues --   -0.53986  -0.53718  -0.53405  -0.53282  -0.53026
 Alpha  occ. eigenvalues --   -0.53015  -0.52926  -0.52816  -0.52707  -0.52657
 Alpha  occ. eigenvalues --   -0.52416  -0.52229  -0.52037  -0.51749  -0.51688
 Alpha  occ. eigenvalues --   -0.51451  -0.51314  -0.51010  -0.50615  -0.50218
 Alpha  occ. eigenvalues --   -0.50206  -0.49980  -0.49757  -0.49628  -0.49581
 Alpha  occ. eigenvalues --   -0.49295  -0.49262  -0.49185  -0.48995  -0.48909
 Alpha  occ. eigenvalues --   -0.48690  -0.48579  -0.48491  -0.48365  -0.48151
 Alpha  occ. eigenvalues --   -0.48085  -0.47791  -0.47384  -0.47378  -0.46937
 Alpha  occ. eigenvalues --   -0.46880  -0.46643  -0.46514  -0.46475  -0.46347
 Alpha  occ. eigenvalues --   -0.46276  -0.46058  -0.45921  -0.45880  -0.45647
 Alpha  occ. eigenvalues --   -0.45347  -0.44938  -0.44688  -0.44596  -0.44325
 Alpha  occ. eigenvalues --   -0.44296  -0.44267  -0.44173  -0.44081  -0.43922
 Alpha  occ. eigenvalues --   -0.43864  -0.43712  -0.43585  -0.43496  -0.43370
 Alpha  occ. eigenvalues --   -0.43185  -0.43134  -0.42881  -0.42743  -0.42732
 Alpha  occ. eigenvalues --   -0.42695  -0.42336  -0.42170  -0.41806  -0.41774
 Alpha  occ. eigenvalues --   -0.41635  -0.41462  -0.41260  -0.41243  -0.41010
 Alpha  occ. eigenvalues --   -0.40864  -0.40770  -0.40722  -0.40523  -0.40455
 Alpha  occ. eigenvalues --   -0.40321  -0.40280  -0.40024  -0.39681  -0.39237
 Alpha  occ. eigenvalues --   -0.38630  -0.38128  -0.37847  -0.37476  -0.37460
 Alpha  occ. eigenvalues --   -0.37356  -0.37056  -0.36994  -0.36796  -0.36588
 Alpha  occ. eigenvalues --   -0.36294  -0.36004  -0.34392  -0.34039  -0.33817
 Alpha  occ. eigenvalues --   -0.33681  -0.33287  -0.32957  -0.31375  -0.31132
 Alpha  occ. eigenvalues --   -0.30993  -0.30744  -0.30108  -0.29765  -0.29530
 Alpha  occ. eigenvalues --   -0.29416  -0.29095  -0.28999  -0.24186  -0.23814
 Alpha  occ. eigenvalues --   -0.21235  -0.20895
 Alpha virt. eigenvalues --   -0.08868  -0.08566  -0.01854  -0.01452  -0.00120
 Alpha virt. eigenvalues --    0.00216   0.02104   0.02402   0.02834   0.03492
 Alpha virt. eigenvalues --    0.04611   0.04928   0.05049   0.05344   0.06074

 Mulliken charges:
               1
     1  Mg   0.838717
     2  C   -0.002554
     3  C   -0.093965
     4  C   -0.046068
     5  C   -0.064756
     6  N   -0.256664
     7  C   -0.052675
     8  C   -0.013925
     9  C   -0.087044
    10  C    0.046365
    11  C    0.104740
    12  C    0.053432
    13  C   -0.071802
    14  H    0.035825
    15  N   -0.433313
    16  C    0.168710
    17  C   -0.176708
    18  C   -0.003378
    19  C    0.148914
    20  C    0.110136
    21  C    0.012970
    22  O   -0.249373
    23  C    0.062198
    24  N   -0.340914
    25  C    0.041092
    26  C   -0.028458
    27  C   -0.023893
    28  C    0.074102
    29  C    0.076052
    30  C    0.037212
    31  C   -0.010065
    32  N   -0.310356
    33  C    0.079948
    34  C   -0.170660
    35  C    0.008506
    36  C    0.082858
    37  C    0.127485
    38  C    0.046189
    39  O   -0.188301
    40  C   -0.005359
    41  C    0.212822
    42  O   -0.256449
    43  O   -0.304982
    44  C    0.157229
    45  H   -0.017175
    46  H   -0.016682
    47  H   -0.042560
    48  H    0.001197
    49  H   -0.003959
    50  H    0.025622
    51  H    0.016523
    52  H    0.016947
    53  H    0.010703
    54  H    0.044230
    55  H    0.018291
    56  H    0.017774
    57  H    0.005788
    58  H    0.027372
    59  H    0.040370
    60  H    0.037049
    61  H    0.037529
    62  H    0.032499
    63  H    0.016062
    64  H    0.009776
    65  H    0.023428
    66  H    0.013204
    67  H    0.004807
    68  H    0.006110
    69  H    0.003562
    70  H    0.010014
    71  H    0.016944
    72  H    0.030943
    73  H    0.046891
    74  H    0.007928
    75  H    0.046318
    76  H    0.035256
    77  H    0.043224
    78  H    0.046052
    79  H    0.054822
    80  Mg   0.837685
    81  C   -0.016890
    82  C   -0.087594
    83  C   -0.042621
    84  C   -0.065549
    85  N   -0.254652
    86  C   -0.050137
    87  C   -0.015071
    88  C   -0.091864
    89  C    0.046049
    90  C    0.112934
    91  C    0.062727
    92  C   -0.077571
    93  H    0.034292
    94  N   -0.424081
    95  C    0.163611
    96  C   -0.172959
    97  C   -0.005880
    98  C    0.152341
    99  C    0.098678
   100  C    0.017106
   101  O   -0.252162
   102  C    0.060958
   103  N   -0.349982
   104  C    0.038141
   105  C   -0.020294
   106  C   -0.033987
   107  C    0.088611
   108  C    0.072151
   109  C    0.034941
   110  C   -0.007489
   111  N   -0.323815
   112  C    0.078041
   113  C   -0.164383
   114  C    0.001898
   115  C    0.095752
   116  C    0.131736
   117  C    0.041767
   118  O   -0.189100
   119  C    0.000951
   120  C    0.210973
   121  O   -0.251433
   122  O   -0.305291
   123  C    0.152269
   124  H   -0.019845
   125  H   -0.014042
   126  H   -0.042054
   127  H   -0.000501
   128  H   -0.005324
   129  H    0.023945
   130  H    0.015756
   131  H    0.016381
   132  H    0.013732
   133  H    0.037531
   134  H    0.020599
   135  H    0.019150
   136  H    0.007996
   137  H    0.028505
   138  H    0.039326
   139  H    0.039838
   140  H    0.036331
   141  H    0.032752
   142  H    0.013772
   143  H    0.010804
   144  H    0.024074
   145  H    0.020025
   146  H    0.003401
   147  H    0.005533
   148  H    0.002417
   149  H    0.011004
   150  H    0.017112
   151  H    0.030415
   152  H    0.045476
   153  H    0.007698
   154  H    0.044548
   155  H    0.035995
   156  H    0.043705
   157  H    0.049278
   158  H    0.053158
 Sum of Mulliken charges =  -0.00000

 Dipole moment (field-independent basis, Debye):
    X=             -3.8679    Y=             -1.6057    Z=              0.0913  Tot=              4.1889
 Quadrupole moment (field-independent basis, Debye-Ang):
   XX=           -530.3806   YY=           -541.0332   ZZ=           -448.8411
   XY=             22.0706   XZ=             57.0390   YZ=            -33.5445

 Normal termination of Gaussian 16 at Fri Sep  3 20:19:11 2021.
