 Gaussian 16, Revision A.03,
 Gaussian 16:  ES64L-G16RevA.03 25-Dec-2016

 -----------------------------------
 #p cam-b3lyp/Def2SVP td=(nstates=5)
 -----------------------------------

 --------------------------------
 TDDFT excited states in gaussian
 --------------------------------
 Symbolic Z-matrix:
 Charge =  0 Multiplicity = 1

                         Standard orientation:
 ---------------------------------------------------------------------
 Center     Atomic      Atomic             Coordinates (Angstroms)
 Number     Number       Type             X           Y           Z
 ---------------------------------------------------------------------
      1         12           0       -4.472344   -0.441257    0.217938
      2          6           0       -4.393525    3.128769    0.464760
      3          6           0       -5.428503   -0.046653   -3.033695
      4          6           0       -4.988264   -3.568144    0.103814
      5          6           0       -4.625527   -0.531084    3.698473
      6          7           0       -4.829706    1.362940   -1.014058
      7          6           0       -4.706392    2.671871   -0.817427
      8          6           0       -4.866782    3.510233   -2.120807
      9          6           0       -5.729863    2.479798   -2.978300
     10          6           0       -5.277289    1.184116   -2.328447
     11          6           0       -7.234396    2.630468   -2.777849
     12          6           0       -3.491651    3.814319   -2.805114
     13          6           0       -3.526930    4.892822   -3.891825
     14          1           0       -2.384002    5.782265   -4.033087
     15          7           0       -4.637034   -1.656911   -1.330582
     16          6           0       -5.023754   -1.322524   -2.585141
     17          6           0       -4.985767   -2.574755   -3.370734
     18          6           0       -4.728887   -3.697012   -2.425935
     19          6           0       -4.801450   -3.013223   -1.160018
     20          6           0       -5.133322   -2.616091   -4.860791
     21          6           0       -4.470987   -5.156334   -2.630869
     22          8           0       -4.503803   -5.994866   -1.666316
     23          6           0       -4.263553   -5.597779   -4.021962
     24          7           0       -4.986800   -1.849550    1.670411
     25          6           0       -5.091083   -3.147884    1.366373
     26          6           0       -5.186509   -3.992185    2.602491
     27          6           0       -4.880158   -3.016595    3.828919
     28          6           0       -4.734271   -1.689549    3.044102
     29          6           0       -6.532619   -4.693163    2.831899
     30          6           0       -3.739801   -3.433546    4.791289
     31          6           0       -2.411019   -3.365596    4.072388
     32          7           0       -4.327736    1.004732    1.830157
     33          6           0       -4.442691    0.749651    3.204345
     34          6           0       -4.384304    2.052669    3.891951
     35          6           0       -4.255254    2.982619    2.862200
     36          6           0       -4.260744    2.305650    1.609214
     37          6           0       -4.507615    2.261361    5.293976
     38          6           0       -4.138769    4.392720    2.527681
     39          8           0       -3.988173    5.428487    3.177296
     40          6           0       -4.346140    4.553879    0.957059
     41          6           0       -3.244668    5.439582    0.441695
     42          8           0       -2.056853    5.057131    0.455606
     43          8           0       -3.781375    6.489191   -0.199248
     44          6           0       -2.741933    7.392654   -0.760914
     45          1           0       -5.956727   -0.046037   -3.989163
     46          1           0       -5.059278   -4.657740    0.117026
     47          1           0       -4.582184   -0.487490    4.788278
     48          1           0       -5.416703    4.443243   -1.996287
     49          1           0       -5.450821    2.493032   -4.031714
     50          1           0       -7.461170    3.336664   -1.979237
     51          1           0       -7.594726    1.634619   -2.519120
     52          1           0       -7.725711    2.892731   -3.715188
     53          1           0       -3.191334    2.955656   -3.405587
     54          1           0       -2.739880    4.077542   -2.060212
     55          1           0       -4.454211    5.465293   -3.855264
     56          1           0       -3.551903    4.398434   -4.862987
     57          1           0       -5.475374   -1.660409   -5.256035
     58          1           0       -5.946165   -3.307771   -5.081189
     59          1           0       -4.221101   -2.951612   -5.354360
     60          1           0       -5.143426   -5.346033   -4.614412
     61          1           0       -4.004728   -6.654567   -3.966659
     62          1           0       -3.433875   -5.035148   -4.450949
     63          1           0       -4.446534   -4.791348    2.588293
     64          1           0       -5.745982   -2.893779    4.480025
     65          1           0       -6.451728   -5.776304    2.926598
     66          1           0       -7.198232   -4.420799    2.013322
     67          1           0       -7.093068   -4.335276    3.695166
     68          1           0       -3.876113   -4.464327    5.116644
     69          1           0       -3.679478   -2.809520    5.683031
     70          1           0       -2.364381   -4.323690    3.555945
     71          1           0       -1.595139   -3.268450    4.789406
     72          1           0       -2.409524   -2.584870    3.311501
     73          1           0       -3.741949    2.989092    5.562548
     74          1           0       -4.380018    1.330240    5.845642
     75          1           0       -5.526082    2.645015    5.352216
     76          1           0       -5.330162    4.999536    0.814892
     77          1           0       -2.933418    8.389061   -0.362493
     78          1           0       -2.773171    7.265879   -1.843207
     79          1           0       -1.720864    7.225849   -0.416050
     80         12           0        4.499302   -1.126759   -0.088032
     81          6           0        4.732653    2.445856    0.158946
     82          6           0        3.401159   -0.684414   -3.286944
     83          6           0        3.854851   -4.231845   -0.190687
     84          6           0        4.504889   -1.228957    3.395529
     85          7           0        4.153768    0.694017   -1.295360
     86          6           0        4.335781    1.993765   -1.116801
     87          6           0        4.155615    2.850527   -2.398626
     88          6           0        3.202572    1.854103   -3.221870
     89          6           0        3.631495    0.530136   -2.592739
     90          6           0        1.724541    2.061948   -2.936330
     91          6           0        5.511934    3.097929   -3.147737
     92          6           0        5.460805    4.177980   -4.230623
     93          1           0        6.636565    5.021040   -4.428880
     94          7           0        4.213071   -2.328317   -1.641392
     95          6           0        3.786083   -1.978531   -2.872898
     96          6           0        3.721029   -3.228299   -3.646196
     97          6           0        3.986268   -4.365275   -2.723345
     98          6           0        4.008279   -3.672278   -1.450806
     99          6           0        3.508475   -3.255732   -5.131966
    100          6           0        4.174577   -5.835126   -2.947543
    101          8           0        4.156973   -6.672004   -1.976900
    102          6           0        4.286810   -6.275965   -4.345601
    103          7           0        4.007102   -2.513916    1.380255
    104          6           0        3.829162   -3.811027    1.074051
    105          6           0        3.756754   -4.660739    2.320303
    106          6           0        4.166833   -3.692240    3.525050
    107          6           0        4.325821   -2.369593    2.743568
    108          6           0        2.396980   -5.293057    2.616249
    109          6           0        5.335883   -4.157851    4.435658
    110          6           0        6.630922   -4.153293    3.655753
    111          7           0        4.783807    0.299880    1.509401
    112          6           0        4.719799    0.049873    2.897745
    113          6           0        4.864840    1.351302    3.581607
    114          6           0        4.981031    2.278358    2.534913
    115          6           0        4.892929    1.604846    1.286667
    116          6           0        4.828733    1.559992    4.989177
    117          6           0        5.147511    3.674859    2.202099
    118          8           0        5.364007    4.701273    2.845014
    119          6           0        4.867292    3.861021    0.648640
    120          6           0        5.976385    4.698823    0.073735
    121          8           0        7.142786    4.268470    0.043108
    122          8           0        5.445299    5.772598   -0.538907
    123          6           0        6.505521    6.628643   -1.134656
    124          1           0        2.834717   -0.650457   -4.218004
    125          1           0        3.740762   -5.318097   -0.167859
    126          1           0        4.615070   -1.188243    4.481290
    127          1           0        3.656450    3.799609   -2.244199
    128          1           0        3.439870    1.866850   -4.282480
    129          1           0        1.564375    2.768346   -2.135404
    130          1           0        1.337571    1.088402   -2.665175
    131          1           0        1.200563    2.350142   -3.852145
    132          1           0        5.743959    2.221865   -3.766959
    133          1           0        6.296599    3.321351   -2.451315
    134          1           0        4.555243    4.792430   -4.157512
    135          1           0        5.375284    3.689391   -5.204273
    136          1           0        3.180114   -2.279461   -5.509425
    137          1           0        2.658315   -3.920031   -5.321141
    138          1           0        4.378277   -3.631493   -5.675022
    139          1           0        3.392660   -5.981631   -4.889959
    140          1           0        4.506024   -7.344418   -4.298400
    141          1           0        5.126890   -5.749408   -4.812102
    142          1           0        4.463808   -5.479762    2.271552
    143          1           0        3.335094   -3.543163    4.229201
    144          1           0        2.438001   -6.395169    2.704302
    145          1           0        1.706968   -4.999319    1.836416
    146          1           0        1.901989   -4.925088    3.513341
    147          1           0        5.174108   -5.187937    4.762630
    148          1           0        5.456350   -3.552023    5.327540
    149          1           0        6.607280   -5.113907    3.132535
    150          1           0        7.483411   -4.091496    4.329157
    151          1           0        6.629649   -3.363674    2.895393
    152          1           0        5.627793    2.251211    5.222044
    153          1           0        4.940476    0.624195    5.532843
    154          1           0        3.825622    1.980853    5.098285
    155          1           0        3.894597    4.343780    0.546764
    156          1           0        6.371225    7.634756   -0.725516
    157          1           0        6.402928    6.512467   -2.229975
    158          1           0        7.532123    6.422140   -0.855576
 ---------------------------------------------------------------------

 SCF Done:  E(RCAM-B3LYP) =  -4069.81130671     A.U. after   19 cycles

 Excitation energies and oscillator strengths:

 Excited State   1:      Singlet-A      1.6474 eV  752.60 nm  f=0.0021  <S**2>=0.000
     309 -> 315       -0.11398
     310 -> 316        0.12162
     311 -> 313       -0.46791
     312 -> 314        0.50401
 This state for optimization and/or second-order correction.
 Total Energy, E(TD-HF/TD-DFT) =  -4069.75076520
 Copying the excited state density for this state as the 1-particle RhoCI density.

 Excited State   2:      Singlet-A      1.7043 eV  727.47 nm  f=0.6965  <S**2>=0.000
     309 -> 315        0.13356
     310 -> 316        0.12283
     311 -> 313        0.50134
     312 -> 314        0.46548

 Excited State   3:      Singlet-A      2.1801 eV  568.71 nm  f=0.0141  <S**2>=0.000
     309 -> 313       -0.31408
     310 -> 314        0.56366
     311 -> 315        0.12962
     312 -> 316       -0.23413

 Excited State   4:      Singlet-A      2.1962 eV  564.53 nm  f=0.1598  <S**2>=0.000
     309 -> 313        0.55863
     310 -> 314        0.30940
     311 -> 315       -0.24650
     312 -> 316       -0.13782

 Excited State   5:      Singlet-A      2.3459 eV  528.51 nm  f=0.0000  <S**2>=0.000
     312 -> 313        0.70709

 The electronic state is 1-A.
 Alpha  occ. eigenvalues --  -46.87910 -46.87435 -19.26394 -19.26105 -19.19137
 Alpha  occ. eigenvalues --  -19.18916 -19.18897 -19.18533 -19.18247 -19.17764
 Alpha  occ. eigenvalues --  -14.42574 -14.42270 -14.41561 -14.41139 -14.39514
 Alpha  occ. eigenvalues --  -14.39133 -14.38694 -14.38362 -10.39195 -10.38836
 Alpha  occ. eigenvalues --  -10.35532 -10.35216 -10.34471 -10.33935 -10.31784
 Alpha  occ. eigenvalues --  -10.31555 -10.31530 -10.31067 -10.31042 -10.30800
 Alpha  occ. eigenvalues --  -10.30683 -10.30607 -10.30319 -10.30165 -10.30125
 Alpha  occ. eigenvalues --  -10.30019 -10.29951 -10.29735 -10.29663 -10.29365
 Alpha  occ. eigenvalues --  -10.29232 -10.29178 -10.28925 -10.28807 -10.28520
 Alpha  occ. eigenvalues --  -10.28478 -10.28476 -10.28276 -10.28168 -10.27898
 Alpha  occ. eigenvalues --  -10.27894 -10.27851 -10.27770 -10.27692 -10.27637
 Alpha  occ. eigenvalues --  -10.27606 -10.27540 -10.27519 -10.27459 -10.27364
 Alpha  occ. eigenvalues --  -10.27352 -10.27260 -10.27254 -10.27244 -10.27190
 Alpha  occ. eigenvalues --  -10.26954 -10.26727 -10.26511 -10.26511 -10.26369
 Alpha  occ. eigenvalues --  -10.26305 -10.26296 -10.26130 -10.25999 -10.25911
 Alpha  occ. eigenvalues --  -10.25725 -10.25701 -10.25590 -10.25511 -10.25209
 Alpha  occ. eigenvalues --  -10.24931 -10.24890 -10.24832 -10.24627 -10.24593
 Alpha  occ. eigenvalues --  -10.24463  -3.16652  -3.16185  -1.91534  -1.91121
 Alpha  occ. eigenvalues --   -1.91067  -1.90963  -1.90656  -1.90493  -1.16744
 Alpha  occ. eigenvalues --   -1.16398  -1.08703  -1.08363  -1.07294  -1.06787
 Alpha  occ. eigenvalues --   -1.06756  -1.06699  -1.04705  -1.04264  -1.03873
 Alpha  occ. eigenvalues --   -1.03439  -1.03342  -1.02817  -1.02520  -1.01883
 Alpha  occ. eigenvalues --   -0.92082  -0.91732  -0.89630  -0.89353  -0.89293
 Alpha  occ. eigenvalues --   -0.88917  -0.88394  -0.88027  -0.87966  -0.87805
 Alpha  occ. eigenvalues --   -0.87551  -0.87470  -0.87389  -0.86945  -0.85138
 Alpha  occ. eigenvalues --   -0.84783  -0.84044  -0.83686  -0.83075  -0.82785
 Alpha  occ. eigenvalues --   -0.82772  -0.82442  -0.81699  -0.81367  -0.80712
 Alpha  occ. eigenvalues --   -0.80223  -0.78910  -0.78437  -0.77350  -0.77073
 Alpha  occ. eigenvalues --   -0.76939  -0.76683  -0.76049  -0.75602  -0.75003
 Alpha  occ. eigenvalues --   -0.74598  -0.72884  -0.72475  -0.71786  -0.71350
 Alpha  occ. eigenvalues --   -0.70023  -0.69584  -0.69017  -0.68614  -0.67752
 Alpha  occ. eigenvalues --   -0.67387  -0.67385  -0.67015  -0.65436  -0.65044
 Alpha  occ. eigenvalues --   -0.64967  -0.64745  -0.64550  -0.64434  -0.64380
 Alpha  occ. eigenvalues --   -0.64005  -0.62406  -0.62051  -0.60552  -0.60150
 Alpha  occ. eigenvalues --   -0.59948  -0.59564  -0.59099  -0.58769  -0.58614
 Alpha  occ. eigenvalues --   -0.58198  -0.57689  -0.57415  -0.57283  -0.57022
 Alpha  occ. eigenvalues --   -0.56420  -0.56102  -0.55990  -0.55666  -0.55631
 Alpha  occ. eigenvalues --   -0.55444  -0.55248  -0.55038  -0.54633  -0.54279
 Alpha  occ. eigenvalues --   -0.54059  -0.53688  -0.53409  -0.53357  -0.53035
 Alpha  occ. eigenvalues --   -0.53025  -0.52931  -0.52888  -0.52690  -0.52556
 Alpha  occ. eigenvalues --   -0.52495  -0.52232  -0.52000  -0.51768  -0.51629
 Alpha  occ. eigenvalues --   -0.51454  -0.51307  -0.50973  -0.50698  -0.50330
 Alpha  occ. eigenvalues --   -0.50151  -0.50039  -0.49779  -0.49678  -0.49644
 Alpha  occ. eigenvalues --   -0.49328  -0.49284  -0.49230  -0.48972  -0.48853
 Alpha  occ. eigenvalues --   -0.48706  -0.48559  -0.48543  -0.48327  -0.48180
 Alpha  occ. eigenvalues --   -0.48137  -0.47820  -0.47410  -0.47394  -0.46932
 Alpha  occ. eigenvalues --   -0.46919  -0.46712  -0.46502  -0.46470  -0.46345
 Alpha  occ. eigenvalues --   -0.46265  -0.46070  -0.45926  -0.45861  -0.45581
 Alpha  occ. eigenvalues --   -0.45306  -0.45002  -0.44683  -0.44641  -0.44287
 Alpha  occ. eigenvalues --   -0.44267  -0.44260  -0.44231  -0.44126  -0.43897
 Alpha  occ. eigenvalues --   -0.43889  -0.43726  -0.43603  -0.43518  -0.43331
 Alpha  occ. eigenvalues --   -0.43165  -0.43138  -0.42807  -0.42769  -0.42705
 Alpha  occ. eigenvalues --   -0.42662  -0.42368  -0.42138  -0.41815  -0.41769
 Alpha  occ. eigenvalues --   -0.41688  -0.41421  -0.41259  -0.41253  -0.41019
 Alpha  occ. eigenvalues --   -0.40941  -0.40760  -0.40685  -0.40542  -0.40501
 Alpha  occ. eigenvalues --   -0.40434  -0.40291  -0.40039  -0.39563  -0.39258
 Alpha  occ. eigenvalues --   -0.38590  -0.38158  -0.37937  -0.37464  -0.37435
 Alpha  occ. eigenvalues --   -0.37411  -0.37064  -0.36981  -0.36825  -0.36544
 Alpha  occ. eigenvalues --   -0.36311  -0.36005  -0.34398  -0.34026  -0.33886
 Alpha  occ. eigenvalues --   -0.33618  -0.33298  -0.32951  -0.31427  -0.31148
 Alpha  occ. eigenvalues --   -0.31091  -0.30743  -0.30107  -0.29664  -0.29553
 Alpha  occ. eigenvalues --   -0.29420  -0.29117  -0.28962  -0.24194  -0.23802
 Alpha  occ. eigenvalues --   -0.21241  -0.20894
 Alpha virt. eigenvalues --   -0.08883  -0.08566  -0.01860  -0.01466  -0.00164
 Alpha virt. eigenvalues --    0.00180   0.02108   0.02455   0.02829   0.03492
 Alpha virt. eigenvalues --    0.04567   0.04937   0.04992   0.05419   0.05952

 Mulliken charges:
               1
     1  Mg   0.838620
     2  C   -0.003348
     3  C   -0.095237
     4  C   -0.045274
     5  C   -0.063782
     6  N   -0.256652
     7  C   -0.052918
     8  C   -0.013783
     9  C   -0.086832
    10  C    0.045925
    11  C    0.104787
    12  C    0.053717
    13  C   -0.071335
    14  H    0.034487
    15  N   -0.433184
    16  C    0.168202
    17  C   -0.177846
    18  C   -0.003789
    19  C    0.148909
    20  C    0.110345
    21  C    0.012998
    22  O   -0.248589
    23  C    0.062575
    24  N   -0.341039
    25  C    0.041074
    26  C   -0.028364
    27  C   -0.024009
    28  C    0.074818
    29  C    0.076041
    30  C    0.035105
    31  C   -0.005383
    32  N   -0.310622
    33  C    0.080610
    34  C   -0.169316
    35  C    0.008798
    36  C    0.083164
    37  C    0.127162
    38  C    0.046588
    39  O   -0.187219
    40  C   -0.005599
    41  C    0.213442
    42  O   -0.257765
    43  O   -0.304725
    44  C    0.157261
    45  H   -0.017813
    46  H   -0.016320
    47  H   -0.041271
    48  H    0.001392
    49  H   -0.004868
    50  H    0.025789
    51  H    0.016783
    52  H    0.016648
    53  H    0.009532
    54  H    0.043445
    55  H    0.019043
    56  H    0.017154
    57  H    0.005380
    58  H    0.027230
    59  H    0.037964
    60  H    0.037124
    61  H    0.036587
    62  H    0.030153
    63  H    0.016999
    64  H    0.009763
    65  H    0.023592
    66  H    0.012619
    67  H    0.004876
    68  H    0.006564
    69  H    0.004744
    70  H    0.009632
    71  H    0.016696
    72  H    0.029834
    73  H    0.048427
    74  H    0.009056
    75  H    0.046275
    76  H    0.035363
    77  H    0.043978
    78  H    0.045464
    79  H    0.054212
    80  Mg   0.837856
    81  C   -0.015764
    82  C   -0.088139
    83  C   -0.045396
    84  C   -0.065032
    85  N   -0.254608
    86  C   -0.048071
    87  C   -0.015167
    88  C   -0.091077
    89  C    0.046187
    90  C    0.113020
    91  C    0.062646
    92  C   -0.077190
    93  H    0.034062
    94  N   -0.423384
    95  C    0.162813
    96  C   -0.175702
    97  C   -0.007988
    98  C    0.151728
    99  C    0.100047
   100  C    0.015305
   101  O   -0.253188
   102  C    0.061484
   103  N   -0.349999
   104  C    0.037249
   105  C   -0.019772
   106  C   -0.034636
   107  C    0.089263
   108  C    0.073424
   109  C    0.034807
   110  C   -0.007542
   111  N   -0.324565
   112  C    0.079284
   113  C   -0.162437
   114  C    0.003883
   115  C    0.096172
   116  C    0.130907
   117  C    0.044204
   118  O   -0.186864
   119  C   -0.000186
   120  C    0.210706
   121  O   -0.251895
   122  O   -0.304816
   123  C    0.152330
   124  H   -0.021527
   125  H   -0.015698
   126  H   -0.040909
   127  H    0.000928
   128  H   -0.006146
   129  H    0.030950
   130  H    0.013525
   131  H    0.012724
   132  H    0.013339
   133  H    0.037598
   134  H    0.020471
   135  H    0.018642
   136  H    0.007531
   137  H    0.023966
   138  H    0.039126
   139  H    0.037173
   140  H    0.036017
   141  H    0.033502
   142  H    0.013979
   143  H    0.011563
   144  H    0.024758
   145  H    0.013170
   146  H    0.004676
   147  H    0.005693
   148  H    0.003325
   149  H    0.010793
   150  H    0.017538
   151  H    0.030410
   152  H    0.045706
   153  H    0.007484
   154  H    0.049500
   155  H    0.040687
   156  H    0.043721
   157  H    0.048679
   158  H    0.053083
 Sum of Mulliken charges =  -0.00000

 Dipole moment (field-independent basis, Debye):
    X=             -4.7711    Y=             -1.6218    Z=             -7.0575  Tot=              8.6719
 Quadrupole moment (field-independent basis, Debye-Ang):
   XX=           -521.5009   YY=           -549.0393   ZZ=           -449.4784
   XY=             -9.4986   XZ=              0.1756   YZ=            -48.5939

 Normal termination of Gaussian 16 at Fri Sep 10 04:52:47 2021.
