 Gaussian 16, Revision A.03,
 Gaussian 16:  ES64L-G16RevA.03 25-Dec-2016

 -----------------------------------
 #p cam-b3lyp/Def2SVP td=(nstates=5)
 -----------------------------------

 --------------------------------
 TDDFT excited states in gaussian
 --------------------------------
 Symbolic Z-matrix:
 Charge =  0 Multiplicity = 1

                         Standard orientation:
 ---------------------------------------------------------------------
 Center     Atomic      Atomic             Coordinates (Angstroms)
 Number     Number       Type             X           Y           Z
 ---------------------------------------------------------------------
      1         12           0       -4.075112   -1.691800    0.213510
      2          6           0       -5.643286    1.511434   -0.090360
      3          6           0       -4.884298   -2.232483   -3.056955
      4          6           0       -3.105463   -4.688566    0.582010
      5          6           0       -4.405275   -1.361503    3.667140
      6          7           0       -5.128909   -0.442254   -1.279404
      7          6           0       -5.627162    0.790170   -1.286254
      8          6           0       -6.062475    1.272716   -2.702244
      9          6           0       -6.303279   -0.146027   -3.388671
     10          6           0       -5.356588   -0.985778   -2.549315
     11          6           0       -7.721773   -0.677041   -3.208667
     12          6           0       -4.932833    2.076747   -3.429688
     13          6           0       -5.380701    2.857336   -4.668820
     14          1           0       -4.759856    4.143260   -4.948641
     15          7           0       -3.564750   -3.047595   -1.129695
     16          6           0       -3.975504   -3.104538   -2.419394
     17          6           0       -3.319970   -4.294268   -3.003771
     18          6           0       -2.645796   -5.031050   -1.898902
     19          6           0       -3.106269   -4.289890   -0.752592
     20          6           0       -3.331716   -4.603565   -4.469359
     21          6           0       -1.740028   -6.221553   -1.878468
     22          8           0       -1.453404   -6.839639   -0.796622
     23          6           0       -1.261370   -6.705345   -3.186090
     24          7           0       -3.990484   -2.963854    1.866493
     25          6           0       -3.472891   -4.193034    1.765518
     26          6           0       -3.257592   -4.807523    3.116809
     27          6           0       -3.511337   -3.641730    4.178078
     28          6           0       -3.931531   -2.518245    3.198543
     29          6           0       -4.150481   -6.009206    3.455509
     30          6           0       -2.373880   -3.351440    5.189187
     31          6           0       -1.175823   -2.780688    4.463929
     32          7           0       -4.712233   -0.134310    1.584404
     33          6           0       -4.791229   -0.221650    2.981832
     34          6           0       -5.377607    1.043407    3.461270
     35          6           0       -5.615864    1.776929    2.300656
     36          6           0       -5.228698    1.007695    1.166340
     37          6           0       -5.676554    1.363070    4.815109
     38          6           0       -6.130291    3.021834    1.753450
     39          8           0       -6.510805    4.089459    2.236025
     40          6           0       -6.281712    2.851682    0.177396
     41          6           0       -5.670749    4.063752   -0.471387
     42          8           0       -4.442797    4.275454   -0.402961
     43          8           0       -6.581012    4.650144   -1.263919
     44          6           0       -6.030095    5.842939   -1.960973
     45          1           0       -5.289338   -2.606115   -3.999443
     46          1           0       -2.674536   -5.675580    0.762406
     47          1           0       -4.460119   -1.153215    4.737215
     48          1           0       -6.983172    1.856160   -2.720447
     49          1           0       -5.990318   -0.151398   -4.432581
     50          1           0       -8.297880   -0.051403   -2.527052
     51          1           0       -7.607005   -1.680809   -2.799068
     52          1           0       -8.214092   -0.801608   -4.173489
     53          1           0       -4.235516    1.378369   -3.892372
     54          1           0       -4.434836    2.755566   -2.736485
     55          1           0       -6.466926    2.938980   -4.717386
     56          1           0       -5.112791    2.278211   -5.552584
     57          1           0       -4.042978   -3.976374   -5.005346
     58          1           0       -3.724753   -5.614184   -4.578352
     59          1           0       -2.335652   -4.547133   -4.908682
     60          1           0       -2.117356   -6.970050   -3.807192
     61          1           0       -0.555177   -7.506312   -2.970235
     62          1           0       -0.750939   -5.889705   -3.699061
     63          1           0       -2.236301   -5.171039    3.222865
     64          1           0       -4.380204   -3.841824    4.805539
     65          1           0       -3.593042   -6.909577    3.714929
     66          1           0       -4.810237   -6.188583    2.607077
     67          1           0       -4.869162   -5.833553    4.255547
     68          1           0       -2.048739   -4.273822    5.669230
     69          1           0       -2.663910   -2.653255    5.974471
     70          1           0       -0.664367   -3.671236    4.100377
     71          1           0       -0.543561   -2.222021    5.154832
     72          1           0       -1.477759   -2.199657    3.592307
     73          1           0       -5.345051    2.390302    4.966334
     74          1           0       -5.177512    0.680508    5.502617
     75          1           0       -6.759484    1.240124    4.817229
     76          1           0       -7.348681    2.771359   -0.028144
     77          1           0       -6.679662    6.684342   -1.719438
     78          1           0       -5.927223    5.568246   -3.010909
     79          1           0       -5.070551    6.212916   -1.598025
     80         12           0        4.229321    1.779457    0.000817
     81          6           0        5.379286   -1.546837   -0.700892
     82          6           0        3.780908    0.782289    3.231788
     83          6           0        2.793033    4.554200    0.553396
     84          6           0        3.687877    2.164689   -3.420324
     85          7           0        4.572275   -0.157180    1.012766
     86          6           0        5.069807   -1.332445    0.658409
     87          6           0        5.320828   -2.307320    1.840004
     88          6           0        4.267859   -1.693784    2.885802
     89          6           0        4.224559   -0.255519    2.373746
     90          6           0        2.875459   -2.288743    2.757032
     91          6           0        6.789468   -2.219874    2.385376
     92          6           0        7.193893   -3.355067    3.328540
     93          1           0        8.569535   -3.842711    3.281045
     94          7           0        3.864048    2.718425    1.710631
     95          6           0        3.735870    2.161874    2.933376
     96          6           0        3.451725    3.273783    3.853738
     97          6           0        3.259453    4.511041    3.049401
     98          6           0        3.277894    3.959764    1.709305
     99          6           0        3.463561    3.117620    5.346682
    100          6           0        3.075050    5.950244    3.424717
    101          8           0        2.687641    6.824399    2.571138
    102          6           0        3.271108    6.288460    4.841996
    103          7           0        3.167692    3.085323   -1.219841
    104          6           0        2.693758    4.248734   -0.740497
    105          6           0        2.209678    5.142210   -1.857529
    106          6           0        2.681773    4.432424   -3.210650
    107          6           0        3.306668    3.149915   -2.618966
    108          6           0        0.701339    5.384282   -1.909568
    109          6           0        3.532367    5.284074   -4.192401
    110          6           0        4.881717    5.583558   -3.580077
    111          7           0        4.647158    0.628598   -1.779355
    112          6           0        4.311844    0.963217   -3.109644
    113          6           0        4.699361   -0.182661   -3.957714
    114          6           0        5.216230   -1.121190   -3.051901
    115          6           0        5.136565   -0.605308   -1.730148
    116          6           0        4.511603   -0.276693   -5.365554
    117          6           0        5.801330   -2.435277   -2.912133
    118          8           0        6.188649   -3.301498   -3.695313
    119          6           0        5.816567   -2.820262   -1.370074
    120          6           0        7.183516   -3.352741   -1.037752
    121          8           0        8.181378   -2.612821   -1.095935
    122          8           0        7.059595   -4.579669   -0.499536
    123          6           0        8.388095   -5.145178   -0.143017
    124          1           0        3.390017    0.512495    4.213264
    125          1           0        2.387755    5.561332    0.675436
    126          1           0        3.641873    2.246249   -4.508391
    127          1           0        5.079296   -3.343083    1.633515
    128          1           0        4.655090   -1.725628    3.900885
    129          1           0        2.794512   -2.943294    1.901958
    130          1           0        2.204043   -1.446399    2.653602
    131          1           0        2.591346   -2.788092    3.687764
    132          1           0        6.865877   -1.367932    3.073182
    133          1           0        7.492417   -2.153232    1.577882
    134          1           0        6.487520   -4.193282    3.291328
    135          1           0        7.125694   -2.992574    4.357105
    136          1           0        3.471111    2.060735    5.640532
    137          1           0        2.503636    3.495177    5.715301
    138          1           0        4.270405    3.679071    5.822542
    139          1           0        2.581170    5.708589    5.450430
    140          1           0        3.184057    7.375282    4.897822
    141          1           0        4.281952    5.985788    5.137302
    142          1           0        2.668345    6.121448   -1.795837
    143          1           0        1.825909    4.111568   -3.822506
    144          1           0        0.429611    6.455986   -1.868535
    145          1           0        0.240521    4.843634   -1.093554
    146          1           0        0.196169    4.965809   -2.778410
    147          1           0        3.051580    6.248987   -4.371099
    148          1           0        3.677651    4.812793   -5.158729
    149          1           0        4.677783    6.451543   -2.945956
    150          1           0        5.608980    5.821984   -4.353565
    151          1           0        5.207075    4.766460   -2.925751
    152          1           0        5.423667   -0.690895   -5.774309
    153          1           0        4.284150    0.693634   -5.802008
    154          1           0        3.654798   -0.954728   -5.403192
    155          1           0        5.036849   -3.566107   -1.210908
    156          1           0        8.471077   -6.110853   -0.651222
    157          1           0        8.422357   -5.153263    0.962660
    158          1           0        9.267285   -4.633368   -0.516541
 ---------------------------------------------------------------------

 SCF Done:  E(RCAM-B3LYP) =  -4069.81176789     A.U. after   19 cycles

 Excitation energies and oscillator strengths:

 Excited State   1:      Singlet-A      1.6487 eV  752.02 nm  f=0.0141  <S**2>=0.000
     309 -> 315        0.11133
     310 -> 316        0.12501
     311 -> 313        0.45744
     312 -> 314        0.51347
 This state for optimization and/or second-order correction.
 Total Energy, E(TD-HF/TD-DFT) =  -4069.75118000
 Copying the excited state density for this state as the 1-particle RhoCI density.

 Excited State   2:      Singlet-A      1.7036 eV  727.78 nm  f=0.6821  <S**2>=0.000
     309 -> 315        0.13564
     310 -> 316       -0.12050
     311 -> 313        0.51085
     312 -> 314       -0.45510

 Excited State   3:      Singlet-A      2.1813 eV  568.39 nm  f=0.0177  <S**2>=0.000
     309 -> 313        0.31304
     310 -> 314        0.56442
     311 -> 315       -0.12934
     312 -> 316       -0.23440

 Excited State   4:      Singlet-A      2.1975 eV  564.21 nm  f=0.1568  <S**2>=0.000
     309 -> 313        0.55898
     310 -> 314       -0.30862
     311 -> 315       -0.24692
     312 -> 316        0.13760

 Excited State   5:      Singlet-A      2.3507 eV  527.45 nm  f=0.0000  <S**2>=0.000
     312 -> 313        0.70709

 The electronic state is 1-A.
 Alpha  occ. eigenvalues --  -46.87904 -46.87437 -19.26353 -19.26194 -19.19091
 Alpha  occ. eigenvalues --  -19.19003 -19.18859 -19.18450 -19.18244 -19.17882
 Alpha  occ. eigenvalues --  -14.42556 -14.42276 -14.41574 -14.41123 -14.39502
 Alpha  occ. eigenvalues --  -14.39124 -14.38692 -14.38390 -10.39153 -10.38929
 Alpha  occ. eigenvalues --  -10.35485 -10.35125 -10.34466 -10.34060 -10.31744
 Alpha  occ. eigenvalues --  -10.31620 -10.31512 -10.31117 -10.31000 -10.30791
 Alpha  occ. eigenvalues --  -10.30675 -10.30617 -10.30337 -10.30178 -10.30172
 Alpha  occ. eigenvalues --  -10.30059 -10.29890 -10.29725 -10.29649 -10.29351
 Alpha  occ. eigenvalues --  -10.29202 -10.29200 -10.28847 -10.28658 -10.28513
 Alpha  occ. eigenvalues --  -10.28503 -10.28454 -10.28211 -10.28184 -10.27938
 Alpha  occ. eigenvalues --  -10.27884 -10.27830 -10.27795 -10.27715 -10.27667
 Alpha  occ. eigenvalues --  -10.27643 -10.27510 -10.27505 -10.27457 -10.27266
 Alpha  occ. eigenvalues --  -10.27262 -10.27258 -10.27252 -10.27239 -10.27038
 Alpha  occ. eigenvalues --  -10.26864 -10.26820 -10.26518 -10.26508 -10.26360
 Alpha  occ. eigenvalues --  -10.26316 -10.26155 -10.26153 -10.25966 -10.25947
 Alpha  occ. eigenvalues --  -10.25787 -10.25770 -10.25723 -10.25600 -10.25121
 Alpha  occ. eigenvalues --  -10.24923 -10.24905 -10.24858 -10.24674 -10.24554
 Alpha  occ. eigenvalues --  -10.24431  -3.16647  -3.16187  -1.91529  -1.91116
 Alpha  occ. eigenvalues --   -1.91069  -1.90957  -1.90658  -1.90495  -1.16702
 Alpha  occ. eigenvalues --   -1.16487  -1.08701  -1.08497  -1.07259  -1.06789
 Alpha  occ. eigenvalues --   -1.06713  -1.06694  -1.04684  -1.04277  -1.03879
 Alpha  occ. eigenvalues --   -1.03436  -1.03340  -1.02809  -1.02521  -1.01886
 Alpha  occ. eigenvalues --   -0.92069  -0.91780  -0.89705  -0.89290  -0.89268
 Alpha  occ. eigenvalues --   -0.88947  -0.88463  -0.87975  -0.87955  -0.87783
 Alpha  occ. eigenvalues --   -0.87627  -0.87464  -0.87331  -0.86897  -0.85086
 Alpha  occ. eigenvalues --   -0.84790  -0.84144  -0.83608  -0.83040  -0.82731
 Alpha  occ. eigenvalues --   -0.82681  -0.82436  -0.81682  -0.81415  -0.80690
 Alpha  occ. eigenvalues --   -0.80239  -0.78875  -0.78430  -0.77356  -0.77056
 Alpha  occ. eigenvalues --   -0.76940  -0.76679  -0.76021  -0.75640  -0.75051
 Alpha  occ. eigenvalues --   -0.74497  -0.72891  -0.72493  -0.71785  -0.71326
 Alpha  occ. eigenvalues --   -0.70153  -0.69515  -0.68972  -0.68620  -0.67737
 Alpha  occ. eigenvalues --   -0.67382  -0.67307  -0.66997  -0.65397  -0.65071
 Alpha  occ. eigenvalues --   -0.64971  -0.64747  -0.64561  -0.64448  -0.64430
 Alpha  occ. eigenvalues --   -0.63963  -0.62397  -0.62090  -0.60531  -0.60100
 Alpha  occ. eigenvalues --   -0.59902  -0.59593  -0.59105  -0.58768  -0.58614
 Alpha  occ. eigenvalues --   -0.58209  -0.57674  -0.57430  -0.57377  -0.57002
 Alpha  occ. eigenvalues --   -0.56401  -0.56064  -0.56013  -0.55702  -0.55605
 Alpha  occ. eigenvalues --   -0.55496  -0.55247  -0.55015  -0.54667  -0.54260
 Alpha  occ. eigenvalues --   -0.53995  -0.53708  -0.53412  -0.53292  -0.53037
 Alpha  occ. eigenvalues --   -0.53015  -0.52933  -0.52821  -0.52702  -0.52674
 Alpha  occ. eigenvalues --   -0.52439  -0.52194  -0.52025  -0.51757  -0.51697
 Alpha  occ. eigenvalues --   -0.51457  -0.51321  -0.51011  -0.50616  -0.50240
 Alpha  occ. eigenvalues --   -0.50212  -0.49986  -0.49755  -0.49591  -0.49583
 Alpha  occ. eigenvalues --   -0.49299  -0.49270  -0.49190  -0.49005  -0.48903
 Alpha  occ. eigenvalues --   -0.48701  -0.48591  -0.48502  -0.48366  -0.48125
 Alpha  occ. eigenvalues --   -0.48078  -0.47799  -0.47390  -0.47376  -0.46938
 Alpha  occ. eigenvalues --   -0.46875  -0.46652  -0.46497  -0.46477  -0.46341
 Alpha  occ. eigenvalues --   -0.46285  -0.46057  -0.45927  -0.45856  -0.45639
 Alpha  occ. eigenvalues --   -0.45363  -0.44876  -0.44693  -0.44605  -0.44321
 Alpha  occ. eigenvalues --   -0.44298  -0.44264  -0.44182  -0.44088  -0.43921
 Alpha  occ. eigenvalues --   -0.43851  -0.43728  -0.43600  -0.43504  -0.43367
 Alpha  occ. eigenvalues --   -0.43161  -0.43148  -0.42893  -0.42764  -0.42751
 Alpha  occ. eigenvalues --   -0.42685  -0.42310  -0.42183  -0.41811  -0.41754
 Alpha  occ. eigenvalues --   -0.41646  -0.41459  -0.41255  -0.41245  -0.41021
 Alpha  occ. eigenvalues --   -0.40879  -0.40750  -0.40733  -0.40509  -0.40465
 Alpha  occ. eigenvalues --   -0.40335  -0.40236  -0.40023  -0.39707  -0.39194
 Alpha  occ. eigenvalues --   -0.38644  -0.38079  -0.37861  -0.37481  -0.37455
 Alpha  occ. eigenvalues --   -0.37364  -0.37035  -0.36991  -0.36821  -0.36585
 Alpha  occ. eigenvalues --   -0.36315  -0.35977  -0.34396  -0.34035  -0.33847
 Alpha  occ. eigenvalues --   -0.33691  -0.33293  -0.32956  -0.31394  -0.31141
 Alpha  occ. eigenvalues --   -0.31007  -0.30742  -0.30105  -0.29790  -0.29531
 Alpha  occ. eigenvalues --   -0.29414  -0.29110  -0.29013  -0.24190  -0.23813
 Alpha  occ. eigenvalues --   -0.21237  -0.20895
 Alpha virt. eigenvalues --   -0.08870  -0.08574  -0.01861  -0.01446  -0.00126
 Alpha virt. eigenvalues --    0.00200   0.02103   0.02391   0.02826   0.03495
 Alpha virt. eigenvalues --    0.04603   0.04937   0.05021   0.05331   0.06053

 Mulliken charges:
               1
     1  Mg   0.838724
     2  C   -0.002737
     3  C   -0.093740
     4  C   -0.046312
     5  C   -0.064525
     6  N   -0.256641
     7  C   -0.052675
     8  C   -0.013944
     9  C   -0.087071
    10  C    0.046286
    11  C    0.104722
    12  C    0.053452
    13  C   -0.071615
    14  H    0.035137
    15  N   -0.433281
    16  C    0.168616
    17  C   -0.176495
    18  C   -0.003461
    19  C    0.148742
    20  C    0.110012
    21  C    0.012515
    22  O   -0.250113
    23  C    0.062170
    24  N   -0.340884
    25  C    0.041191
    26  C   -0.028413
    27  C   -0.023861
    28  C    0.074109
    29  C    0.076098
    30  C    0.036210
    31  C   -0.007614
    32  N   -0.310443
    33  C    0.080070
    34  C   -0.170137
    35  C    0.008677
    36  C    0.082952
    37  C    0.127356
    38  C    0.046413
    39  O   -0.188000
    40  C   -0.005497
    41  C    0.213101
    42  O   -0.256970
    43  O   -0.304790
    44  C    0.157431
    45  H   -0.017103
    46  H   -0.017032
    47  H   -0.042371
    48  H    0.001178
    49  H   -0.003852
    50  H    0.025604
    51  H    0.016546
    52  H    0.016992
    53  H    0.011067
    54  H    0.043662
    55  H    0.018381
    56  H    0.018088
    57  H    0.005865
    58  H    0.027287
    59  H    0.040973
    60  H    0.037253
    61  H    0.036913
    62  H    0.033311
    63  H    0.015612
    64  H    0.009847
    65  H    0.023153
    66  H    0.013275
    67  H    0.004868
    68  H    0.005883
    69  H    0.004340
    70  H    0.009753
    71  H    0.014512
    72  H    0.031130
    73  H    0.047545
    74  H    0.008046
    75  H    0.046227
    76  H    0.035313
    77  H    0.043409
    78  H    0.046039
    79  H    0.054002
    80  Mg   0.837641
    81  C   -0.017106
    82  C   -0.087910
    83  C   -0.043114
    84  C   -0.065252
    85  N   -0.254736
    86  C   -0.050066
    87  C   -0.015113
    88  C   -0.091468
    89  C    0.046095
    90  C    0.113232
    91  C    0.062647
    92  C   -0.077635
    93  H    0.034167
    94  N   -0.423982
    95  C    0.163761
    96  C   -0.173851
    97  C   -0.006203
    98  C    0.152242
    99  C    0.099090
   100  C    0.016587
   101  O   -0.251692
   102  C    0.061103
   103  N   -0.350049
   104  C    0.038679
   105  C   -0.020616
   106  C   -0.033772
   107  C    0.088694
   108  C    0.072064
   109  C    0.034834
   110  C   -0.007453
   111  N   -0.323771
   112  C    0.078086
   113  C   -0.164329
   114  C    0.001592
   115  C    0.095903
   116  C    0.131785
   117  C    0.041311
   118  O   -0.189555
   119  C    0.001142
   120  C    0.210946
   121  O   -0.251361
   122  O   -0.305302
   123  C    0.152297
   124  H   -0.020273
   125  H   -0.013646
   126  H   -0.041890
   127  H   -0.000084
   128  H   -0.005276
   129  H    0.024269
   130  H    0.015288
   131  H    0.016433
   132  H    0.013624
   133  H    0.037437
   134  H    0.021039
   135  H    0.019120
   136  H    0.007885
   137  H    0.027163
   138  H    0.039447
   139  H    0.038925
   140  H    0.036538
   141  H    0.032918
   142  H    0.013550
   143  H    0.011254
   144  H    0.024360
   145  H    0.021503
   146  H    0.004813
   147  H    0.005784
   148  H    0.002248
   149  H    0.011087
   150  H    0.016963
   151  H    0.030138
   152  H    0.045385
   153  H    0.007953
   154  H    0.044395
   155  H    0.035403
   156  H    0.043557
   157  H    0.049511
   158  H    0.053134
 Sum of Mulliken charges =  -0.00000

 Dipole moment (field-independent basis, Debye):
    X=             -3.5444    Y=             -2.4571    Z=              0.3886  Tot=              4.3303
 Quadrupole moment (field-independent basis, Debye-Ang):
   XX=           -529.7529   YY=           -539.6664   ZZ=           -450.8965
   XY=             20.9489   XZ=             55.9693   YZ=            -32.5318

 Normal termination of Gaussian 16 at Fri Sep  3 20:40:05 2021.
