 Gaussian 16, Revision A.03,
 Gaussian 16:  ES64L-G16RevA.03 25-Dec-2016

 -----------------------------------
 #p cam-b3lyp/Def2SVP td=(nstates=5)
 -----------------------------------

 --------------------------------
 TDDFT excited states in gaussian
 --------------------------------
 Symbolic Z-matrix:
 Charge =  0 Multiplicity = 1

                         Standard orientation:
 ---------------------------------------------------------------------
 Center     Atomic      Atomic             Coordinates (Angstroms)
 Number     Number       Type             X           Y           Z
 ---------------------------------------------------------------------
      1         12           0       -5.205084   -0.763916   -0.160206
      2          6           0       -5.551389    1.902366    2.202680
      3          6           0       -6.046796    1.479083   -2.589926
      4          6           0       -5.349945   -3.189861   -2.197465
      5          6           0       -5.510034   -2.976782    2.514844
      6          7           0       -5.710510    1.389834   -0.079271
      7          6           0       -5.748785    2.308321    0.880984
      8          6           0       -5.943717    3.757281    0.342569
      9          6           0       -6.640617    3.416600   -1.050365
     10          6           0       -6.072220    2.026124   -1.272682
     11          6           0       -8.160218    3.317915   -0.963327
     12          6           0       -4.582395    4.502551    0.134946
     13          6           0       -4.691139    6.015814   -0.073768
     14          1           0       -3.653396    6.874931    0.476101
     15          7           0       -5.155201   -0.783236   -2.135044
     16          6           0       -5.518692    0.224542   -2.964228
     17          6           0       -5.299293   -0.278288   -4.337438
     18          6           0       -4.958961   -1.725145   -4.243253
     19          6           0       -5.169460   -1.966609   -2.838703
     20          6           0       -5.370979    0.592806   -5.553912
     21          6           0       -4.524668   -2.733063   -5.259926
     22          8           0       -4.505509   -3.986707   -5.009761
     23          6           0       -4.202508   -2.215504   -6.602084
     24          7           0       -5.620798   -2.795649    0.078283
     25          6           0       -5.559826   -3.638783   -0.958246
     26          6           0       -5.614865   -5.067292   -0.504075
     27          6           0       -5.481312   -5.030855    1.086707
     28          6           0       -5.453222   -3.495362    1.286057
     29          6           0       -6.880136   -5.844710   -0.892305
     30          6           0       -4.346815   -5.877287    1.716698
     31          6           0       -3.002544   -5.299769    1.333937
     32          7           0       -5.304524   -0.603423    2.002062
     33          6           0       -5.453572   -1.653551    2.919498
     34          6           0       -5.578625   -1.044617    4.256520
     35          6           0       -5.509816    0.327043    4.020598
     36          6           0       -5.378155    0.561051    2.621957
     37          6           0       -5.790913   -1.746954    5.475573
     38          6           0       -5.541640    1.650232    4.622276
     39          8           0       -5.542512    2.077692    5.777599
     40          6           0       -5.692314    2.726457    3.458290
     41          6           0       -4.677713    3.809228    3.706285
     42          8           0       -3.455605    3.574066    3.613995
     43          8           0       -5.301543    4.995094    3.777699
     44          6           0       -4.348367    6.116326    3.993218
     45          1           0       -6.526116    2.031766   -3.400318
     46          1           0       -5.294997   -4.060830   -2.853843
     47          1           0       -5.523221   -3.607420    3.405672
     48          1           0       -6.603096    4.381470    0.945919
     49          1           0       -6.315848    4.089976   -1.843341
     50          1           0       -8.504383    3.370721    0.069476
     51          1           0       -8.414690    2.352192   -1.400496
     52          1           0       -8.634033    4.067941   -1.597155
     53          1           0       -4.156927    4.212853   -0.825842
     54          1           0       -3.901910    4.300790    0.962931
     55          1           0       -5.679097    6.386133    0.201388
     56          1           0       -4.613154    6.219770   -1.141720
     57          1           0       -5.802343    1.566374   -5.324487
     58          1           0       -6.087118    0.131825   -6.233875
     59          1           0       -4.403920    0.688218   -6.047900
     60          1           0       -5.076811   -1.709496   -7.012082
     61          1           0       -3.826070   -3.065681   -7.169838
     62          1           0       -3.424261   -1.457263   -6.510693
     63          1           0       -4.787577   -5.641680   -0.918925
     64          1           0       -6.385129   -5.387445    1.581311
     65          1           0       -6.679042   -6.750970   -1.464108
     66          1           0       -7.533627   -5.170445   -1.445124
     67          1           0       -7.518113   -6.126897   -0.055184
     68          1           0       -4.378107   -6.897269    1.335118
     69          1           0       -4.400994   -5.928229    2.804228
     70          1           0       -2.821216   -5.735230    0.351936
     71          1           0       -2.237934   -5.611255    2.046369
     72          1           0       -3.055652   -4.218416    1.206103
     73          1           0       -5.128012   -1.290051    6.210263
     74          1           0       -5.582508   -2.810491    5.361286
     75          1           0       -6.848522   -1.544406    5.643776
     76          1           0       -6.713514    3.102806    3.509609
     77          1           0       -4.672302    6.645177    4.889665
     78          1           0       -4.313901    6.677590    3.059302
     79          1           0       -3.332176    5.837804    4.274499
     80         12           0        5.362919   -0.516411    0.216059
     81          6           0        4.895593    1.970221   -2.329010
     82          6           0        6.733942    1.935794    2.150380
     83          6           0        6.197210   -2.761803    2.296824
     84          6           0        5.030102   -2.929852   -2.275980
     85          7           0        5.713814    1.636136   -0.152322
     86          6           0        5.438814    2.483244   -1.132692
     87          6           0        5.689689    3.974725   -0.783289
     88          6           0        6.774520    3.769340    0.382829
     89          6           0        6.366634    2.374704    0.853253
     90          6           0        8.203520    3.701575   -0.129712
     91          6           0        4.398989    4.688479   -0.247872
     92          6           0        4.489376    6.214566   -0.179758
     93          1           0        3.290080    6.996391   -0.467675
     94          7           0        5.867211   -0.370242    2.129928
     95          6           0        6.388585    0.706736    2.754087
     96          6           0        6.601326    0.298180    4.151224
     97          6           0        6.316879   -1.158327    4.262530
     98          6           0        6.132157   -1.498317    2.865976
     99          6           0        6.956312    1.270612    5.238324
    100          6           0        6.238365   -2.093315    5.431224
    101          8           0        6.212608   -3.365271    5.275379
    102          6           0        6.286759   -1.479494    6.766268
    103          7           0        5.793746   -2.539816    0.009844
    104          6           0        6.076768   -3.299229    1.082745
    105          6           0        6.079849   -4.766773    0.726810
    106          6           0        5.499679   -4.849172   -0.761207
    107          6           0        5.338052   -3.341276   -1.053655
    108          6           0        7.440160   -5.461725    0.781597
    109          6           0        4.278541   -5.781488   -0.989842
    110          6           0        3.066090   -5.228291   -0.276171
    111          7           0        4.842781   -0.525379   -1.880948
    112          6           0        4.788369   -1.643675   -2.741494
    113          6           0        4.501647   -1.135190   -4.098576
    114          6           0        4.431383    0.256647   -3.936219
    115          6           0        4.678295    0.593416   -2.577867
    116          6           0        4.390463   -1.925897   -5.276939
    117          6           0        4.214999    1.518321   -4.607076
    118          8           0        3.877505    1.851930   -5.742206
    119          6           0        4.631032    2.693086   -3.620553
    120          6           0        3.534331    3.722423   -3.635427
    121          8           0        2.403793    3.447852   -3.195986
    122          8           0        4.056999    4.918484   -3.961958
    123          6           0        3.009759    5.974330   -3.979138
    124          1           0        7.383861    2.574239    2.749449
    125          1           0        6.372792   -3.584453    2.993880
    126          1           0        4.814322   -3.626091   -3.089217
    127          1           0        6.114630    4.564268   -1.586807
    128          1           0        6.639464    4.495399    1.180301
    129          1           0        8.244148    3.684308   -1.208695
    130          1           0        8.619808    2.790231    0.279199
    131          1           0        8.794707    4.519073    0.292823
    132          1           0        4.279635    4.459538    0.818941
    133          1           0        3.539431    4.402685   -0.822423
    134          1           0        5.345755    6.602389   -0.744696
    135          1           0        4.696491    6.504160    0.853324
    136          1           0        7.260818    2.240725    4.826552
    137          1           0        7.858559    0.887925    5.727558
    138          1           0        6.166282    1.374336    5.985155
    139          1           0        7.209864   -0.914287    6.870634
    140          1           0        6.127774   -2.298505    7.470415
    141          1           0        5.465437   -0.759053    6.850070
    142          1           0        5.430512   -5.326599    1.388672
    143          1           0        6.249916   -5.228218   -1.470645
    144          1           0        7.456311   -6.336733    1.458477
    145          1           0        8.182987   -4.734772    1.082068
    146          1           0        7.824343   -5.801167   -0.178807
    147          1           0        4.469066   -6.767595   -0.559215
    148          1           0        4.037573   -5.928600   -2.037354
    149          1           0        3.196596   -5.589543    0.748309
    150          1           0        2.150911   -5.617021   -0.718184
    151          1           0        3.093276   -4.132860   -0.245402
    152          1           0        3.533220   -1.553617   -5.821948
    153          1           0        4.282907   -2.981979   -5.038397
    154          1           0        5.351812   -1.707689   -5.749659
    155          1           0        5.578672    3.099378   -3.976197
    156          1           0        3.044394    6.442629   -4.967665
    157          1           0        3.223398    6.621211   -3.107543
    158          1           0        1.975217    5.654944   -3.932550
 ---------------------------------------------------------------------

 SCF Done:  E(RCAM-B3LYP) =  -4069.81213710     A.U. after   19 cycles

 Excitation energies and oscillator strengths:

 Excited State   1:      Singlet-A      1.6581 eV  747.76 nm  f=0.0239  <S**2>=0.000
     309 -> 315        0.12779
     310 -> 316        0.11124
     311 -> 313        0.51875
     312 -> 314        0.45059
 This state for optimization and/or second-order correction.
 Total Energy, E(TD-HF/TD-DFT) =  -4069.75120360
 Copying the excited state density for this state as the 1-particle RhoCI density.

 Excited State   2:      Singlet-A      1.6963 eV  730.92 nm  f=0.7032  <S**2>=0.000
     309 -> 315       -0.11737
     310 -> 316        0.13557
     311 -> 313       -0.44904
     312 -> 314        0.51693

 Excited State   3:      Singlet-A      2.1840 eV  567.69 nm  f=0.0249  <S**2>=0.000
     309 -> 313        0.58533
     310 -> 314       -0.26804
     311 -> 315       -0.24650
     312 -> 316        0.11199

 Excited State   4:      Singlet-A      2.1949 eV  564.87 nm  f=0.1573  <S**2>=0.000
     309 -> 313        0.26538
     310 -> 314        0.58198
     311 -> 315       -0.11679
     312 -> 316       -0.25466

 Excited State   5:      Singlet-A      2.5404 eV  488.05 nm  f=0.0000  <S**2>=0.000
     312 -> 313        0.70705

 The electronic state is 1-A.
 Alpha  occ. eigenvalues --  -46.87541 -46.87518 -19.26365 -19.26124 -19.19157
 Alpha  occ. eigenvalues --  -19.18838 -19.18581 -19.18526 -19.18003 -19.17946
 Alpha  occ. eigenvalues --  -14.42381 -14.42176 -14.41249 -14.41187 -14.39231
 Alpha  occ. eigenvalues --  -14.39118 -14.38491 -14.38320 -10.39081 -10.38894
 Alpha  occ. eigenvalues --  -10.35256 -10.35155 -10.34181 -10.34168 -10.31814
 Alpha  occ. eigenvalues --  -10.31561 -10.31209 -10.31147 -10.30908 -10.30629
 Alpha  occ. eigenvalues --  -10.30305 -10.30290 -10.30258 -10.30247 -10.30019
 Alpha  occ. eigenvalues --  -10.29938 -10.29796 -10.29682 -10.29363 -10.29315
 Alpha  occ. eigenvalues --  -10.29292 -10.28972 -10.28617 -10.28568 -10.28487
 Alpha  occ. eigenvalues --  -10.28305 -10.28297 -10.28091 -10.28041 -10.27899
 Alpha  occ. eigenvalues --  -10.27860 -10.27555 -10.27526 -10.27454 -10.27411
 Alpha  occ. eigenvalues --  -10.27380 -10.27350 -10.27314 -10.27302 -10.27284
 Alpha  occ. eigenvalues --  -10.27278 -10.27242 -10.27143 -10.27127 -10.27001
 Alpha  occ. eigenvalues --  -10.26941 -10.26569 -10.26409 -10.26247 -10.26059
 Alpha  occ. eigenvalues --  -10.26022 -10.26009 -10.25989 -10.25945 -10.25822
 Alpha  occ. eigenvalues --  -10.25786 -10.25760 -10.25633 -10.25314 -10.25250
 Alpha  occ. eigenvalues --  -10.24777 -10.24601 -10.24584 -10.24574 -10.24531
 Alpha  occ. eigenvalues --  -10.24490  -3.16290  -3.16260  -1.91172  -1.91141
 Alpha  occ. eigenvalues --   -1.90761  -1.90728  -1.90598  -1.90570  -1.16654
 Alpha  occ. eigenvalues --   -1.16467  -1.08620  -1.08412  -1.06943  -1.06928
 Alpha  occ. eigenvalues --   -1.06833  -1.06462  -1.04383  -1.04309  -1.03550
 Alpha  occ. eigenvalues --   -1.03497  -1.02964  -1.02928  -1.02146  -1.02003
 Alpha  occ. eigenvalues --   -0.91898  -0.91722  -0.89388  -0.89283  -0.89049
 Alpha  occ. eigenvalues --   -0.88928  -0.88115  -0.88056  -0.87703  -0.87623
 Alpha  occ. eigenvalues --   -0.87574  -0.87405  -0.86988  -0.86969  -0.84896
 Alpha  occ. eigenvalues --   -0.84722  -0.83778  -0.83720  -0.82802  -0.82678
 Alpha  occ. eigenvalues --   -0.82549  -0.82389  -0.81546  -0.81374  -0.80360
 Alpha  occ. eigenvalues --   -0.80349  -0.78519  -0.78512  -0.77040  -0.76969
 Alpha  occ. eigenvalues --   -0.76821  -0.76706  -0.75762  -0.75690  -0.74713
 Alpha  occ. eigenvalues --   -0.74676  -0.72597  -0.72519  -0.71488  -0.71430
 Alpha  occ. eigenvalues --   -0.69690  -0.69648  -0.68727  -0.68615  -0.67503
 Alpha  occ. eigenvalues --   -0.67384  -0.67084  -0.66943  -0.65178  -0.65032
 Alpha  occ. eigenvalues --   -0.64681  -0.64614  -0.64569  -0.64384  -0.64103
 Alpha  occ. eigenvalues --   -0.64032  -0.62235  -0.62096  -0.60219  -0.60161
 Alpha  occ. eigenvalues --   -0.59693  -0.59542  -0.58897  -0.58740  -0.58338
 Alpha  occ. eigenvalues --   -0.58257  -0.57505  -0.57366  -0.57137  -0.57067
 Alpha  occ. eigenvalues --   -0.56112  -0.56055  -0.55838  -0.55776  -0.55361
 Alpha  occ. eigenvalues --   -0.55252  -0.55170  -0.55129  -0.54422  -0.54321
 Alpha  occ. eigenvalues --   -0.53811  -0.53635  -0.53127  -0.53052  -0.53045
 Alpha  occ. eigenvalues --   -0.52952  -0.52820  -0.52682  -0.52536  -0.52459
 Alpha  occ. eigenvalues --   -0.52291  -0.52224  -0.51813  -0.51687  -0.51551
 Alpha  occ. eigenvalues --   -0.51345  -0.51123  -0.50963  -0.50332  -0.50248
 Alpha  occ. eigenvalues --   -0.49867  -0.49792  -0.49759  -0.49637  -0.49378
 Alpha  occ. eigenvalues --   -0.49251  -0.49112  -0.49024  -0.48962  -0.48856
 Alpha  occ. eigenvalues --   -0.48488  -0.48369  -0.48298  -0.48241  -0.48221
 Alpha  occ. eigenvalues --   -0.48169  -0.47497  -0.47440  -0.47038  -0.47015
 Alpha  occ. eigenvalues --   -0.46610  -0.46552  -0.46453  -0.46301  -0.46173
 Alpha  occ. eigenvalues --   -0.46106  -0.46004  -0.45935  -0.45764  -0.45610
 Alpha  occ. eigenvalues --   -0.45113  -0.44975  -0.44442  -0.44373  -0.44354
 Alpha  occ. eigenvalues --   -0.44238  -0.44046  -0.43978  -0.43899  -0.43850
 Alpha  occ. eigenvalues --   -0.43831  -0.43757  -0.43509  -0.43294  -0.43283
 Alpha  occ. eigenvalues --   -0.43134  -0.42899  -0.42820  -0.42786  -0.42510
 Alpha  occ. eigenvalues --   -0.42442  -0.42439  -0.41861  -0.41780  -0.41588
 Alpha  occ. eigenvalues --   -0.41462  -0.41357  -0.41283  -0.40896  -0.40895
 Alpha  occ. eigenvalues --   -0.40623  -0.40611  -0.40576  -0.40531  -0.40393
 Alpha  occ. eigenvalues --   -0.40344  -0.40108  -0.39954  -0.39312  -0.39226
 Alpha  occ. eigenvalues --   -0.38246  -0.38238  -0.37554  -0.37492  -0.37162
 Alpha  occ. eigenvalues --   -0.37095  -0.37078  -0.36999  -0.36749  -0.36520
 Alpha  occ. eigenvalues --   -0.36133  -0.35970  -0.34151  -0.34025  -0.33839
 Alpha  occ. eigenvalues --   -0.33572  -0.33070  -0.32926  -0.31143  -0.31060
 Alpha  occ. eigenvalues --   -0.30867  -0.30776  -0.29911  -0.29810  -0.29212
 Alpha  occ. eigenvalues --   -0.29168  -0.29111  -0.29056  -0.23927  -0.23815
 Alpha  occ. eigenvalues --   -0.21006  -0.20860
 Alpha virt. eigenvalues --   -0.08682  -0.08502  -0.01569  -0.01481   0.00089
 Alpha virt. eigenvalues --    0.00225   0.02289   0.02442   0.03356   0.03545
 Alpha virt. eigenvalues --    0.04833   0.04974   0.05182   0.05291   0.06263

 Mulliken charges:
               1
     1  Mg   0.840631
     2  C   -0.002680
     3  C   -0.092662
     4  C   -0.046158
     5  C   -0.064251
     6  N   -0.256774
     7  C   -0.052287
     8  C   -0.014356
     9  C   -0.087366
    10  C    0.047114
    11  C    0.104920
    12  C    0.053104
    13  C   -0.071104
    14  H    0.034446
    15  N   -0.433229
    16  C    0.169712
    17  C   -0.175625
    18  C   -0.003341
    19  C    0.149201
    20  C    0.109992
    21  C    0.012834
    22  O   -0.250679
    23  C    0.061678
    24  N   -0.341173
    25  C    0.041431
    26  C   -0.028039
    27  C   -0.023748
    28  C    0.074620
    29  C    0.076377
    30  C    0.035291
    31  C   -0.004478
    32  N   -0.310229
    33  C    0.080077
    34  C   -0.170269
    35  C    0.007837
    36  C    0.082865
    37  C    0.127464
    38  C    0.045623
    39  O   -0.189880
    40  C   -0.005304
    41  C    0.212607
    42  O   -0.256993
    43  O   -0.304782
    44  C    0.158219
    45  H   -0.017759
    46  H   -0.017388
    47  H   -0.042179
    48  H    0.000086
    49  H   -0.003604
    50  H    0.025042
    51  H    0.016301
    52  H    0.016241
    53  H    0.014222
    54  H    0.044306
    55  H    0.016941
    56  H    0.018285
    57  H    0.005792
    58  H    0.026010
    59  H    0.043000
    60  H    0.036858
    61  H    0.034972
    62  H    0.034864
    63  H    0.016009
    64  H    0.008946
    65  H    0.022647
    66  H    0.012536
    67  H    0.004369
    68  H    0.005539
    69  H    0.004545
    70  H    0.007837
    71  H    0.018124
    72  H    0.029888
    73  H    0.046783
    74  H    0.008809
    75  H    0.045386
    76  H    0.034629
    77  H    0.042074
    78  H    0.046437
    79  H    0.052821
    80  Mg   0.839390
    81  C   -0.016730
    82  C   -0.087272
    83  C   -0.045418
    84  C   -0.064780
    85  N   -0.254632
    86  C   -0.049592
    87  C   -0.015424
    88  C   -0.090678
    89  C    0.046304
    90  C    0.114421
    91  C    0.062329
    92  C   -0.077503
    93  H    0.033846
    94  N   -0.423561
    95  C    0.163856
    96  C   -0.174058
    97  C   -0.007270
    98  C    0.152505
    99  C    0.099353
   100  C    0.016146
   101  O   -0.253389
   102  C    0.060762
   103  N   -0.350085
   104  C    0.037659
   105  C   -0.019826
   106  C   -0.034717
   107  C    0.088766
   108  C    0.073771
   109  C    0.034750
   110  C   -0.007852
   111  N   -0.323919
   112  C    0.078299
   113  C   -0.163440
   114  C    0.001527
   115  C    0.096255
   116  C    0.131707
   117  C    0.041774
   118  O   -0.189748
   119  C    0.001057
   120  C    0.210747
   121  O   -0.251104
   122  O   -0.305458
   123  C    0.152667
   124  H   -0.019718
   125  H   -0.015655
   126  H   -0.040547
   127  H   -0.001323
   128  H   -0.004026
   129  H    0.022128
   130  H    0.014386
   131  H    0.016089
   132  H    0.015756
   133  H    0.037854
   134  H    0.020092
   135  H    0.020077
   136  H    0.008749
   137  H    0.025841
   138  H    0.041331
   139  H    0.037922
   140  H    0.036391
   141  H    0.035475
   142  H    0.014387
   143  H    0.012102
   144  H    0.024944
   145  H    0.011529
   146  H    0.005468
   147  H    0.005778
   148  H    0.003899
   149  H    0.010428
   150  H    0.018627
   151  H    0.030556
   152  H    0.044796
   153  H    0.008965
   154  H    0.046483
   155  H    0.034682
   156  H    0.042971
   157  H    0.049904
   158  H    0.052226
 Sum of Mulliken charges =  -0.00000

 Dipole moment (field-independent basis, Debye):
    X=              0.9713    Y=              3.1581    Z=             -1.0310  Tot=              3.4612
 Quadrupole moment (field-independent basis, Debye-Ang):
   XX=           -470.9788   YY=           -461.4140   ZZ=           -541.0894
   XY=              9.1073   XZ=             32.5574   YZ=             -3.6649

 Normal termination of Gaussian 16 at Fri Sep 10 14:23:33 2021.
