 Gaussian 16, Revision A.03,
 Gaussian 16:  ES64L-G16RevA.03 25-Dec-2016

 -----------------------------------
 #p cam-b3lyp/Def2SVP td=(nstates=5)
 -----------------------------------

 --------------------------------
 TDDFT excited states in gaussian
 --------------------------------
 Symbolic Z-matrix:
 Charge =  0 Multiplicity = 1

                         Standard orientation:
 ---------------------------------------------------------------------
 Center     Atomic      Atomic             Coordinates (Angstroms)
 Number     Number       Type             X           Y           Z
 ---------------------------------------------------------------------
      1         12           0        7.540555    0.991720    0.562315
      2          6           0        7.966343   -2.399151   -0.502069
      3          6           0        8.524477    1.940152   -2.564255
      4          6           0        7.610620    3.983974    1.610230
      5          6           0        7.699094   -0.173392    3.843023
      6          7           0        8.141362   -0.174688   -1.220707
      7          6           0        8.204596   -1.469174   -1.516477
      8          6           0        8.474065   -1.745588   -3.025899
      9          6           0        9.178710   -0.368520   -3.412109
     10          6           0        8.551942    0.528656   -2.359417
     11          6           0       10.690574   -0.380200   -3.210533
     12          6           0        7.151600   -1.959513   -3.836488
     13          6           0        7.332218   -2.552866   -5.236724
     14          1           0        6.325069   -3.473286   -5.742518
     15          7           0        7.523828    2.698362   -0.432644
     16          6           0        7.946716    2.898786   -1.703975
     17          6           0        7.728464    4.334159   -1.984599
     18          6           0        7.321501    4.990059   -0.710915
     19          6           0        7.496677    3.908184    0.224092
     20          6           0        7.860371    4.934866   -3.350433
     21          6           0        6.859640    6.375449   -0.386090
     22          8           0        6.779527    6.801200    0.816779
     23          6           0        6.584342    7.261623   -1.531493
     24          7           0        7.859830    1.828916    2.447733
     25          6           0        7.778644    3.150240    2.638773
     26          6           0        7.761227    3.490684    4.099503
     27          6           0        7.602113    2.103820    4.874775
     28          6           0        7.640042    1.147270    3.657465
     29          6           0        8.996550    4.232320    4.628619
     30          6           0        6.419841    1.985668    5.869106
     31          6           0        5.109836    2.008161    5.113806
     32          7           0        7.609938   -0.947757    1.534251
     33          6           0        7.695556   -1.198102    2.911448
     34          6           0        7.824992   -2.657406    3.078019
     35          6           0        7.822331   -3.156465    1.776951
     36          6           0        7.725462   -2.075199    0.855120
     37          6           0        7.984310   -3.344235    4.313866
     38          6           0        7.903586   -4.349740    0.950301
     39          8           0        7.903907   -5.561150    1.173856
     40          6           0        8.122759   -3.898352   -0.561003
     41          6           0        7.154029   -4.673487   -1.411907
     42          8           0        5.924308   -4.484139   -1.315468
     43          8           0        7.829510   -5.335911   -2.363464
     44          6           0        6.924431   -6.102286   -3.261047
     45          1           0        9.042161    2.358052   -3.429878
     46          1           0        7.527653    4.992876    2.019707
     47          1           0        7.668432   -0.616460    4.840120
     48          1           0        9.150512   -2.577716   -3.221876
     49          1           0        8.898403   -0.033995   -4.410729
     50          1           0       11.018956   -1.291920   -2.711682
     51          1           0       10.908610    0.491334   -2.592972
     52          1           0       11.208644   -0.214974   -4.155562
     53          1           0        6.730062   -0.989254   -4.099098
     54          1           0        6.448548   -2.573612   -3.272639
     55          1           0        8.331028   -2.970418   -5.366872
     56          1           0        7.281915   -1.739985   -5.961220
     57          1           0        8.331297    4.243575   -4.048209
     58          1           0        8.566529    5.760867   -3.268142
     59          1           0        6.907255    5.302560   -3.730830
     60          1           0        7.487550    7.362579   -2.133632
     61          1           0        6.179678    8.181051   -1.109890
     62          1           0        5.839712    6.788956   -2.172633
     63          1           0        6.916077    4.133953    4.341064
     64          1           0        8.480243    1.868593    5.476630
     65          1           0        8.764558    5.185361    5.104640
     66          1           0        9.689267    4.368156    3.798569
     67          1           0        9.606623    3.662478    5.328982
     68          1           0        6.411550    2.835308    6.551008
     69          1           0        6.452947    1.077538    6.471148
     70          1           0        4.925927    3.073204    4.977089
     71          1           0        4.319785    1.548761    5.708770
     72          1           0        5.213966    1.565642    4.122938
     73          1           0        7.330202   -4.214740    4.265578
     74          1           0        7.730036   -2.704040    5.158317
     75          1           0        9.046945   -3.583520    4.276372
     76          1           0        9.158895   -4.126342   -0.809125
     77          1           0        7.256474   -7.140359   -3.241407
     78          1           0        6.931444   -5.586900   -4.221636
     79          1           0        5.891999   -6.210103   -2.926683
     80         12           0       -8.292979    0.195069   -0.228836
     81          6           0       -5.871982   -2.441504    0.028723
     82          6           0       -5.842954    2.104559   -1.638036
     83          6           0      -10.265497    2.674545   -0.059065
     84          6           0      -10.169055   -1.480296    2.183456
     85          7           0       -6.171794   -0.226050   -0.693061
     86          6           0       -5.378465   -1.283210   -0.607075
     87          6           0       -4.004446   -1.115071   -1.309474
     88          6           0       -3.909422    0.487546   -1.271372
     89          6           0       -5.399652    0.819942   -1.233886
     90          6           0       -3.268658    1.022410   -0.001455
     91          6           0       -4.016242   -1.654928   -2.782716
     92          6           0       -2.634717   -1.806446   -3.423174
     93          1           0       -2.411765   -2.919345   -4.341988
     94          7           0       -8.259252    1.931143   -1.189834
     95          6           0       -7.181164    2.548797   -1.716629
     96          6           0       -7.680671    3.805161   -2.296452
     97          6           0       -9.113650    3.956400   -1.924412
     98          6           0       -9.266116    2.845957   -1.005845
     99          6           0       -6.843004    4.683179   -3.180097
    100          6           0      -10.168394    4.945380   -2.318902
    101          8           0      -11.282231    5.028664   -1.690198
    102          6           0       -9.821798    5.876114   -3.402917
    103          7           0       -9.868008    0.659049    1.046438
    104          6           0      -10.595255    1.775981    0.868930
    105          6           0      -11.837332    1.760393    1.727638
    106          6           0      -11.917038    0.285642    2.341097
    107          6           0      -10.601356   -0.294426    1.777266
    108          6           0      -11.875526    2.785449    2.860849
    109          6           0      -13.233698   -0.504182    2.105999
    110          6           0      -13.383348   -0.832737    0.637993
    111          7           0       -8.181850   -1.712279    0.779970
    112          6           0       -9.056270   -2.203744    1.773921
    113          6           0       -8.506625   -3.494069    2.238000
    114          6           0       -7.328984   -3.653973    1.492288
    115          6           0       -7.146254   -2.532172    0.639255
    116          6           0       -9.062898   -4.316672    3.257805
    117          6           0       -6.193331   -4.511631    1.240449
    118          8           0       -5.857097   -5.637428    1.605527
    119          6           0       -5.133357   -3.704982    0.373190
    120          6           0       -4.691312   -4.589356   -0.760384
    121          8           0       -5.494899   -4.930981   -1.645895
    122          8           0       -3.351242   -4.706601   -0.731043
    123          6           0       -2.863950   -5.565755   -1.842886
    124          1           0       -5.094257    2.859894   -1.878465
    125          1           0      -11.033634    3.451087   -0.038415
    126          1           0      -10.746521   -2.110790    2.862929
    127          1           0       -3.166408   -1.549970   -0.778124
    128          1           0       -3.454368    0.877912   -2.177972
    129          1           0       -3.089629    0.239252    0.720171
    130          1           0       -3.964340    1.750352    0.394988
    131          1           0       -2.357562    1.576999   -0.243658
    132          1           0       -4.445656   -0.889013   -3.441288
    133          1           0       -4.546652   -2.585306   -2.843328
    134          1           0       -1.828456   -1.752965   -2.681534
    135          1           0       -2.457728   -0.946685   -4.073944
    136          1           0       -5.783562    4.401558   -3.138963
    137          1           0       -6.873139    5.690541   -2.750934
    138          1           0       -7.214417    4.724942   -4.206247
    139          1           0       -8.939075    6.445446   -3.121634
    140          1           0      -10.732293    6.444546   -3.602314
    141          1           0       -9.551035    5.293855   -4.290762
    142          1           0      -12.722666    1.940879    1.130386
    143          1           0      -11.813146    0.293654    3.436075
    144          1           0      -12.755626    3.454325    2.814882
    145          1           0      -10.959276    3.360087    2.832343
    146          1           0      -11.853400    2.365007    3.864815
    147          1           0      -14.096705    0.109259    2.376298
    148          1           0      -13.296557   -1.420638    2.683190
    149          1           0      -13.815313    0.082836    0.222984
    150          1           0      -14.050794   -1.681207    0.501438
    151          1           0      -12.404981   -0.979116    0.165733
    152          1           0       -9.013432   -5.335594    2.897475
    153          1           0      -10.085183   -4.025467    3.490003
    154          1           0       -8.376885   -4.098096    4.080533
    155          1           0       -4.305605   -3.439098    1.031763
    156          1           0       -2.271621   -6.367476   -1.391122
    157          1           0       -2.340758   -4.884310   -2.539770
    158          1           0       -3.601479   -6.134310   -2.397197
 ---------------------------------------------------------------------

 SCF Done:  E(RCAM-B3LYP) =  -4069.81175521     A.U. after   19 cycles

 Excitation energies and oscillator strengths:

 Excited State   1:      Singlet-A      1.6691 eV  742.83 nm  f=0.0125  <S**2>=0.000
     309 -> 315       -0.10703
     310 -> 316       -0.13480
     311 -> 313       -0.42500
     312 -> 314        0.53902
 This state for optimization and/or second-order correction.
 Total Energy, E(TD-HF/TD-DFT) =  -4069.75041753
 Copying the excited state density for this state as the 1-particle RhoCI density.

 Excited State   2:      Singlet-A      1.6856 eV  735.56 nm  f=0.7409  <S**2>=0.000
     309 -> 315        0.13899
     310 -> 316       -0.10889
     311 -> 313        0.53812
     312 -> 314        0.42439

 Excited State   3:      Singlet-A      2.1853 eV  567.35 nm  f=0.0923  <S**2>=0.000
     310 -> 314        0.63829
     312 -> 316        0.27062

 Excited State   4:      Singlet-A      2.1926 eV  565.46 nm  f=0.1078  <S**2>=0.000
     309 -> 313        0.63627
     311 -> 315       -0.27656

 Excited State   5:      Singlet-A      2.7219 eV  455.50 nm  f=0.0000  <S**2>=0.000
     312 -> 313        0.70697

 The electronic state is 1-A.
 Alpha  occ. eigenvalues --  -46.87937 -46.87565 -19.26405 -19.26133 -19.19149
 Alpha  occ. eigenvalues --  -19.18983 -19.18966 -19.18641 -19.18285 -19.17926
 Alpha  occ. eigenvalues --  -14.42587 -14.42396 -14.41584 -14.41265 -14.39544
 Alpha  occ. eigenvalues --  -14.39258 -14.38722 -14.38502 -10.39207 -10.38911
 Alpha  occ. eigenvalues --  -10.35601 -10.35320 -10.34505 -10.34099 -10.31794
 Alpha  occ. eigenvalues --  -10.31535 -10.31502 -10.31199 -10.31050 -10.30916
 Alpha  occ. eigenvalues --  -10.30701 -10.30641 -10.30343 -10.30303 -10.30260
 Alpha  occ. eigenvalues --  -10.30058 -10.30048 -10.29802 -10.29764 -10.29392
 Alpha  occ. eigenvalues --  -10.29349 -10.29308 -10.28888 -10.28688 -10.28576
 Alpha  occ. eigenvalues --  -10.28502 -10.28484 -10.28303 -10.28248 -10.28011
 Alpha  occ. eigenvalues --  -10.27923 -10.27905 -10.27862 -10.27723 -10.27632
 Alpha  occ. eigenvalues --  -10.27622 -10.27571 -10.27570 -10.27538 -10.27445
 Alpha  occ. eigenvalues --  -10.27401 -10.27376 -10.27376 -10.27302 -10.27280
 Alpha  occ. eigenvalues --  -10.26901 -10.26863 -10.26579 -10.26550 -10.26361
 Alpha  occ. eigenvalues --  -10.26351 -10.26301 -10.26149 -10.26074 -10.25935
 Alpha  occ. eigenvalues --  -10.25882 -10.25844 -10.25758 -10.25544 -10.25331
 Alpha  occ. eigenvalues --  -10.24961 -10.24922 -10.24821 -10.24772 -10.24669
 Alpha  occ. eigenvalues --  -10.24597  -3.16681  -3.16315  -1.91562  -1.91197
 Alpha  occ. eigenvalues --   -1.91149  -1.90991  -1.90785  -1.90622  -1.16755
 Alpha  occ. eigenvalues --   -1.16436  -1.08741  -1.08525  -1.07368  -1.06895
 Alpha  occ. eigenvalues --   -1.06769  -1.06764  -1.04718  -1.04391  -1.03896
 Alpha  occ. eigenvalues --   -1.03566  -1.03369  -1.02946  -1.02546  -1.02015
 Alpha  occ. eigenvalues --   -0.92102  -0.91873  -0.89648  -0.89406  -0.89323
 Alpha  occ. eigenvalues --   -0.89022  -0.88413  -0.88138  -0.87990  -0.87808
 Alpha  occ. eigenvalues --   -0.87696  -0.87581  -0.87419  -0.87041  -0.85119
 Alpha  occ. eigenvalues --   -0.84879  -0.84061  -0.83790  -0.83115  -0.82858
 Alpha  occ. eigenvalues --   -0.82785  -0.82537  -0.81711  -0.81446  -0.80729
 Alpha  occ. eigenvalues --   -0.80316  -0.78934  -0.78548  -0.77349  -0.77064
 Alpha  occ. eigenvalues --   -0.77039  -0.76768  -0.76050  -0.75704  -0.75021
 Alpha  occ. eigenvalues --   -0.74707  -0.72903  -0.72602  -0.71800  -0.71473
 Alpha  occ. eigenvalues --   -0.70033  -0.69680  -0.69009  -0.68710  -0.67775
 Alpha  occ. eigenvalues --   -0.67497  -0.67366  -0.67083  -0.65422  -0.65143
 Alpha  occ. eigenvalues --   -0.64984  -0.64752  -0.64662  -0.64525  -0.64398
 Alpha  occ. eigenvalues --   -0.64112  -0.62422  -0.62122  -0.60582  -0.60256
 Alpha  occ. eigenvalues --   -0.59938  -0.59677  -0.59117  -0.58888  -0.58634
 Alpha  occ. eigenvalues --   -0.58316  -0.57709  -0.57439  -0.57413  -0.57138
 Alpha  occ. eigenvalues --   -0.56439  -0.56105  -0.56103  -0.55727  -0.55656
 Alpha  occ. eigenvalues --   -0.55462  -0.55338  -0.55136  -0.54647  -0.54360
 Alpha  occ. eigenvalues --   -0.54032  -0.53785  -0.53434  -0.53359  -0.53129
 Alpha  occ. eigenvalues --   -0.53046  -0.53024  -0.52902  -0.52775  -0.52577
 Alpha  occ. eigenvalues --   -0.52563  -0.52323  -0.52025  -0.51785  -0.51756
 Alpha  occ. eigenvalues --   -0.51539  -0.51321  -0.51085  -0.50726  -0.50404
 Alpha  occ. eigenvalues --   -0.50159  -0.50060  -0.49882  -0.49785  -0.49652
 Alpha  occ. eigenvalues --   -0.49385  -0.49345  -0.49223  -0.49088  -0.48978
 Alpha  occ. eigenvalues --   -0.48717  -0.48597  -0.48573  -0.48430  -0.48287
 Alpha  occ. eigenvalues --   -0.48240  -0.47829  -0.47485  -0.47429  -0.47021
 Alpha  occ. eigenvalues --   -0.46926  -0.46692  -0.46607  -0.46490  -0.46432
 Alpha  occ. eigenvalues --   -0.46286  -0.46173  -0.45975  -0.45938  -0.45688
 Alpha  occ. eigenvalues --   -0.45326  -0.45120  -0.44701  -0.44646  -0.44393
 Alpha  occ. eigenvalues --   -0.44364  -0.44277  -0.44221  -0.44149  -0.44014
 Alpha  occ. eigenvalues --   -0.43982  -0.43830  -0.43618  -0.43519  -0.43406
 Alpha  occ. eigenvalues --   -0.43267  -0.43154  -0.42825  -0.42807  -0.42780
 Alpha  occ. eigenvalues --   -0.42738  -0.42471  -0.42139  -0.41863  -0.41832
 Alpha  occ. eigenvalues --   -0.41670  -0.41555  -0.41342  -0.41270  -0.41006
 Alpha  occ. eigenvalues --   -0.40972  -0.40881  -0.40697  -0.40628  -0.40591
 Alpha  occ. eigenvalues --   -0.40398  -0.40383  -0.40092  -0.39569  -0.39350
 Alpha  occ. eigenvalues --   -0.38597  -0.38261  -0.37891  -0.37525  -0.37450
 Alpha  occ. eigenvalues --   -0.37403  -0.37172  -0.37082  -0.36838  -0.36606
 Alpha  occ. eigenvalues --   -0.36321  -0.36098  -0.34420  -0.34153  -0.33901
 Alpha  occ. eigenvalues --   -0.33701  -0.33320  -0.33075  -0.31495  -0.31199
 Alpha  occ. eigenvalues --   -0.31170  -0.30872  -0.30143  -0.29826  -0.29589
 Alpha  occ. eigenvalues --   -0.29451  -0.29237  -0.29112  -0.24216  -0.23936
 Alpha  occ. eigenvalues --   -0.21262  -0.21021
 Alpha virt. eigenvalues --   -0.08909  -0.08696  -0.01887  -0.01591  -0.00200
 Alpha virt. eigenvalues --    0.00063   0.02076   0.02314   0.02939   0.03314
 Alpha virt. eigenvalues --    0.04581   0.04841   0.04972   0.05338   0.06036

 Mulliken charges:
               1
     1  Mg   0.837899
     2  C   -0.003179
     3  C   -0.094335
     4  C   -0.045953
     5  C   -0.063830
     6  N   -0.256793
     7  C   -0.052508
     8  C   -0.013930
     9  C   -0.086933
    10  C    0.046079
    11  C    0.104751
    12  C    0.053538
    13  C   -0.071765
    14  H    0.035878
    15  N   -0.433134
    16  C    0.168059
    17  C   -0.177398
    18  C   -0.004257
    19  C    0.148437
    20  C    0.110170
    21  C    0.011857
    22  O   -0.249602
    23  C    0.062707
    24  N   -0.341110
    25  C    0.041169
    26  C   -0.028189
    27  C   -0.024090
    28  C    0.074826
    29  C    0.076094
    30  C    0.035088
    31  C   -0.004536
    32  N   -0.310576
    33  C    0.080430
    34  C   -0.169362
    35  C    0.008620
    36  C    0.082875
    37  C    0.127224
    38  C    0.046296
    39  O   -0.187734
    40  C   -0.005371
    41  C    0.213115
    42  O   -0.257572
    43  O   -0.304638
    44  C    0.157657
    45  H   -0.017494
    46  H   -0.016801
    47  H   -0.041054
    48  H    0.001252
    49  H   -0.004154
    50  H    0.025671
    51  H    0.016563
    52  H    0.016847
    53  H    0.010607
    54  H    0.043748
    55  H    0.018343
    56  H    0.017872
    57  H    0.005946
    58  H    0.027056
    59  H    0.038832
    60  H    0.037680
    61  H    0.035556
    62  H    0.030644
    63  H    0.016395
    64  H    0.009817
    65  H    0.023321
    66  H    0.012633
    67  H    0.005032
    68  H    0.006632
    69  H    0.005185
    70  H    0.008500
    71  H    0.018432
    72  H    0.028476
    73  H    0.048133
    74  H    0.009387
    75  H    0.046311
    76  H    0.035466
    77  H    0.043475
    78  H    0.046292
    79  H    0.053424
    80  Mg   0.837610
    81  C   -0.016830
    82  C   -0.087840
    83  C   -0.045678
    84  C   -0.065105
    85  N   -0.254556
    86  C   -0.049715
    87  C   -0.015201
    88  C   -0.090453
    89  C    0.045770
    90  C    0.114464
    91  C    0.062595
    92  C   -0.077997
    93  H    0.034685
    94  N   -0.423452
    95  C    0.162823
    96  C   -0.174760
    97  C   -0.008016
    98  C    0.152070
    99  C    0.099449
   100  C    0.015424
   101  O   -0.253418
   102  C    0.061269
   103  N   -0.350088
   104  C    0.037447
   105  C   -0.019775
   106  C   -0.034810
   107  C    0.089013
   108  C    0.073728
   109  C    0.034786
   110  C   -0.007644
   111  N   -0.324163
   112  C    0.078567
   113  C   -0.163234
   114  C    0.002450
   115  C    0.096126
   116  C    0.131503
   117  C    0.042349
   118  O   -0.187221
   119  C    0.001091
   120  C    0.211242
   121  O   -0.251627
   122  O   -0.304915
   123  C    0.152111
   124  H   -0.019849
   125  H   -0.015832
   126  H   -0.040606
   127  H    0.000771
   128  H   -0.004658
   129  H    0.023092
   130  H    0.014044
   131  H    0.016414
   132  H    0.013244
   133  H    0.037611
   134  H    0.022749
   135  H    0.018616
   136  H    0.008550
   137  H    0.025910
   138  H    0.039371
   139  H    0.038126
   140  H    0.036127
   141  H    0.033719
   142  H    0.014219
   143  H    0.012323
   144  H    0.024920
   145  H    0.011645
   146  H    0.005546
   147  H    0.006078
   148  H    0.003604
   149  H    0.010821
   150  H    0.017799
   151  H    0.030220
   152  H    0.046069
   153  H    0.008301
   154  H    0.047056
   155  H    0.035955
   156  H    0.045351
   157  H    0.049936
   158  H    0.052682
 Sum of Mulliken charges =  -0.00000

 Dipole moment (field-independent basis, Debye):
    X=              4.5360    Y=              6.2098    Z=             -3.8872  Tot=              8.6167
 Quadrupole moment (field-independent basis, Debye-Ang):
   XX=           -498.6252   YY=           -564.9042   ZZ=           -459.3713
   XY=              8.4115   XZ=            -41.5171   YZ=             -3.0586

 Normal termination of Gaussian 16 at Sun Sep 12 03:49:25 2021.
