 Gaussian 16, Revision A.03,
 Gaussian 16:  ES64L-G16RevA.03 25-Dec-2016

 -----------------------------------
 #p cam-b3lyp/Def2SVP td=(nstates=5)
 -----------------------------------

 --------------------------------
 TDDFT excited states in gaussian
 --------------------------------
 Symbolic Z-matrix:
 Charge =  0 Multiplicity = 1

                         Standard orientation:
 ---------------------------------------------------------------------
 Center     Atomic      Atomic             Coordinates (Angstroms)
 Number     Number       Type             X           Y           Z
 ---------------------------------------------------------------------
      1         12           0       -7.798026   -0.940832    0.163851
      2          6           0       -8.432849    2.577124   -0.018365
      3          6           0       -8.692486   -1.121655   -3.124053
      4          6           0       -7.683595   -4.099710    0.418825
      5          6           0       -8.058880   -0.658883    3.627681
      6          7           0       -8.457917    0.601743   -1.280328
      7          6           0       -8.602087    1.922653   -1.240524
      8          6           0       -8.876193    2.556585   -2.637080
      9          6           0       -9.487237    1.282854   -3.376155
     10          6           0       -8.812704    0.187224   -2.569603
     11          6           0      -10.998336    1.151762   -3.215237
     12          6           0       -7.563554    3.048710   -3.334593
     13          6           0       -7.770365    3.966220   -4.543211
     14          1           0       -6.820522    5.043921   -4.774957
     15          7           0       -7.662863   -2.334603   -1.229699
     16          6           0       -8.061279   -2.230698   -2.520340
     17          6           0       -7.748504   -3.531875   -3.149460
     18          6           0       -7.310731   -4.463973   -2.073522
     19          6           0       -7.563185   -3.667636   -0.899856
     20          6           0       -7.829932   -3.772826   -4.625625
     21          6           0       -6.763156   -5.855976   -2.098463
     22          8           0       -6.665801   -6.567629   -1.040802
     23          6           0       -6.421663   -6.403924   -3.423671
     24          7           0       -8.078371   -2.247099    1.767817
     25          6           0       -7.913678   -3.566235    1.620371
     26          6           0       -7.886551   -4.264810    2.947472
     27          6           0       -7.823769   -3.113332    4.051967
     28          6           0       -7.913166   -1.883070    3.115625
     29          6           0       -9.075819   -5.189609    3.241410
     30          6           0       -6.659951   -3.180513    5.072473
     31          6           0       -5.344950   -2.931401    4.368332
     32          7           0       -8.000569    0.680375    1.592735
     33          6           0       -8.113688    0.567107    2.985950
     34          6           0       -8.338426    1.925707    3.512987
     35          6           0       -8.357091    2.738059    2.380918
     36          6           0       -8.182929    1.934242    1.218232
     37          6           0       -8.552076    2.265245    4.878088
     38          6           0       -8.508269    4.095008    1.881228
     39          8           0       -8.588644    5.207623    2.403838
     40          6           0       -8.685198    4.029883    0.300000
     41          6           0       -7.761427    5.052667   -0.303215
     42          8           0       -6.522900    4.919548   -0.227742
     43          8           0       -8.470265    5.893060   -1.072521
     44          6           0       -7.609054    6.915406   -1.724654
     45          1           0       -9.174858   -1.336440   -4.079629
     46          1           0       -7.539117   -5.172626    0.561712
     47          1           0       -8.065223   -0.482562    4.704864
     48          1           0       -9.603271    3.368843   -2.632707
     49          1           0       -9.177577    1.230451   -4.419748
     50          1           0      -11.389039    1.885376   -2.510196
     51          1           0      -11.164830    0.140452   -2.843719
     52          1           0      -11.496736    1.201034   -4.183714
     53          1           0       -7.078092    2.204207   -3.823675
     54          1           0       -6.906345    3.540713   -2.616725
     55          1           0       -8.792917    4.342117   -4.587916
     56          1           0       -7.661643    3.368557   -5.448295
     57          1           0       -8.338635   -2.956685   -5.137173
     58          1           0       -8.481972   -4.633673   -4.772234
     59          1           0       -6.851922   -3.973684   -5.063213
     60          1           0       -7.311402   -6.402920   -4.053681
     61          1           0       -5.962045   -7.374147   -3.238555
     62          1           0       -5.703752   -5.739908   -3.905994
     63          1           0       -7.003698   -4.896161    3.039082
     64          1           0       -8.720256   -3.092069    4.672074
     65          1           0       -8.786793   -6.216515    3.466431
     66          1           0       -9.751354   -5.151700    2.387299
     67          1           0       -9.727237   -4.854187    4.047985
     68          1           0       -6.602549   -4.173379    5.517296
     69          1           0       -6.756635   -2.458766    5.883635
     70          1           0       -5.091549   -3.913707    3.971223
     71          1           0       -4.591202   -2.591391    5.079294
     72          1           0       -5.469127   -2.258851    3.519366
     73          1           0       -7.955133    3.157279    5.067568
     74          1           0       -8.264091    1.448113    5.539119
     75          1           0       -9.627588    2.441676    4.876345
     76          1           0       -9.731775    4.250501    0.092333
     77          1           0       -8.007554    7.892477   -1.451225
     78          1           0       -7.574750    6.661428   -2.784241
     79          1           0       -6.588567    6.996825   -1.348733
     80         12           0        7.967422    0.977488    0.003930
     81          6           0        8.183801   -2.553389   -0.600323
     82          6           0        7.209721    0.225410    3.243503
     83          6           0        7.328454    4.051188    0.463891
     84          6           0        7.609817    1.403713   -3.436442
     85          7           0        7.754646   -0.952000    1.064136
     86          6           0        7.920716   -2.227075    0.746431
     87          6           0        7.877456   -3.201678    1.953840
     88          6           0        7.012565   -2.298309    2.961184
     89          6           0        7.369894   -0.916223    2.418210
     90          6           0        5.513407   -2.497210    2.811822
     91          6           0        9.305131   -3.500708    2.532060
     92          6           0        9.370106   -4.677464    3.508168
     93          1           0       10.562477   -5.520492    3.503667
     94          7           0        7.841178    2.025484    1.684516
     95          6           0        7.545783    1.557196    2.915257
     96          6           0        7.558119    2.728612    3.805087
     97          6           0        7.722599    3.949825    2.970637
     98          6           0        7.613876    3.378676    1.643218
     99          6           0        7.501426    2.614887    5.300838
    100          6           0        7.929112    5.394668    3.311218
    101          8           0        7.808145    6.318010    2.430523
    102          6           0        8.185132    5.704773    4.725352
    103          7           0        7.321057    2.489065   -1.268750
    104          6           0        7.172333    3.749684   -0.825309
    105          6           0        6.968118    4.710781   -1.972030
    106          6           0        7.253186    3.863905   -3.298350
    107          6           0        7.496435    2.476332   -2.665221
    108          6           0        5.583144    5.350776   -2.065028
    109          6           0        8.319710    4.426947   -4.277231
    110          6           0        9.688949    4.366056   -3.639368
    111          7           0        8.087983   -0.290490   -1.741267
    112          6           0        7.878989    0.086878   -3.085881
    113          6           0        7.955662   -1.143285   -3.900278
    114          6           0        8.182853   -2.162245   -2.962947
    115          6           0        8.223366   -1.609064   -1.654580
    116          6           0        7.773720   -1.220421   -5.309915
    117          6           0        8.387028   -3.581472   -2.781786
    118          8           0        8.538247   -4.540744   -3.537195
    119          6           0        8.270672   -3.914993   -1.232067
    120          6           0        9.435972   -4.788688   -0.856219
    121          8           0       10.597992   -4.348446   -0.906136
    122          8           0        8.974594   -5.921432   -0.295506
    123          6           0       10.093515   -6.815860    0.104318
    124          1           0        6.743440    0.097789    4.220842
    125          1           0        7.209558    5.133322    0.555112
    126          1           0        7.606413    1.465675   -4.526773
    127          1           0        7.367587   -4.138464    1.763419
    128          1           0        7.359083   -2.406784    3.985653
    129          1           0        5.272676   -3.127912    1.968972
    130          1           0        5.097579   -1.507590    2.674800
    131          1           0        5.088492   -2.875997    3.745786
    132          1           0        9.597929   -2.683271    3.203482
    133          1           0       10.013601   -3.648434    1.740311
    134          1           0        8.463579   -5.293762    3.471733
    135          1           0        9.385102   -4.282783    4.527003
    136          1           0        7.216906    1.603663    5.616870
    137          1           0        6.673726    3.247944    5.638505
    138          1           0        8.422003    2.949345    5.783896
    139          1           0        7.353374    5.349810    5.329220
    140          1           0        8.395230    6.775649    4.756300
    141          1           0        9.070706    5.147650    5.050925
    142          1           0        7.674106    5.530515   -1.919983
    143          1           0        6.353044    3.770617   -3.923561
    144          1           0        5.611682    6.456722   -2.052946
    145          1           0        4.978948    4.977042   -1.249052
    146          1           0        4.998431    5.061753   -2.936685
    147          1           0        8.121869    5.480890   -4.487497
    148          1           0        8.348315    3.908374   -5.229728
    149          1           0        9.717241    5.273390   -3.028611
    150          1           0       10.466836    4.377955   -4.400153
    151          1           0        9.769116    3.509102   -2.960498
    152          1           0        8.546114   -1.876857   -5.688080
    153          1           0        7.825587   -0.236732   -5.771908
    154          1           0        6.765886   -1.641862   -5.353714
    155          1           0        7.315237   -4.417325   -1.075910
    156          1           0        9.920147   -7.781098   -0.381417
    157          1           0       10.105244   -6.803476    1.210423
    158          1           0       11.084881   -6.571381   -0.258827
 ---------------------------------------------------------------------

 SCF Done:  E(RCAM-B3LYP) =  -4069.81180135     A.U. after   19 cycles

 Excitation energies and oscillator strengths:

 Excited State   1:      Singlet-A      1.6701 eV  742.37 nm  f=0.0257  <S**2>=0.000
     309 -> 315        0.10230
     310 -> 316        0.13901
     311 -> 313        0.40576
     312 -> 314        0.55358
 This state for optimization and/or second-order correction.
 Total Energy, E(TD-HF/TD-DFT) =  -4069.75042547
 Copying the excited state density for this state as the 1-particle RhoCI density.

 Excited State   2:      Singlet-A      1.6854 eV  735.65 nm  f=0.7308  <S**2>=0.000
     309 -> 315        0.14270
     310 -> 316       -0.10412
     311 -> 313        0.55275
     312 -> 314       -0.40523

 Excited State   3:      Singlet-A      2.1858 eV  567.23 nm  f=0.0576  <S**2>=0.000
     309 -> 313        0.14229
     310 -> 314        0.62683
     312 -> 316       -0.26596

 Excited State   4:      Singlet-A      2.1932 eV  565.30 nm  f=0.1356  <S**2>=0.000
     309 -> 313        0.62477
     310 -> 314       -0.14122
     311 -> 315       -0.27174

 Excited State   5:      Singlet-A      2.7661 eV  448.23 nm  f=0.0000  <S**2>=0.000
     312 -> 313        0.70710

 The electronic state is 1-A.
 Alpha  occ. eigenvalues --  -46.87835 -46.87590 -19.26311 -19.26304 -19.19113
 Alpha  occ. eigenvalues --  -19.19049 -19.18840 -19.18633 -19.18203 -19.17995
 Alpha  occ. eigenvalues --  -14.42486 -14.42427 -14.41491 -14.41288 -14.39439
 Alpha  occ. eigenvalues --  -14.39280 -14.38625 -14.38533 -10.39109 -10.39041
 Alpha  occ. eigenvalues --  -10.35472 -10.35309 -10.34423 -10.34173 -10.31717
 Alpha  occ. eigenvalues --  -10.31702 -10.31441 -10.31243 -10.30950 -10.30941
 Alpha  occ. eigenvalues --  -10.30608 -10.30547 -10.30330 -10.30296 -10.30248
 Alpha  occ. eigenvalues --  -10.30066 -10.29965 -10.29825 -10.29667 -10.29363
 Alpha  occ. eigenvalues --  -10.29334 -10.29290 -10.28777 -10.28653 -10.28602
 Alpha  occ. eigenvalues --  -10.28560 -10.28399 -10.28335 -10.28145 -10.28070
 Alpha  occ. eigenvalues --  -10.27934 -10.27829 -10.27762 -10.27618 -10.27598
 Alpha  occ. eigenvalues --  -10.27559 -10.27503 -10.27499 -10.27449 -10.27439
 Alpha  occ. eigenvalues --  -10.27415 -10.27396 -10.27385 -10.27298 -10.27190
 Alpha  occ. eigenvalues --  -10.26993 -10.26731 -10.26635 -10.26417 -10.26327
 Alpha  occ. eigenvalues --  -10.26263 -10.26260 -10.26083 -10.26063 -10.25943
 Alpha  occ. eigenvalues --  -10.25891 -10.25868 -10.25811 -10.25484 -10.25297
 Alpha  occ. eigenvalues --  -10.24869 -10.24827 -10.24808 -10.24781 -10.24679
 Alpha  occ. eigenvalues --  -10.24617  -3.16578  -3.16340  -1.91460  -1.91222
 Alpha  occ. eigenvalues --   -1.91046  -1.90888  -1.90811  -1.90648  -1.16660
 Alpha  occ. eigenvalues --   -1.16597  -1.08661  -1.08605  -1.07241  -1.06898
 Alpha  occ. eigenvalues --   -1.06884  -1.06672  -1.04616  -1.04425  -1.03800
 Alpha  occ. eigenvalues --   -1.03593  -1.03272  -1.02969  -1.02450  -1.02042
 Alpha  occ. eigenvalues --   -0.92008  -0.91922  -0.89571  -0.89428  -0.89218
 Alpha  occ. eigenvalues --   -0.89083  -0.88338  -0.88150  -0.87910  -0.87736
 Alpha  occ. eigenvalues --   -0.87709  -0.87615  -0.87301  -0.87044  -0.85013
 Alpha  occ. eigenvalues --   -0.84932  -0.83992  -0.83808  -0.82996  -0.82854
 Alpha  occ. eigenvalues --   -0.82679  -0.82583  -0.81619  -0.81540  -0.80630
 Alpha  occ. eigenvalues --   -0.80379  -0.78829  -0.78566  -0.77259  -0.77078
 Alpha  occ. eigenvalues --   -0.76970  -0.76835  -0.75955  -0.75774  -0.74943
 Alpha  occ. eigenvalues --   -0.74728  -0.72814  -0.72633  -0.71709  -0.71509
 Alpha  occ. eigenvalues --   -0.69970  -0.69693  -0.68905  -0.68760  -0.67676
 Alpha  occ. eigenvalues --   -0.67534  -0.67247  -0.67133  -0.65319  -0.65207
 Alpha  occ. eigenvalues --   -0.64891  -0.64705  -0.64659  -0.64590  -0.64318
 Alpha  occ. eigenvalues --   -0.64137  -0.62332  -0.62222  -0.60476  -0.60265
 Alpha  occ. eigenvalues --   -0.59836  -0.59729  -0.59026  -0.58925  -0.58541
 Alpha  occ. eigenvalues --   -0.58360  -0.57618  -0.57498  -0.57349  -0.57168
 Alpha  occ. eigenvalues --   -0.56344  -0.56140  -0.56008  -0.55829  -0.55551
 Alpha  occ. eigenvalues --   -0.55386  -0.55385  -0.55184  -0.54567  -0.54427
 Alpha  occ. eigenvalues --   -0.53925  -0.53845  -0.53335  -0.53250  -0.53161
 Alpha  occ. eigenvalues --   -0.53075  -0.52951  -0.52840  -0.52781  -0.52590
 Alpha  occ. eigenvalues --   -0.52503  -0.52342  -0.51957  -0.51835  -0.51644
 Alpha  occ. eigenvalues --   -0.51591  -0.51236  -0.51141  -0.50594  -0.50396
 Alpha  occ. eigenvalues --   -0.50082  -0.49946  -0.49907  -0.49793  -0.49543
 Alpha  occ. eigenvalues --   -0.49416  -0.49247  -0.49136  -0.49127  -0.49040
 Alpha  occ. eigenvalues --   -0.48627  -0.48503  -0.48496  -0.48473  -0.48306
 Alpha  occ. eigenvalues --   -0.48264  -0.47729  -0.47526  -0.47330  -0.47045
 Alpha  occ. eigenvalues --   -0.46839  -0.46643  -0.46585  -0.46486  -0.46398
 Alpha  occ. eigenvalues --   -0.46203  -0.46203  -0.46021  -0.45859  -0.45766
 Alpha  occ. eigenvalues --   -0.45248  -0.45131  -0.44614  -0.44540  -0.44453
 Alpha  occ. eigenvalues --   -0.44409  -0.44188  -0.44119  -0.44061  -0.44049
 Alpha  occ. eigenvalues --   -0.44011  -0.43870  -0.43530  -0.43497  -0.43423
 Alpha  occ. eigenvalues --   -0.43319  -0.43065  -0.42874  -0.42839  -0.42741
 Alpha  occ. eigenvalues --   -0.42701  -0.42485  -0.42058  -0.41902  -0.41741
 Alpha  occ. eigenvalues --   -0.41605  -0.41566  -0.41394  -0.41177  -0.40918
 Alpha  occ. eigenvalues --   -0.40908  -0.40849  -0.40652  -0.40627  -0.40620
 Alpha  occ. eigenvalues --   -0.40425  -0.40260  -0.40162  -0.39508  -0.39362
 Alpha  occ. eigenvalues --   -0.38518  -0.38279  -0.37779  -0.37592  -0.37367
 Alpha  occ. eigenvalues --   -0.37295  -0.37198  -0.37133  -0.36749  -0.36718
 Alpha  occ. eigenvalues --   -0.36232  -0.36152  -0.34324  -0.34186  -0.33810
 Alpha  occ. eigenvalues --   -0.33801  -0.33224  -0.33107  -0.31370  -0.31192
 Alpha  occ. eigenvalues --   -0.31072  -0.30903  -0.30063  -0.29901  -0.29483
 Alpha  occ. eigenvalues --   -0.29358  -0.29256  -0.29147  -0.24118  -0.23967
 Alpha  occ. eigenvalues --   -0.21166  -0.21047
 Alpha virt. eigenvalues --   -0.08810  -0.08722  -0.01788  -0.01612  -0.00087
 Alpha virt. eigenvalues --    0.00045   0.02163   0.02269   0.03074   0.03289
 Alpha virt. eigenvalues --    0.04683   0.04799   0.05068   0.05216   0.06150

 Mulliken charges:
               1
     1  Mg   0.838583
     2  C   -0.002928
     3  C   -0.093978
     4  C   -0.045927
     5  C   -0.064079
     6  N   -0.256781
     7  C   -0.052480
     8  C   -0.014015
     9  C   -0.087026
    10  C    0.046329
    11  C    0.104782
    12  C    0.053444
    13  C   -0.071838
    14  H    0.036143
    15  N   -0.433181
    16  C    0.168426
    17  C   -0.176992
    18  C   -0.003930
    19  C    0.148729
    20  C    0.110125
    21  C    0.012336
    22  O   -0.249674
    23  C    0.062431
    24  N   -0.341088
    25  C    0.041242
    26  C   -0.028208
    27  C   -0.023885
    28  C    0.074717
    29  C    0.076147
    30  C    0.035199
    31  C   -0.004422
    32  N   -0.310423
    33  C    0.080280
    34  C   -0.169907
    35  C    0.008366
    36  C    0.082874
    37  C    0.127358
    38  C    0.046072
    39  O   -0.188438
    40  C   -0.005297
    41  C    0.212892
    42  O   -0.257158
    43  O   -0.304777
    44  C    0.157665
    45  H   -0.017420
    46  H   -0.016847
    47  H   -0.041729
    48  H    0.000998
    49  H   -0.003908
    50  H    0.025496
    51  H    0.016451
    52  H    0.016793
    53  H    0.011223
    54  H    0.044074
    55  H    0.017930
    56  H    0.018036
    57  H    0.005963
    58  H    0.026982
    59  H    0.039862
    60  H    0.037430
    61  H    0.035894
    62  H    0.031726
    63  H    0.016391
    64  H    0.009478
    65  H    0.023193
    66  H    0.012719
    67  H    0.004751
    68  H    0.006218
    69  H    0.004569
    70  H    0.008715
    71  H    0.017391
    72  H    0.029179
    73  H    0.047429
    74  H    0.008848
    75  H    0.046067
    76  H    0.035218
    77  H    0.043024
    78  H    0.046437
    79  H    0.053711
    80  Mg   0.837942
    81  C   -0.016868
    82  C   -0.087693
    83  C   -0.045231
    84  C   -0.064876
    85  N   -0.254567
    86  C   -0.049894
    87  C   -0.015104
    88  C   -0.090528
    89  C    0.045813
    90  C    0.114318
    91  C    0.062538
    92  C   -0.077821
    93  H    0.034661
    94  N   -0.423600
    95  C    0.163043
    96  C   -0.174294
    97  C   -0.007559
    98  C    0.152195
    99  C    0.099219
   100  C    0.015763
   101  O   -0.252957
   102  C    0.061162
   103  N   -0.350031
   104  C    0.037703
   105  C   -0.019940
   106  C   -0.034690
   107  C    0.088895
   108  C    0.073465
   109  C    0.034757
   110  C   -0.007637
   111  N   -0.324033
   112  C    0.078362
   113  C   -0.163356
   114  C    0.002117
   115  C    0.096144
   116  C    0.131519
   117  C    0.042201
   118  O   -0.188295
   119  C    0.000949
   120  C    0.211213
   121  O   -0.251098
   122  O   -0.305605
   123  C    0.152088
   124  H   -0.019440
   125  H   -0.015305
   126  H   -0.040779
   127  H   -0.000681
   128  H   -0.004406
   129  H    0.022497
   130  H    0.014862
   131  H    0.016302
   132  H    0.013888
   133  H    0.037575
   134  H    0.020810
   135  H    0.019575
   136  H    0.008763
   137  H    0.026688
   138  H    0.039716
   139  H    0.038597
   140  H    0.036475
   141  H    0.033679
   142  H    0.014304
   143  H    0.012303
   144  H    0.025223
   145  H    0.012493
   146  H    0.005688
   147  H    0.006187
   148  H    0.003350
   149  H    0.010972
   150  H    0.017683
   151  H    0.030140
   152  H    0.045753
   153  H    0.008312
   154  H    0.046618
   155  H    0.035006
   156  H    0.043771
   157  H    0.049522
   158  H    0.053470
 Sum of Mulliken charges =  -0.00000

 Dipole moment (field-independent basis, Debye):
    X=             -3.9030    Y=             -1.4226    Z=              0.2223  Tot=              4.1602
 Quadrupole moment (field-independent basis, Debye-Ang):
   XX=           -521.2987   YY=           -549.1296   ZZ=           -448.6043
   XY=             23.4599   XZ=             69.8284   YZ=            -45.1903

 Normal termination of Gaussian 16 at Sat Sep  4 13:20:05 2021.
