 Gaussian 16, Revision A.03,
 Gaussian 16:  ES64L-G16RevA.03 25-Dec-2016

 -----------------------------------
 #p cam-b3lyp/Def2SVP td=(nstates=5)
 -----------------------------------

 --------------------------------
 TDDFT excited states in gaussian
 --------------------------------
 Symbolic Z-matrix:
 Charge =  0 Multiplicity = 1

                         Standard orientation:
 ---------------------------------------------------------------------
 Center     Atomic      Atomic             Coordinates (Angstroms)
 Number     Number       Type             X           Y           Z
 ---------------------------------------------------------------------
      1         12           0        5.473502   -0.319162   -0.028114
      2          6           0        5.393256    2.929671   -1.528400
      3          6           0        6.317952    1.216976    2.899385
      4          6           0        5.993869   -3.194405    1.204289
      5          6           0        5.744665   -1.635377   -3.243656
      6          7           0        5.783987    1.809711    0.493561
      7          6           0        5.663797    2.961858   -0.158577
      8          6           0        5.777666    4.210242    0.766596
      9          6           0        6.614058    3.563640    1.960059
     10          6           0        6.187311    2.115248    1.798898
     11          6           0        8.124094    3.655350    1.765425
     12          6           0        4.379327    4.717173    1.255880
     13          6           0        4.374830    6.111386    1.889523
     14          1           0        3.225331    6.976332    1.670737
     15          7           0        5.589024   -0.904016    1.855354
     16          6           0        5.932132   -0.140800    2.920748
     17          6           0        5.871021   -1.033399    4.098123
     18          6           0        5.649361   -2.421416    3.605812
     19          6           0        5.762853   -2.230095    2.182473
     20          6           0        5.968164   -0.541399    5.509593
     21          6           0        5.388689   -3.716776    4.307401
     22          8           0        5.456446   -4.842325    3.704805
     23          6           0        5.135500   -3.639106    5.757540
     24          7           0        6.040706   -2.143396   -0.869591
     25          6           0        6.138211   -3.247818   -0.121440
     26          6           0        6.277750   -4.474166   -0.973812
     27          6           0        6.010407   -4.001569   -2.475455
     28          6           0        5.834383   -2.484718   -2.217674
     29          6           0        7.632778   -5.191222   -0.898054
     30          6           0        4.904432   -4.749334   -3.261641
     31          6           0        3.551894   -4.450215   -2.654792
     32          7           0        5.379573    0.458726   -2.052246
     33          6           0        5.541682   -0.265461   -3.242182
     34          6           0        5.503018    0.707967   -4.348984
     35          6           0        5.336624    1.940701   -3.720871
     36          6           0        5.301559    1.752307   -2.309641
     37          6           0        5.673144    0.407598   -5.729299
     38          6           0        5.205001    3.375916   -3.912418
     39          8           0        5.073631    4.111627   -4.891685
     40          6           0        5.358641    4.086671   -2.495715
     41          6           0        4.237921    5.081412   -2.362350
     42          8           0        3.052315    4.701606   -2.276021
     43          8           0        4.749732    6.297823   -2.119585
     44          6           0        3.689390    7.326495   -1.947358
     45          1           0        6.813525    1.564143    3.808133
     46          1           0        6.068289   -4.216691    1.580894
     47          1           0        5.738118   -1.981785   -4.278746
     48          1           0        6.328917    5.046347    0.335926
     49          1           0        6.299482    3.945565    2.931088
     50          1           0        8.375828    4.035612    0.775500
     51          1           0        8.495716    2.637848    1.888220
     52          1           0        8.582674    4.240155    2.563225
     53          1           0        4.061219    4.123024    2.112534
     54          1           0        3.652480    4.688085    0.443368
     55          1           0        5.301237    6.647134    1.680593
     56          1           0        4.368275    5.994010    2.973211
     57          1           0        6.294008    0.497218    5.550154
     58          1           0        6.774981   -1.098004    5.985982
     59          1           0        5.040685   -0.693318    6.061893
     60          1           0        5.994117   -3.180790    6.248735
     61          1           0        4.881605   -4.650461    6.073054
     62          1           0        4.290230   -2.973067    5.933212
     63          1           0        5.539921   -5.227042   -0.699564
     64          1           0        6.897434   -4.105054   -3.100873
     65          1           0        7.558121   -6.238590   -0.604539
     66          1           0        8.269548   -4.636554   -0.209462
     67          1           0        8.221142   -5.154649   -1.814519
     68          1           0        5.054518   -5.826392   -3.195569
     69          1           0        4.872613   -4.483110   -4.318222
     70          1           0        3.490439   -5.163421   -1.833578
     71          1           0        2.760490   -4.625608   -3.384263
     72          1           0        3.522494   -3.450485   -2.221016
     73          1           0        4.915007    0.981509   -6.262051
     74          1           0        5.566858   -0.660409   -5.918157
     75          1           0        6.691939    0.760467   -5.888665
     76          1           0        6.336056    4.568083   -2.490891
     77          1           0        3.891509    8.119493   -2.667453
     78          1           0        3.684321    7.592298   -0.890132
     79          1           0        2.681042    7.033342   -2.241697
     80         12           0       -5.076512   -1.100986    0.273266
     81          6           0       -7.455592    1.574479    0.026435
     82          6           0       -2.750980    1.244985    1.123529
     83          6           0       -2.861894   -3.363265    0.061137
     84          6           0       -7.244048   -3.021677   -1.665393
     85          7           0       -5.207770    1.094041    0.511751
     86          6           0       -6.177980    1.993764    0.452272
     87          6           0       -5.775195    3.407871    0.949903
     88          6           0       -4.190704    3.305012    0.709752
     89          6           0       -4.024226    1.790972    0.822124
     90          6           0       -3.764658    3.730110   -0.685636
     91          6           0       -6.113312    3.626631    2.466429
     92          6           0       -6.033015    5.079527    2.940118
     93          1           0       -6.984793    5.536278    3.949062
     94          7           0       -3.234519   -1.168005    1.008908
     95          6           0       -2.442961   -0.119488    1.317647
     96          6           0       -1.180163   -0.697756    1.802531
     97          6           0       -1.230571   -2.171203    1.599712
     98          6           0       -2.462749   -2.291610    0.846499
     99          6           0       -0.109897    0.122495    2.462176
    100          6           0       -0.314067   -3.285920    2.004234
    101          8           0       -0.432026   -4.465263    1.516307
    102          6           0        0.783255   -2.933860    2.917153
    103          7           0       -4.953239   -2.853618   -0.838232
    104          6           0       -3.905057   -3.685034   -0.704103
    105          6           0       -4.164384   -5.004870   -1.390519
    106          6           0       -5.707578   -4.975494   -1.809170
    107          6           0       -6.066709   -3.544736   -1.351625
    108          6           0       -3.308224   -5.292936   -2.623561
    109          6           0       -6.592875   -6.153024   -1.316894
    110          6           0       -6.737859   -6.096186    0.186807
    111          7           0       -7.078480   -0.875903   -0.507447
    112          6           0       -7.786211   -1.791188   -1.317037
    113          6           0       -9.061887   -1.146373   -1.690242
    114          6           0       -8.997269    0.118261   -1.086073
    115          6           0       -7.759412    0.259787   -0.402584
    116          6           0      -10.066095   -1.711007   -2.526239
    117          6           0       -9.690209    1.369683   -0.879963
    118          8           0      -10.812958    1.795389   -1.148206
    119          6           0       -8.669156    2.415934   -0.256129
    120          6           0       -9.344284    3.085516    0.909370
    121          8           0       -9.647875    2.433401    1.923856
    122          8           0       -9.323287    4.418110    0.724631
    123          6           0       -9.971706    5.126854    1.859994
    124          1           0       -1.896178    1.919894    1.175605
    125          1           0       -2.179750   -4.216442    0.045766
    126          1           0       -8.016038   -3.592017   -2.186384
    127          1           0       -6.186433    4.226955    0.372185
    128          1           0       -3.638129    3.808950    1.498483
    129          1           0       -4.613412    3.919553   -1.325838
    130          1           0       -3.172605    2.911989   -1.074465
    131          1           0       -3.090460    4.589489   -0.628515
    132          1           0       -5.316140    3.185192    3.078308
    133          1           0       -7.077876    3.221890    2.703968
    134          1           0       -5.994083    5.785023    2.101252
    135          1           0       -5.080833    5.224099    3.456323
    136          1           0       -0.281896    1.196675    2.320919
    137          1           0        0.822957   -0.076354    1.923559
    138          1           0        0.028320   -0.133529    3.514796
    139          1           0        1.399626   -2.163085    2.460604
    140          1           0        1.274517   -3.877755    3.161278
    141          1           0        0.355379   -2.497115    3.826435
    142          1           0       -4.000131   -5.832675   -0.711648
    143          1           0       -5.833877   -4.997067   -2.901600
    144          1           0       -2.735097   -6.236139   -2.546323
    145          1           0       -2.642039   -4.454903   -2.779910
    146          1           0       -3.853333   -5.333518   -3.565056
    147          1           0       -6.114510   -7.108285   -1.546692
    148          1           0       -7.579222   -6.169956   -1.768358
    149          1           0       -5.825736   -6.585484    0.541345
    150          1           0       -7.625992   -6.637391    0.506758
    151          1           0       -6.717035   -5.060483    0.545336
    152          1           0      -11.017438   -1.499444   -2.056476
    153          1           0       -9.916978   -2.780418   -2.660003
    154          1           0       -9.887783   -1.153050   -3.449363
    155          1           0       -8.407613    3.126471   -1.041176
    156          1           0      -10.759690    5.756536    1.435390
    157          1           0       -9.152877    5.639494    2.398943
    158          1           0      -10.535931    4.529904    2.566922
 ---------------------------------------------------------------------

 SCF Done:  E(RCAM-B3LYP) =  -4069.81196853     A.U. after   19 cycles

 Excitation energies and oscillator strengths:

 Excited State   1:      Singlet-A      1.6583 eV  747.68 nm  f=0.2527  <S**2>=0.000
     309 -> 315       -0.11509
     310 -> 316        0.12469
     311 -> 313       -0.46478
     312 -> 314        0.50594
 This state for optimization and/or second-order correction.
 Total Energy, E(TD-HF/TD-DFT) =  -4069.75102876
 Copying the excited state density for this state as the 1-particle RhoCI density.

 Excited State   2:      Singlet-A      1.6896 eV  733.79 nm  f=0.5204  <S**2>=0.000
     309 -> 315        0.13226
     310 -> 316        0.11956
     311 -> 313        0.50433
     312 -> 314        0.46344

 Excited State   3:      Singlet-A      2.1825 eV  568.08 nm  f=0.0193  <S**2>=0.000
     309 -> 313        0.29086
     310 -> 314        0.57495
     311 -> 315       -0.12108
     312 -> 316       -0.24128

 Excited State   4:      Singlet-A      2.1957 eV  564.68 nm  f=0.1602  <S**2>=0.000
     309 -> 313        0.57107
     310 -> 314       -0.28757
     311 -> 315       -0.25102
     312 -> 316        0.12568

 Excited State   5:      Singlet-A      2.4004 eV  516.52 nm  f=0.0000  <S**2>=0.000
     312 -> 313        0.70660

 The electronic state is 1-A.
 Alpha  occ. eigenvalues --  -46.88074 -46.87479 -19.26617 -19.26225 -19.19368
 Alpha  occ. eigenvalues --  -19.19032 -19.19017 -19.18514 -19.18428 -19.17890
 Alpha  occ. eigenvalues --  -14.42724 -14.42305 -14.41677 -14.41184 -14.39687
 Alpha  occ. eigenvalues --  -14.39169 -14.38847 -14.38424 -10.39418 -10.38957
 Alpha  occ. eigenvalues --  -10.35648 -10.35191 -10.34651 -10.34068 -10.32020
 Alpha  occ. eigenvalues --  -10.31673 -10.31653 -10.31199 -10.31107 -10.30833
 Alpha  occ. eigenvalues --  -10.30831 -10.30753 -10.30414 -10.30225 -10.30181
 Alpha  occ. eigenvalues --  -10.30113 -10.29967 -10.29869 -10.29730 -10.29506
 Alpha  occ. eigenvalues --  -10.29254 -10.29232 -10.29077 -10.28947 -10.28636
 Alpha  occ. eigenvalues --  -10.28545 -10.28521 -10.28411 -10.28223 -10.28047
 Alpha  occ. eigenvalues --  -10.27987 -10.27895 -10.27840 -10.27824 -10.27747
 Alpha  occ. eigenvalues --  -10.27669 -10.27585 -10.27524 -10.27454 -10.27440
 Alpha  occ. eigenvalues --  -10.27378 -10.27328 -10.27305 -10.27293 -10.27240
 Alpha  occ. eigenvalues --  -10.27128 -10.26889 -10.26619 -10.26549 -10.26486
 Alpha  occ. eigenvalues --  -10.26234 -10.26184 -10.26160 -10.26040 -10.26020
 Alpha  occ. eigenvalues --  -10.25764 -10.25702 -10.25656 -10.25507 -10.25280
 Alpha  occ. eigenvalues --  -10.25088 -10.25005 -10.24698 -10.24618 -10.24544
 Alpha  occ. eigenvalues --  -10.24517  -3.16818  -3.16229  -1.91701  -1.91285
 Alpha  occ. eigenvalues --   -1.91128  -1.91111  -1.90700  -1.90537  -1.16968
 Alpha  occ. eigenvalues --   -1.16518  -1.08889  -1.08501  -1.07410  -1.06985
 Alpha  occ. eigenvalues --   -1.06816  -1.06763  -1.04856  -1.04304  -1.04000
 Alpha  occ. eigenvalues --   -1.03485  -1.03482  -1.02864  -1.02655  -1.01934
 Alpha  occ. eigenvalues --   -0.92235  -0.91812  -0.89676  -0.89491  -0.89337
 Alpha  occ. eigenvalues --   -0.88936  -0.88419  -0.88107  -0.88071  -0.87933
 Alpha  occ. eigenvalues --   -0.87627  -0.87522  -0.87500  -0.86944  -0.85274
 Alpha  occ. eigenvalues --   -0.84809  -0.84048  -0.83736  -0.83155  -0.82905
 Alpha  occ. eigenvalues --   -0.82749  -0.82459  -0.81861  -0.81444  -0.80855
 Alpha  occ. eigenvalues --   -0.80274  -0.79043  -0.78460  -0.77453  -0.77176
 Alpha  occ. eigenvalues --   -0.76971  -0.76733  -0.76189  -0.75645  -0.75049
 Alpha  occ. eigenvalues --   -0.74653  -0.73003  -0.72524  -0.71901  -0.71395
 Alpha  occ. eigenvalues --   -0.69964  -0.69618  -0.69145  -0.68641  -0.67887
 Alpha  occ. eigenvalues --   -0.67530  -0.67430  -0.67030  -0.65580  -0.65103
 Alpha  occ. eigenvalues --   -0.65089  -0.64860  -0.64599  -0.64483  -0.64414
 Alpha  occ. eigenvalues --   -0.64049  -0.62567  -0.62131  -0.60663  -0.60167
 Alpha  occ. eigenvalues --   -0.60092  -0.59596  -0.59219  -0.58820  -0.58738
 Alpha  occ. eigenvalues --   -0.58258  -0.57865  -0.57505  -0.57399  -0.57075
 Alpha  occ. eigenvalues --   -0.56556  -0.56279  -0.56032  -0.55762  -0.55737
 Alpha  occ. eigenvalues --   -0.55516  -0.55273  -0.55102  -0.54714  -0.54347
 Alpha  occ. eigenvalues --   -0.54203  -0.53708  -0.53525  -0.53495  -0.53175
 Alpha  occ. eigenvalues --   -0.53057  -0.53017  -0.52965  -0.52735  -0.52475
 Alpha  occ. eigenvalues --   -0.52471  -0.52266  -0.52132  -0.51914  -0.51727
 Alpha  occ. eigenvalues --   -0.51474  -0.51419  -0.51037  -0.50805  -0.50300
 Alpha  occ. eigenvalues --   -0.50216  -0.50092  -0.49795  -0.49775  -0.49695
 Alpha  occ. eigenvalues --   -0.49473  -0.49359  -0.49284  -0.49016  -0.48902
 Alpha  occ. eigenvalues --   -0.48859  -0.48678  -0.48616  -0.48377  -0.48229
 Alpha  occ. eigenvalues --   -0.48151  -0.47927  -0.47523  -0.47417  -0.47014
 Alpha  occ. eigenvalues --   -0.46952  -0.46847  -0.46586  -0.46539  -0.46369
 Alpha  occ. eigenvalues --   -0.46360  -0.46108  -0.46077  -0.45934  -0.45665
 Alpha  occ. eigenvalues --   -0.45345  -0.45058  -0.44829  -0.44732  -0.44373
 Alpha  occ. eigenvalues --   -0.44355  -0.44309  -0.44275  -0.44247  -0.43931
 Alpha  occ. eigenvalues --   -0.43920  -0.43753  -0.43746  -0.43622  -0.43407
 Alpha  occ. eigenvalues --   -0.43257  -0.43209  -0.42993  -0.42788  -0.42764
 Alpha  occ. eigenvalues --   -0.42737  -0.42399  -0.42167  -0.41942  -0.41813
 Alpha  occ. eigenvalues --   -0.41791  -0.41497  -0.41379  -0.41286  -0.41122
 Alpha  occ. eigenvalues --   -0.41058  -0.40791  -0.40694  -0.40579  -0.40543
 Alpha  occ. eigenvalues --   -0.40513  -0.40332  -0.40060  -0.39471  -0.39290
 Alpha  occ. eigenvalues --   -0.38628  -0.38198  -0.38080  -0.37567  -0.37496
 Alpha  occ. eigenvalues --   -0.37489  -0.37103  -0.37017  -0.36996  -0.36639
 Alpha  occ. eigenvalues --   -0.36418  -0.36060  -0.34536  -0.34103  -0.34077
 Alpha  occ. eigenvalues --   -0.33723  -0.33437  -0.32996  -0.31539  -0.31277
 Alpha  occ. eigenvalues --   -0.31070  -0.30789  -0.30289  -0.29796  -0.29712
 Alpha  occ. eigenvalues --   -0.29577  -0.29153  -0.29039  -0.24334  -0.23853
 Alpha  occ. eigenvalues --   -0.21374  -0.20937
 Alpha virt. eigenvalues --   -0.09025  -0.08614  -0.01994  -0.01504  -0.00310
 Alpha virt. eigenvalues --    0.00160   0.01943   0.02169   0.02396   0.03382
 Alpha virt. eigenvalues --    0.04434   0.04769   0.04916   0.05303   0.05810

 Mulliken charges:
               1
     1  Mg   0.832813
     2  C   -0.003841
     3  C   -0.094922
     4  C   -0.043660
     5  C   -0.062888
     6  N   -0.256827
     7  C   -0.053394
     8  C   -0.013544
     9  C   -0.086683
    10  C    0.045126
    11  C    0.104684
    12  C    0.053591
    13  C   -0.071527
    14  H    0.034532
    15  N   -0.434180
    16  C    0.166914
    17  C   -0.178862
    18  C   -0.005095
    19  C    0.146791
    20  C    0.110429
    21  C    0.012022
    22  O   -0.247157
    23  C    0.062803
    24  N   -0.341127
    25  C    0.041338
    26  C   -0.028613
    27  C   -0.024273
    28  C    0.075598
    29  C    0.075880
    30  C    0.034618
    31  C   -0.004351
    32  N   -0.310837
    33  C    0.080822
    34  C   -0.169063
    35  C    0.008531
    36  C    0.082834
    37  C    0.127228
    38  C    0.046175
    39  O   -0.187915
    40  C   -0.005391
    41  C    0.213265
    42  O   -0.258924
    43  O   -0.304250
    44  C    0.157702
    45  H   -0.017487
    46  H   -0.015054
    47  H   -0.040390
    48  H    0.001522
    49  H   -0.004456
    50  H    0.025792
    51  H    0.017065
    52  H    0.017077
    53  H    0.009064
    54  H    0.042211
    55  H    0.019330
    56  H    0.018097
    57  H    0.005829
    58  H    0.027809
    59  H    0.037930
    60  H    0.037777
    61  H    0.037374
    62  H    0.029063
    63  H    0.019480
    64  H    0.009532
    65  H    0.024291
    66  H    0.012105
    67  H    0.004903
    68  H    0.007105
    69  H    0.004001
    70  H    0.013902
    71  H    0.018779
    72  H    0.027597
    73  H    0.047870
    74  H    0.009959
    75  H    0.046467
    76  H    0.035694
    77  H    0.043958
    78  H    0.046119
    79  H    0.052645
    80  Mg   0.838026
    81  C   -0.016877
    82  C   -0.087614
    83  C   -0.045488
    84  C   -0.064964
    85  N   -0.254631
    86  C   -0.049588
    87  C   -0.015186
    88  C   -0.090343
    89  C    0.045268
    90  C    0.113938
    91  C    0.062712
    92  C   -0.077329
    93  H    0.033760
    94  N   -0.423681
    95  C    0.162929
    96  C   -0.175413
    97  C   -0.008134
    98  C    0.152560
    99  C    0.101058
   100  C    0.014414
   101  O   -0.252487
   102  C    0.057971
   103  N   -0.349949
   104  C    0.037694
   105  C   -0.019848
   106  C   -0.034732
   107  C    0.088824
   108  C    0.073691
   109  C    0.034864
   110  C   -0.007601
   111  N   -0.324015
   112  C    0.078325
   113  C   -0.163410
   114  C    0.002190
   115  C    0.096057
   116  C    0.131530
   117  C    0.042167
   118  O   -0.188460
   119  C    0.001003
   120  C    0.211156
   121  O   -0.251369
   122  O   -0.305460
   123  C    0.152218
   124  H   -0.016296
   125  H   -0.015819
   126  H   -0.040909
   127  H   -0.000668
   128  H   -0.005119
   129  H    0.021812
   130  H    0.017709
   131  H    0.018313
   132  H    0.013324
   133  H    0.037267
   134  H    0.021014
   135  H    0.018962
   136  H    0.009944
   137  H    0.026564
   138  H    0.037253
   139  H    0.041107
   140  H    0.041818
   141  H    0.030307
   142  H    0.014173
   143  H    0.012232
   144  H    0.024295
   145  H    0.012065
   146  H    0.005433
   147  H    0.005818
   148  H    0.003433
   149  H    0.010829
   150  H    0.017537
   151  H    0.030269
   152  H    0.045563
   153  H    0.008155
   154  H    0.046938
   155  H    0.035331
   156  H    0.043664
   157  H    0.049327
   158  H    0.053244
 Sum of Mulliken charges =  -0.00000

 Dipole moment (field-independent basis, Debye):
    X=              6.4695    Y=              2.0123    Z=              3.9417  Tot=              7.8384
 Quadrupole moment (field-independent basis, Debye-Ang):
   XX=           -554.0513   YY=           -487.9156   ZZ=           -498.9864
   XY=             17.7734   XZ=             23.6327   YZ=             53.8918

 Normal termination of Gaussian 16 at Sat Sep 11 01:06:20 2021.
