 Gaussian 16, Revision A.03,
 Gaussian 16:  ES64L-G16RevA.03 25-Dec-2016

 -----------------------------------
 #p cam-b3lyp/Def2SVP td=(nstates=5)
 -----------------------------------

 --------------------------------
 TDDFT excited states in gaussian
 --------------------------------
 Symbolic Z-matrix:
 Charge =  0 Multiplicity = 1

                         Standard orientation:
 ---------------------------------------------------------------------
 Center     Atomic      Atomic             Coordinates (Angstroms)
 Number     Number       Type             X           Y           Z
 ---------------------------------------------------------------------
      1         12           0        6.473800    0.852578    0.419432
      2          6           0        7.129423   -2.337031   -1.066758
      3          6           0        7.191670    2.245951   -2.611449
      4          6           0        6.344863    3.695853    1.817926
      5          6           0        6.919778   -0.667222    3.523780
      6          7           0        7.070191   -0.037391   -1.517813
      7          6           0        7.228024   -1.277127   -1.970929
      8          6           0        7.433605   -1.349590   -3.513608
      9          6           0        7.993381    0.122402   -3.762381
     10          6           0        7.352666    0.828852   -2.580714
     11          6           0        9.509644    0.227371   -3.634199
     12          6           0        6.090387   -1.589132   -4.281798
     13          6           0        6.241225   -1.995957   -5.750504
     14          1           0        5.290104   -2.940443   -6.316772
     15          7           0        6.252796    2.654615   -0.359460
     16          6           0        6.583384    3.040137   -1.615394
     17          6           0        6.226231    4.472011   -1.709511
     18          6           0        5.837624    4.934473   -0.348185
     19          6           0        6.158811    3.771904    0.439628
     20          6           0        6.227413    5.237422   -2.997104
     21          6           0        5.277118    6.223798    0.163288
     22          8           0        5.229437    6.497197    1.411308
     23          6           0        4.861225    7.208095   -0.852209
     24          7           0        6.826840    1.490277    2.375535
     25          6           0        6.642844    2.767096    2.728895
     26          6           0        6.679641    2.931892    4.219340
     27          6           0        6.685555    1.455391    4.827339
     28          6           0        6.736318    0.654884    3.502620
     29          6           0        7.874491    3.718001    4.776456
     30          6           0        5.576721    1.113183    5.853887
     31          6           0        4.228630    1.102134    5.168595
     32          7           0        6.765979   -1.172139    1.144826
     33          6           0        6.951528   -1.572271    2.476043
     34          6           0        7.215888   -3.022743    2.458300
     35          6           0        7.181957   -3.364854    1.107873
     36          6           0        6.939462   -2.197171    0.329410
     37          6           0        7.504371   -3.831197    3.593030
     38          6           0        7.318608   -4.440967    0.139800
     39          8           0        7.436387   -5.664905    0.214608
     40          6           0        7.411169   -3.798175   -1.314187
     41          6           0        6.465969   -4.555217   -2.206821
     42          8           0        5.232022   -4.493101   -2.031088
     43          8           0        7.140634   -5.036806   -3.262018
     44          6           0        6.255317   -5.773851   -4.202831
     45          1           0        7.620955    2.808021   -3.443153
     46          1           0        6.198583    4.638108    2.350089
     47          1           0        6.984588   -1.224400    4.460158
     48          1           0        8.167105   -2.086962   -3.840234
     49          1           0        7.628568    0.543627   -4.698972
     50          1           0        9.943566   -0.701919   -3.265347
     51          1           0        9.686516    1.037413   -2.926357
     52          1           0        9.956603    0.548873   -4.575284
     53          1           0        5.572262   -0.638116   -4.404984
     54          1           0        5.476428   -2.327212   -3.764480
     55          1           0        7.263296   -2.301190   -5.976588
     56          1           0        6.079521   -1.112354   -6.367997
     57          1           0        6.715632    4.678769   -3.794658
     58          1           0        6.863103    6.110026   -2.848209
     59          1           0        5.225901    5.557086   -3.285410
     60          1           0        5.716413    7.461747   -1.478998
     61          1           0        4.403404    8.030668   -0.303917
     62          1           0        4.124780    6.746457   -1.510607
     63          1           0        5.797271    3.461574    4.576113
     64          1           0        7.613703    1.233963    5.354772
     65          1           0        7.588620    4.583461    5.374755
     66          1           0        8.504273    4.013213    3.937698
     67          1           0        8.570571    3.129382    5.373463
     68          1           0        5.534057    1.873115    6.633392
     69          1           0        5.722547    0.148071    6.339217
     70          1           0        3.945864    2.154213    5.170682
     71          1           0        3.516552    0.505347    5.739561
     72          1           0        4.313770    0.789669    4.127632
     73          1           0        6.926241   -4.746952    3.470037
     74          1           0        7.244441   -3.320100    4.519755
     75          1           0        8.579818   -3.965038    3.477456
     76          1           0        8.447238   -3.898753   -1.636006
     77          1           0        6.676393   -6.771897   -4.324620
     78          1           0        6.162824   -5.151605   -5.093146
     79          1           0        5.256880   -6.015047   -3.836378
     80         12           0       -6.639902   -0.944191    0.312110
     81          6           0       -6.834835    2.104880   -1.570504
     82          6           0       -6.041538    0.971938    3.069825
     83          6           0       -6.016930   -3.613920    1.909566
     84          6           0       -6.115292   -2.609930   -2.703813
     85          7           0       -6.483065    1.244867    0.587199
     86          6           0       -6.636473    2.307250   -0.188795
     87          6           0       -6.653904    3.661117    0.570355
     88          6           0       -5.836706    3.213887    1.878416
     89          6           0       -6.164196    1.722112    1.873046
     90          6           0       -4.332541    3.373211    1.732021
     91          6           0       -8.108556    4.124690    0.932433
     92          6           0       -8.223367    5.578158    1.397170
     93          1           0       -9.416050    6.335108    1.027010
     94          7           0       -6.592726   -1.290574    2.265657
     95          6           0       -6.358287   -0.392994    3.245802
     96          6           0       -6.410991   -1.150318    4.505899
     97          6           0       -6.532117   -2.597090    4.178940
     98          6           0       -6.360599   -2.557516    2.740501
     99          6           0       -6.426984   -0.488287    5.853074
    100          6           0       -6.751569   -3.816057    5.022833
    101          8           0       -6.586031   -4.997750    4.554818
    102          6           0       -7.074995   -3.584064    6.438127
    103          7           0       -5.929274   -2.806899   -0.277532
    104          6           0       -5.799304   -3.809524    0.608913
    105          6           0       -5.537659   -5.123351   -0.088081
    106          6           0       -5.760161   -4.835330   -1.645358
    107          6           0       -6.036912   -3.317053   -1.584882
    108          6           0       -4.148350   -5.724148    0.124680
    109          6           0       -6.776781   -5.742861   -2.390695
    110          6           0       -8.175415   -5.477043   -1.882204
    111          7           0       -6.678778   -0.417442   -1.782907
    112          6           0       -6.404117   -1.262768   -2.880209
    113          6           0       -6.444106   -0.424691   -4.096122
    114          6           0       -6.718697    0.864647   -3.615825
    115          6           0       -6.821204    0.836064   -2.198722
    116          6           0       -6.194348   -0.872766   -5.423895
    117          6           0       -6.934630    2.245281   -3.984498
    118          8           0       -7.051322    2.852301   -5.048292
    119          6           0       -6.894153    3.132586   -2.666372
    120          6           0       -8.078255    4.059761   -2.694039
    121          8           0       -9.235503    3.609182   -2.627852
    122          8           0       -7.647144    5.328745   -2.574934
    123          6           0       -8.786124    6.284995   -2.586041
    124          1           0       -5.623379    1.462637    3.949176
    125          1           0       -5.900118   -4.582222    2.401724
    126          1           0       -6.058998   -3.072191   -3.691653
    127          1           0       -6.137559    4.470303    0.067961
    128          1           0       -6.232634    3.687955    2.772773
    129          1           0       -4.052743    3.650623    0.726589
    130          1           0       -3.908307    2.412017    1.991231
    131          1           0       -3.954173    4.080133    2.475955
    132          1           0       -8.431633    3.609237    1.846032
    133          1           0       -8.778226    3.953626    0.112117
    134          1           0       -7.317545    6.154975    1.174186
    135          1           0       -8.286737    5.589735    2.487973
    136          1           0       -6.160394    0.573491    5.782686
    137          1           0       -5.615147   -0.933970    6.438028
    138          1           0       -7.369093   -0.637941    6.384779
    139          1           0       -6.274245   -3.013645    6.902748
    140          1           0       -7.283905   -4.570905    6.855714
    141          1           0       -7.976554   -2.963820    6.493858
    142          1           0       -6.243467   -5.879191    0.233862
    143          1           0       -4.831041   -4.962751   -2.220108
    144          1           0       -4.174921   -6.746900    0.545802
    145          1           0       -3.585195   -5.062123    0.768968
    146          1           0       -3.522813   -5.767702   -0.765270
    147          1           0       -6.566603   -6.795341   -2.185099
    148          1           0       -6.760459   -5.615668   -3.467982
    149          1           0       -8.231155   -6.093158   -0.979771
    150          1           0       -8.915555   -5.786177   -2.617510
    151          1           0       -8.290282   -4.431101   -1.574860
    152          1           0       -6.949038   -0.419320   -6.052646
    153          1           0       -6.221565   -1.958503   -5.488833
    154          1           0       -5.186541   -0.477540   -5.576784
    155          1           0       -5.948543    3.676088   -2.666234
    156          1           0       -8.591669    7.004194   -3.387688
    157          1           0       -8.851327    6.683922   -1.556310
    158          1           0       -9.758200    5.903292   -2.875561
 ---------------------------------------------------------------------

 SCF Done:  E(RCAM-B3LYP) =  -4069.81188376     A.U. after   19 cycles

 Excitation energies and oscillator strengths:

 Excited State   1:      Singlet-A      1.6702 eV  742.33 nm  f=0.1686  <S**2>=0.000
     310 -> 316        0.14224
     311 -> 313        0.38852
     312 -> 314        0.56580
 This state for optimization and/or second-order correction.
 Total Energy, E(TD-HF/TD-DFT) =  -4069.75050485
 Copying the excited state density for this state as the 1-particle RhoCI density.

 Excited State   2:      Singlet-A      1.6839 eV  736.30 nm  f=0.5674  <S**2>=0.000
     309 -> 315        0.14545
     311 -> 313        0.56498
     312 -> 314       -0.38800

 Excited State   3:      Singlet-A      2.1851 eV  567.40 nm  f=0.0756  <S**2>=0.000
     309 -> 313        0.14637
     310 -> 314        0.62606
     312 -> 316       -0.26509

 Excited State   4:      Singlet-A      2.1930 eV  565.36 nm  f=0.1195  <S**2>=0.000
     309 -> 313        0.62383
     310 -> 314       -0.14530
     311 -> 315       -0.27111

 Excited State   5:      Singlet-A      2.6507 eV  467.74 nm  f=0.0000  <S**2>=0.000
     312 -> 313        0.70710

 The electronic state is 1-A.
 Alpha  occ. eigenvalues --  -46.87855 -46.87555 -19.26327 -19.26310 -19.19112
 Alpha  occ. eigenvalues --  -19.19067 -19.18883 -19.18612 -19.18218 -19.17983
 Alpha  occ. eigenvalues --  -14.42504 -14.42395 -14.41512 -14.41246 -14.39461
 Alpha  occ. eigenvalues --  -14.39249 -14.38643 -14.38501 -10.39126 -10.39040
 Alpha  occ. eigenvalues --  -10.35516 -10.35289 -10.34438 -10.34161 -10.31729
 Alpha  occ. eigenvalues --  -10.31720 -10.31454 -10.31215 -10.30959 -10.30925
 Alpha  occ. eigenvalues --  -10.30623 -10.30569 -10.30296 -10.30273 -10.30268
 Alpha  occ. eigenvalues --  -10.30019 -10.29987 -10.29777 -10.29687 -10.29330
 Alpha  occ. eigenvalues --  -10.29311 -10.29307 -10.28786 -10.28637 -10.28596
 Alpha  occ. eigenvalues --  -10.28557 -10.28418 -10.28308 -10.28152 -10.28049
 Alpha  occ. eigenvalues --  -10.27908 -10.27846 -10.27778 -10.27640 -10.27587
 Alpha  occ. eigenvalues --  -10.27568 -10.27536 -10.27515 -10.27458 -10.27386
 Alpha  occ. eigenvalues --  -10.27379 -10.27371 -10.27369 -10.27212 -10.27206
 Alpha  occ. eigenvalues --  -10.26984 -10.26734 -10.26623 -10.26471 -10.26322
 Alpha  occ. eigenvalues --  -10.26294 -10.26266 -10.26082 -10.26009 -10.25921
 Alpha  occ. eigenvalues --  -10.25893 -10.25825 -10.25783 -10.25517 -10.25164
 Alpha  occ. eigenvalues --  -10.24886 -10.24851 -10.24820 -10.24782 -10.24618
 Alpha  occ. eigenvalues --  -10.24576  -3.16598  -3.16305  -1.91480  -1.91187
 Alpha  occ. eigenvalues --   -1.91066  -1.90908  -1.90776  -1.90613  -1.16676
 Alpha  occ. eigenvalues --   -1.16601  -1.08675  -1.08595  -1.07286  -1.06897
 Alpha  occ. eigenvalues --   -1.06863  -1.06689  -1.04634  -1.04396  -1.03821
 Alpha  occ. eigenvalues --   -1.03558  -1.03292  -1.02930  -1.02470  -1.02006
 Alpha  occ. eigenvalues --   -0.92025  -0.91897  -0.89596  -0.89379  -0.89227
 Alpha  occ. eigenvalues --   -0.89061  -0.88364  -0.88087  -0.87922  -0.87725
 Alpha  occ. eigenvalues --   -0.87707  -0.87582  -0.87327  -0.87025  -0.85027
 Alpha  occ. eigenvalues --   -0.84908  -0.84020  -0.83745  -0.83031  -0.82826
 Alpha  occ. eigenvalues --   -0.82699  -0.82561  -0.81636  -0.81524  -0.80650
 Alpha  occ. eigenvalues --   -0.80357  -0.78849  -0.78542  -0.77277  -0.77049
 Alpha  occ. eigenvalues --   -0.76984  -0.76803  -0.75969  -0.75754  -0.74968
 Alpha  occ. eigenvalues --   -0.74664  -0.72831  -0.72600  -0.71728  -0.71467
 Alpha  occ. eigenvalues --   -0.69999  -0.69627  -0.68920  -0.68737  -0.67698
 Alpha  occ. eigenvalues --   -0.67504  -0.67262  -0.67116  -0.65333  -0.65186
 Alpha  occ. eigenvalues --   -0.64911  -0.64678  -0.64674  -0.64564  -0.64342
 Alpha  occ. eigenvalues --   -0.64084  -0.62351  -0.62204  -0.60502  -0.60234
 Alpha  occ. eigenvalues --   -0.59848  -0.59706  -0.59046  -0.58890  -0.58561
 Alpha  occ. eigenvalues --   -0.58329  -0.57635  -0.57485  -0.57373  -0.57130
 Alpha  occ. eigenvalues --   -0.56362  -0.56116  -0.56025  -0.55818  -0.55575
 Alpha  occ. eigenvalues --   -0.55410  -0.55370  -0.55138  -0.54589  -0.54385
 Alpha  occ. eigenvalues --   -0.53935  -0.53824  -0.53358  -0.53270  -0.53130
 Alpha  occ. eigenvalues --   -0.53055  -0.52971  -0.52818  -0.52806  -0.52576
 Alpha  occ. eigenvalues --   -0.52533  -0.52283  -0.51967  -0.51808  -0.51660
 Alpha  occ. eigenvalues --   -0.51576  -0.51254  -0.51114  -0.50626  -0.50376
 Alpha  occ. eigenvalues --   -0.50108  -0.49973  -0.49881  -0.49734  -0.49564
 Alpha  occ. eigenvalues --   -0.49396  -0.49266  -0.49139  -0.49118  -0.49018
 Alpha  occ. eigenvalues --   -0.48643  -0.48530  -0.48502  -0.48476  -0.48258
 Alpha  occ. eigenvalues --   -0.48233  -0.47750  -0.47498  -0.47352  -0.47010
 Alpha  occ. eigenvalues --   -0.46858  -0.46606  -0.46597  -0.46461  -0.46419
 Alpha  occ. eigenvalues --   -0.46223  -0.46169  -0.45977  -0.45871  -0.45742
 Alpha  occ. eigenvalues --   -0.45275  -0.45065  -0.44630  -0.44565  -0.44429
 Alpha  occ. eigenvalues --   -0.44383  -0.44213  -0.44134  -0.44071  -0.44038
 Alpha  occ. eigenvalues --   -0.43973  -0.43854  -0.43547  -0.43477  -0.43441
 Alpha  occ. eigenvalues --   -0.43286  -0.43084  -0.42865  -0.42805  -0.42767
 Alpha  occ. eigenvalues --   -0.42722  -0.42433  -0.42080  -0.41861  -0.41760
 Alpha  occ. eigenvalues --   -0.41579  -0.41576  -0.41364  -0.41195  -0.40925
 Alpha  occ. eigenvalues --   -0.40885  -0.40881  -0.40643  -0.40627  -0.40602
 Alpha  occ. eigenvalues --   -0.40368  -0.40270  -0.40147  -0.39539  -0.39298
 Alpha  occ. eigenvalues --   -0.38542  -0.38218  -0.37789  -0.37571  -0.37390
 Alpha  occ. eigenvalues --   -0.37308  -0.37152  -0.37107  -0.36768  -0.36704
 Alpha  occ. eigenvalues --   -0.36252  -0.36109  -0.34343  -0.34152  -0.33820
 Alpha  occ. eigenvalues --   -0.33803  -0.33244  -0.33074  -0.31414  -0.31169
 Alpha  occ. eigenvalues --   -0.31093  -0.30870  -0.30077  -0.29889  -0.29506
 Alpha  occ. eigenvalues --   -0.29376  -0.29231  -0.29121  -0.24138  -0.23933
 Alpha  occ. eigenvalues --   -0.21184  -0.21014
 Alpha virt. eigenvalues --   -0.08830  -0.08693  -0.01811  -0.01575  -0.00114
 Alpha virt. eigenvalues --    0.00067   0.02144   0.02294   0.03053   0.03322
 Alpha virt. eigenvalues --    0.04669   0.04829   0.05052   0.05219   0.06142

 Mulliken charges:
               1
     1  Mg   0.838599
     2  C   -0.002920
     3  C   -0.093770
     4  C   -0.046120
     5  C   -0.064029
     6  N   -0.256767
     7  C   -0.052395
     8  C   -0.014020
     9  C   -0.087021
    10  C    0.046263
    11  C    0.104758
    12  C    0.053360
    13  C   -0.071900
    14  H    0.036168
    15  N   -0.433142
    16  C    0.168356
    17  C   -0.176928
    18  C   -0.004111
    19  C    0.148641
    20  C    0.110055
    21  C    0.012020
    22  O   -0.250133
    23  C    0.062522
    24  N   -0.341083
    25  C    0.041223
    26  C   -0.028129
    27  C   -0.023887
    28  C    0.074668
    29  C    0.076174
    30  C    0.035212
    31  C   -0.004412
    32  N   -0.310490
    33  C    0.080357
    34  C   -0.169694
    35  C    0.008446
    36  C    0.082932
    37  C    0.127314
    38  C    0.046127
    39  O   -0.188285
    40  C   -0.005336
    41  C    0.212927
    42  O   -0.257235
    43  O   -0.304708
    44  C    0.157733
    45  H   -0.017318
    46  H   -0.017132
    47  H   -0.041579
    48  H    0.001026
    49  H   -0.003724
    50  H    0.025493
    51  H    0.016407
    52  H    0.016894
    53  H    0.011413
    54  H    0.043965
    55  H    0.017924
    56  H    0.018302
    57  H    0.006185
    58  H    0.026910
    59  H    0.039964
    60  H    0.037665
    61  H    0.035324
    62  H    0.031700
    63  H    0.015985
    64  H    0.009581
    65  H    0.022971
    66  H    0.012781
    67  H    0.004842
    68  H    0.006041
    69  H    0.004903
    70  H    0.008059
    71  H    0.017622
    72  H    0.029316
    73  H    0.047710
    74  H    0.009003
    75  H    0.046097
    76  H    0.035298
    77  H    0.043035
    78  H    0.046543
    79  H    0.053454
    80  Mg   0.838095
    81  C   -0.017028
    82  C   -0.087878
    83  C   -0.045195
    84  C   -0.064435
    85  N   -0.254623
    86  C   -0.049892
    87  C   -0.015116
    88  C   -0.090498
    89  C    0.045867
    90  C    0.114347
    91  C    0.062546
    92  C   -0.077759
    93  H    0.034496
    94  N   -0.423596
    95  C    0.163126
    96  C   -0.174540
    97  C   -0.007607
    98  C    0.152247
    99  C    0.099350
   100  C    0.015636
   101  O   -0.252784
   102  C    0.061210
   103  N   -0.350010
   104  C    0.037987
   105  C   -0.020209
   106  C   -0.034689
   107  C    0.088915
   108  C    0.073075
   109  C    0.034686
   110  C   -0.007624
   111  N   -0.324037
   112  C    0.078384
   113  C   -0.163269
   114  C    0.001945
   115  C    0.096249
   116  C    0.131562
   117  C    0.042048
   118  O   -0.188731
   119  C    0.001034
   120  C    0.211189
   121  O   -0.251048
   122  O   -0.305738
   123  C    0.152124
   124  H   -0.019644
   125  H   -0.015100
   126  H   -0.040544
   127  H   -0.000960
   128  H   -0.004462
   129  H    0.022151
   130  H    0.014912
   131  H    0.016583
   132  H    0.013910
   133  H    0.037527
   134  H    0.020732
   135  H    0.019615
   136  H    0.008691
   137  H    0.026195
   138  H    0.039617
   139  H    0.038223
   140  H    0.036396
   141  H    0.033678
   142  H    0.014174
   143  H    0.013132
   144  H    0.025370
   145  H    0.012773
   146  H    0.007237
   147  H    0.006528
   148  H    0.003329
   149  H    0.010966
   150  H    0.017546
   151  H    0.029879
   152  H    0.045569
   153  H    0.008531
   154  H    0.046559
   155  H    0.034532
   156  H    0.043491
   157  H    0.049555
   158  H    0.053500
 Sum of Mulliken charges =  -0.00000

 Dipole moment (field-independent basis, Debye):
    X=              3.5439    Y=              4.1493    Z=              1.0914  Tot=              5.5648
 Quadrupole moment (field-independent basis, Debye-Ang):
   XX=           -520.9928   YY=           -527.2169   ZZ=           -470.7875
   XY=             15.9465   XZ=            -53.1229   YZ=             24.8837

 Normal termination of Gaussian 16 at Sat Sep  4 08:58:49 2021.
