 Gaussian 16, Revision A.03,
 Gaussian 16:  ES64L-G16RevA.03 25-Dec-2016

 -----------------------------------
 #p cam-b3lyp/Def2SVP td=(nstates=5)
 -----------------------------------

 --------------------------------
 TDDFT excited states in gaussian
 --------------------------------
 Symbolic Z-matrix:
 Charge =  0 Multiplicity = 1

                         Standard orientation:
 ---------------------------------------------------------------------
 Center     Atomic      Atomic             Coordinates (Angstroms)
 Number     Number       Type             X           Y           Z
 ---------------------------------------------------------------------
      1         12           0        4.173290   -0.282849    0.439864
      2          6           0        4.228041    2.822273   -1.339864
      3          6           0        4.636237    1.519306    3.300106
      4          6           0        4.582359   -3.027934    1.974071
      5          6           0        4.849288   -1.862979   -2.591947
      6          7           0        4.387991    1.889985    0.805027
      7          6           0        4.330844    2.978586    0.044203
      8          6           0        4.314336    4.304191    0.862661
      9          6           0        5.009813    3.783342    2.199458
     10          6           0        4.626452    2.316318    2.117013
     11          6           0        6.530829    3.895473    2.178485
     12          6           0        2.860050    4.816363    1.135543
     13          6           0        2.759135    6.259261    1.638749
     14          1           0        1.632139    7.073439    1.209397
     15          7           0        4.069103   -0.700887    2.367878
     16          6           0        4.270178    0.159213    3.395052
     17          6           0        4.080272   -0.630312    4.630879
     18          6           0        3.939566   -2.060526    4.240003
     19          6           0        4.221201   -1.989281    2.828981
     20          6           0        3.999341   -0.016756    5.994971
     21          6           0        3.614762   -3.296979    5.017060
     22          8           0        3.770868   -4.468052    4.528397
     23          6           0        3.187372   -3.101476    6.414257
     24          7           0        4.863989   -2.157912   -0.164045
     25          6           0        4.886351   -3.191303    0.684829
     26          6           0        5.145289   -4.482423   -0.033433
     27          6           0        5.054323   -4.147200   -1.591991
     28          6           0        4.826740   -2.618664   -1.491719
     29          6           0        6.491426   -5.156472    0.265873
     30          6           0        4.062125   -4.986891   -2.435130
     31          6           0        2.642099   -4.670475   -2.022209
     32          7           0        4.313112    0.315918   -1.641715
     33          6           0        4.627977   -0.503452   -2.735409
     34          6           0        4.709172    0.370156   -3.920434
     35          6           0        4.450542    1.647726   -3.427717
     36          6           0        4.248172    1.580306   -2.019600
     37          6           0        5.048885   -0.043226   -5.238821
     38          6           0        4.322415    3.057501   -3.759343
     39          8           0        4.299613    3.702984   -4.808307
     40          6           0        4.293791    3.890789   -2.402641
     41          6           0        3.151012    4.865174   -2.491744
     42          8           0        1.969224    4.464861   -2.513895
     43          8           0        3.612291    6.110260   -2.298025
     44          6           0        2.524267    7.123274   -2.344503
     45          1           0        5.013516    1.955363    4.227174
     46          1           0        4.625456   -4.011971    2.445506
     47          1           0        4.972645   -2.296980   -3.585867
     48          1           0        4.901468    5.113685    0.428588
     49          1           0        4.574932    4.239249    3.088698
     50          1           0        6.894679    4.195524    1.195884
     51          1           0        6.899480    2.901800    2.433834
     52          1           0        6.881366    4.557779    2.970476
     53          1           0        2.449467    4.290197    1.997304
     54          1           0        2.237037    4.699630    0.248100
     55          1           0        3.696200    6.797939    1.495073
     56          1           0        2.623563    6.235177    2.720063
     57          1           0        4.302977    1.029279    5.982271
     58          1           0        4.750688   -0.510230    6.611145
     59          1           0        3.014276   -0.143703    6.444265
     60          1           0        3.973789   -2.581530    6.961754
     61          1           0        2.911800   -4.088019    6.785261
     62          1           0        2.317614   -2.444011    6.428737
     63          1           0        4.390640   -5.227075    0.216413
     64          1           0        6.011721   -4.281914   -2.095891
     65          1           0        6.396935   -6.176322    0.639615
     66          1           0        7.032440   -4.529129    0.973711
     67          1           0        7.185478   -5.184076   -0.573737
     68          1           0        4.218579   -6.050249   -2.256977
     69          1           0        4.154201   -4.813181   -3.507323
     70          1           0        2.492250   -5.311891   -1.154475
     71          1           0        1.947086   -4.927406   -2.822306
     72          1           0        2.546238   -3.638251   -1.684851
     73          1           0        4.352408    0.463856   -5.906472
     74          1           0        4.981495   -1.125808   -5.344080
     75          1           0        6.074296    0.319850   -5.306368
     76          1           0        5.256476    4.394956   -2.324062
     77          1           0        2.800392    7.856332   -3.102537
     78          1           0        2.387866    7.478604   -1.322965
     79          1           0        1.563108    6.781004   -2.729684
     80         12           0       -3.695756   -1.042081   -0.224430
     81          6           0       -6.453046    1.223397    0.155055
     82          6           0       -1.681034    1.694703   -0.516819
     83          6           0       -1.322446   -2.996352   -1.009055
     84          6           0       -6.016590   -3.511124   -1.038854
     85          7           0       -4.128446    1.126351   -0.170343
     86          6           0       -5.204347    1.869333    0.041247
     87          6           0       -4.915457    3.384401    0.216369
     88          6           0       -3.519956    3.456158   -0.575027
     89          6           0       -3.056069    2.013624   -0.383805
     90          6           0       -3.684928    3.711432   -2.063970
     91          6           0       -4.743257    3.789897    1.722335
     92          6           0       -4.766715    5.296517    1.989389
     93          1           0       -5.377670    5.774669    3.226547
     94          7           0       -1.732954   -0.749219   -0.210217
     95          6           0       -1.085388    0.430060   -0.316293
     96          6           0        0.349071    0.106712   -0.272484
     97          6           0        0.497164   -1.373868   -0.297706
     98          6           0       -0.876215   -1.772187   -0.532766
     99          6           0        1.415404    1.154091   -0.133292
    100          6           0        1.681155   -2.280703   -0.149263
    101          8           0        1.615908   -3.526735   -0.442467
    102          6           0        2.943782   -1.648616    0.260268
    103          7           0       -3.650903   -2.914455   -1.126954
    104          6           0       -2.489685   -3.568625   -1.304635
    105          6           0       -2.728422   -5.001809   -1.716171
    106          6           0       -4.299866   -5.242600   -1.542498
    107          6           0       -4.729781   -3.818372   -1.127609
    108          6           0       -2.313111   -5.362416   -3.142306
    109          6           0       -4.734393   -6.435867   -0.648080
    110          6           0       -4.359628   -6.165285    0.791269
    111          7           0       -5.849873   -1.208432   -0.237352
    112          6           0       -6.616837   -2.324175   -0.638562
    113          6           0       -8.036604   -1.920006   -0.580793
    114          6           0       -7.995719   -0.579444   -0.168829
    115          6           0       -6.644923   -0.170562   -0.002447
    116          6           0       -9.148760   -2.735875   -0.932364
    117          6           0       -8.787689    0.585883    0.152866
    118          8           0       -9.991029    0.812153    0.273328
    119          6           0       -7.819616    1.842393    0.254797
    120          6           0       -8.159902    2.589908    1.514935
    121          8           0       -7.972714    2.069310    2.628736
    122          8           0       -8.443456    3.868376    1.205941
    123          6           0       -8.776552    4.653077    2.424601
    124          1           0       -0.996665    2.476668   -0.847056
    125          1           0       -0.546112   -3.743580   -1.189175
    126          1           0       -6.805139   -4.252772   -1.183162
    127          1           0       -5.640583    4.041785   -0.248186
    128          1           0       -2.829318    4.145430   -0.096203
    129          1           0       -4.721706    3.684796   -2.364868
    130          1           0       -3.126697    2.928442   -2.560305
    131          1           0       -3.198316    4.650839   -2.341567
    132          1           0       -3.718555    3.558613    2.040514
    133          1           0       -5.477389    3.302958    2.334361
    134          1           0       -5.146761    5.861653    1.129659
    135          1           0       -3.737368    5.644503    2.105029
    136          1           0        1.015418    2.160827   -0.306214
    137          1           0        2.124826    0.999112   -0.953396
    138          1           0        1.951696    1.085678    0.815585
    139          1           0        3.215890   -0.883572   -0.463007
    140          1           0        3.650020   -2.469517    0.398988
    141          1           0        2.784744   -1.136171    1.215634
    142          1           0       -2.194389   -5.684686   -1.066858
    143          1           0       -4.789080   -5.450545   -2.505431
    144          1           0       -1.589141   -6.197786   -3.188068
    145          1           0       -1.903676   -4.478203   -3.612486
    146          1           0       -3.132738   -5.620916   -3.810593
    147          1           0       -4.201452   -7.343392   -0.942221
    148          1           0       -5.795804   -6.653344   -0.703791
    149          1           0       -3.309170   -6.468259    0.833897
    150          1           0       -4.970420   -6.762857    1.464976
    151          1           0       -4.402710   -5.092874    1.014246
    152          1           0       -9.901241   -2.581615   -0.170482
    153          1           0       -8.865551   -3.783786   -1.006121
    154          1           0       -9.402968   -2.309823   -1.906590
    155          1           0       -7.976916    2.450330   -0.636966
    156          1           0       -9.761996    5.098990    2.258019
    157          1           0       -7.928300    5.347245    2.574058
    158          1           0       -8.945452    4.104081    3.343581
 ---------------------------------------------------------------------

 SCF Done:  E(RCAM-B3LYP) =  -4069.50159008     A.U. after   20 cycles

 Excitation energies and oscillator strengths:

 Excited State   1:      Singlet-A      1.5967 eV  776.51 nm  f=0.3151  <S**2>=0.000
     309 -> 315       -0.14638
     311 -> 313        0.59231
     312 -> 313        0.15566
     312 -> 314        0.29123
 This state for optimization and/or second-order correction.
 Total Energy, E(TD-HF/TD-DFT) =  -4069.44291262
 Copying the excited state density for this state as the 1-particle RhoCI density.

 Excited State   2:      Singlet-A      1.6553 eV  749.02 nm  f=0.4424  <S**2>=0.000
     310 -> 316       -0.13785
     311 -> 313       -0.31189
     312 -> 314        0.60639

 Excited State   3:      Singlet-A      2.0104 eV  616.70 nm  f=0.0216  <S**2>=0.000
     309 -> 313       -0.30855
     311 -> 313       -0.10649
     311 -> 315       -0.12465
     312 -> 313        0.58371
     312 -> 314       -0.12258

 Excited State   4:      Singlet-A      2.0806 eV  595.89 nm  f=0.0465  <S**2>=0.000
     309 -> 313        0.54758
     310 -> 313        0.10064
     311 -> 315        0.21379
     312 -> 313        0.35197

 Excited State   5:      Singlet-A      2.1830 eV  567.94 nm  f=0.1068  <S**2>=0.000
     310 -> 314        0.61934
     312 -> 316        0.24911
     312 -> 318        0.10559

 The electronic state is 1-A.
 Alpha  occ. eigenvalues --  -46.87363 -46.87345 -19.27150 -19.26172 -19.20042
 Alpha  occ. eigenvalues --  -19.19281 -19.19096 -19.18976 -19.18968 -19.17768
 Alpha  occ. eigenvalues --  -14.42755 -14.42652 -14.42172 -14.41053 -14.39340
 Alpha  occ. eigenvalues --  -14.39285 -14.39035 -14.38292 -10.40022 -10.38891
 Alpha  occ. eigenvalues --  -10.35585 -10.35287 -10.35283 -10.33951 -10.32460
 Alpha  occ. eigenvalues --  -10.31864 -10.31641 -10.31622 -10.30939 -10.30805
 Alpha  occ. eigenvalues --  -10.30722 -10.30670 -10.30548 -10.30284 -10.30125
 Alpha  occ. eigenvalues --  -10.29991 -10.29831 -10.29691 -10.29678 -10.29388
 Alpha  occ. eigenvalues --  -10.29308 -10.29227 -10.29114 -10.29088 -10.29037
 Alpha  occ. eigenvalues --  -10.28841 -10.28611 -10.28515 -10.28396 -10.28063
 Alpha  occ. eigenvalues --  -10.28038 -10.27935 -10.27889 -10.27889 -10.27728
 Alpha  occ. eigenvalues --  -10.27653 -10.27565 -10.27495 -10.27310 -10.27215
 Alpha  occ. eigenvalues --  -10.27198 -10.27197 -10.27188 -10.27091 -10.27011
 Alpha  occ. eigenvalues --  -10.26924 -10.26790 -10.26648 -10.26530 -10.26474
 Alpha  occ. eigenvalues --  -10.26470 -10.26427 -10.25954 -10.25850 -10.25618
 Alpha  occ. eigenvalues --  -10.25587 -10.25488 -10.25306 -10.25293 -10.24906
 Alpha  occ. eigenvalues --  -10.24551 -10.24546 -10.24493 -10.24387 -10.23132
 Alpha  occ. eigenvalues --  -10.20770  -3.17541  -3.16096  -1.92665  -1.91927
 Alpha  occ. eigenvalues --   -1.91789  -1.90978  -1.90567  -1.90403  -1.17515
 Alpha  occ. eigenvalues --   -1.16462  -1.09525  -1.09110  -1.08389  -1.07616
 Alpha  occ. eigenvalues --   -1.07608  -1.07309  -1.06751  -1.05071  -1.04173
 Alpha  occ. eigenvalues --   -1.04043  -1.03481  -1.03375  -1.02743  -1.01803
 Alpha  occ. eigenvalues --   -0.92891  -0.91684  -0.90866  -0.89799  -0.89246
 Alpha  occ. eigenvalues --   -0.88890  -0.88799  -0.88771  -0.88329  -0.87999
 Alpha  occ. eigenvalues --   -0.87579  -0.87490  -0.87340  -0.86941  -0.85596
 Alpha  occ. eigenvalues --   -0.84804  -0.84216  -0.83970  -0.83631  -0.83010
 Alpha  occ. eigenvalues --   -0.82598  -0.82446  -0.82243  -0.81386  -0.81177
 Alpha  occ. eigenvalues --   -0.80314  -0.79256  -0.78586  -0.77730  -0.77400
 Alpha  occ. eigenvalues --   -0.76904  -0.76641  -0.76457  -0.75535  -0.74861
 Alpha  occ. eigenvalues --   -0.74566  -0.73384  -0.72389  -0.72252  -0.71329
 Alpha  occ. eigenvalues --   -0.69921  -0.69571  -0.69502  -0.69215  -0.68407
 Alpha  occ. eigenvalues --   -0.68033  -0.67642  -0.67182  -0.65946  -0.65852
 Alpha  occ. eigenvalues --   -0.65168  -0.65047  -0.64703  -0.64462  -0.64373
 Alpha  occ. eigenvalues --   -0.63971  -0.62964  -0.62343  -0.61980  -0.61103
 Alpha  occ. eigenvalues --   -0.60804  -0.59957  -0.59529  -0.59426  -0.58869
 Alpha  occ. eigenvalues --   -0.58713  -0.58426  -0.58322  -0.58031  -0.57633
 Alpha  occ. eigenvalues --   -0.57297  -0.56945  -0.56856  -0.56089  -0.55830
 Alpha  occ. eigenvalues --   -0.55751  -0.55577  -0.55326  -0.55124  -0.54972
 Alpha  occ. eigenvalues --   -0.54489  -0.54315  -0.54025  -0.53718  -0.53683
 Alpha  occ. eigenvalues --   -0.53496  -0.53369  -0.52899  -0.52797  -0.52725
 Alpha  occ. eigenvalues --   -0.52626  -0.52552  -0.52256  -0.52078  -0.52039
 Alpha  occ. eigenvalues --   -0.51649  -0.51548  -0.51163  -0.51000  -0.50808
 Alpha  occ. eigenvalues --   -0.50699  -0.50537  -0.50261  -0.50008  -0.49727
 Alpha  occ. eigenvalues --   -0.49702  -0.49517  -0.49468  -0.49244  -0.48928
 Alpha  occ. eigenvalues --   -0.48875  -0.48748  -0.48657  -0.48589  -0.48263
 Alpha  occ. eigenvalues --   -0.48162  -0.47894  -0.47710  -0.47456  -0.47295
 Alpha  occ. eigenvalues --   -0.47173  -0.46919  -0.46710  -0.46599  -0.46435
 Alpha  occ. eigenvalues --   -0.46382  -0.46047  -0.45844  -0.45705  -0.45575
 Alpha  occ. eigenvalues --   -0.45329  -0.45051  -0.45020  -0.44988  -0.44789
 Alpha  occ. eigenvalues --   -0.44692  -0.44300  -0.44262  -0.44167  -0.43998
 Alpha  occ. eigenvalues --   -0.43880  -0.43862  -0.43779  -0.43513  -0.43333
 Alpha  occ. eigenvalues --   -0.43278  -0.43159  -0.42889  -0.42720  -0.42681
 Alpha  occ. eigenvalues --   -0.42575  -0.42453  -0.42059  -0.41763  -0.41633
 Alpha  occ. eigenvalues --   -0.41441  -0.41382  -0.41246  -0.41156  -0.41051
 Alpha  occ. eigenvalues --   -0.40757  -0.40641  -0.40474  -0.40437  -0.40258
 Alpha  occ. eigenvalues --   -0.40102  -0.39926  -0.39224  -0.38603  -0.38238
 Alpha  occ. eigenvalues --   -0.38130  -0.37514  -0.37468  -0.37280  -0.37011
 Alpha  occ. eigenvalues --   -0.36951  -0.36615  -0.36463  -0.36346  -0.36144
 Alpha  occ. eigenvalues --   -0.35936  -0.35194  -0.35061  -0.34609  -0.33919
 Alpha  occ. eigenvalues --   -0.33624  -0.32751  -0.31973  -0.31560  -0.31248
 Alpha  occ. eigenvalues --   -0.30883  -0.30704  -0.30370  -0.29698  -0.29674
 Alpha  occ. eigenvalues --   -0.29321  -0.28932  -0.28322  -0.24236  -0.23711
 Alpha  occ. eigenvalues --   -0.21859  -0.20763
 Alpha virt. eigenvalues --   -0.09283  -0.08490  -0.02835  -0.01524  -0.00543
 Alpha virt. eigenvalues --   -0.00125   0.01542   0.02402   0.03383   0.03681
 Alpha virt. eigenvalues --    0.04089   0.04919   0.05043   0.05373   0.05954

 Mulliken charges:
               1
     1  Mg   0.253699
     2  C   -0.005430
     3  C   -0.092183
     4  C   -0.059118
     5  C   -0.023274
     6  N   -0.242779
     7  C   -0.044683
     8  C   -0.012733
     9  C   -0.083989
    10  C    0.049150
    11  C    0.104695
    12  C    0.043315
    13  C   -0.070454
    14  H    0.034408
    15  N   -0.434571
    16  C    0.179634
    17  C   -0.182735
    18  C    0.004654
    19  C    0.121334
    20  C    0.111488
    21  C    0.012401
    22  O   -0.245713
    23  C    0.062313
    24  N   -0.285841
    25  C    0.101742
    26  C    0.021431
    27  C   -0.020646
    28  C    0.035583
    29  C    0.091045
    30  C    0.055393
    31  C    0.025537
    32  N   -0.320097
    33  C    0.083570
    34  C   -0.164198
    35  C    0.017055
    36  C    0.066990
    37  C    0.126792
    38  C    0.045526
    39  O   -0.183191
    40  C   -0.007725
    41  C    0.214407
    42  O   -0.263099
    43  O   -0.303020
    44  C    0.156793
    45  H   -0.018444
    46  H   -0.009126
    47  H   -0.035194
    48  H    0.000520
    49  H   -0.003886
    50  H    0.025423
    51  H    0.019604
    52  H    0.017522
    53  H    0.013594
    54  H    0.045520
    55  H    0.020071
    56  H    0.020392
    57  H    0.004812
    58  H    0.026419
    59  H    0.039534
    60  H    0.037431
    61  H    0.037224
    62  H    0.032486
    63  H    0.013424
    64  H    0.003927
    65  H    0.020905
    66  H    0.006387
    67  H    0.001216
    68  H   -0.005373
    69  H   -0.014104
    70  H    0.006833
    71  H   -0.009073
    72  H    0.035330
    73  H    0.049016
    74  H    0.014232
    75  H    0.048608
    76  H    0.037102
    77  H    0.045749
    78  H    0.047659
    79  H    0.051885
    80  Mg   0.837958
    81  C   -0.016655
    82  C   -0.094780
    83  C   -0.050984
    84  C   -0.065533
    85  N   -0.254225
    86  C   -0.050343
    87  C   -0.015175
    88  C   -0.088936
    89  C    0.043590
    90  C    0.114509
    91  C    0.062898
    92  C   -0.076738
    93  H    0.032562
    94  N   -0.424954
    95  C    0.158386
    96  C   -0.181781
    97  C    0.059241
    98  C    0.150459
    99  C    0.095936
   100  C    0.084254
   101  O   -0.260024
   102  C   -0.056862
   103  N   -0.350502
   104  C    0.035730
   105  C   -0.019702
   106  C   -0.034361
   107  C    0.088977
   108  C    0.072963
   109  C    0.034946
   110  C   -0.007477
   111  N   -0.323783
   112  C    0.077623
   113  C   -0.164215
   114  C    0.002046
   115  C    0.095354
   116  C    0.131688
   117  C    0.041669
   118  O   -0.189394
   119  C    0.001091
   120  C    0.211141
   121  O   -0.251692
   122  O   -0.305451
   123  C    0.152387
   124  H   -0.001023
   125  H   -0.017046
   126  H   -0.041558
   127  H   -0.001325
   128  H   -0.004112
   129  H    0.020290
   130  H    0.018627
   131  H    0.018518
   132  H    0.013006
   133  H    0.036820
   134  H    0.020908
   135  H    0.018350
   136  H    0.009812
   137  H    0.093963
   138  H    0.100104
   139  H    0.153734
   140  H    0.022993
   141  H    0.221140
   142  H    0.013506
   143  H    0.011950
   144  H    0.023813
   145  H    0.011978
   146  H    0.005797
   147  H    0.005292
   148  H    0.003374
   149  H    0.010794
   150  H    0.017388
   151  H    0.030520
   152  H    0.045013
   153  H    0.007736
   154  H    0.046295
   155  H    0.034917
   156  H    0.043421
   157  H    0.049098
   158  H    0.052962
 Sum of Mulliken charges =  -0.00000

 Dipole moment (field-independent basis, Debye):
    X=              5.5775    Y=              3.4406    Z=              2.2151  Tot=              6.9176
 Quadrupole moment (field-independent basis, Debye-Ang):
   XX=           -553.8520   YY=           -471.9655   ZZ=           -508.4238
   XY=             15.2195   XZ=             25.2369   YZ=             39.5270

 Normal termination of Gaussian 16 at Thu Sep  9 12:15:40 2021.
