 Gaussian 16, Revision A.03,
 Gaussian 16:  ES64L-G16RevA.03 25-Dec-2016

 -----------------------------------
 #p cam-b3lyp/Def2SVP td=(nstates=5)
 -----------------------------------

 --------------------------------
 TDDFT excited states in gaussian
 --------------------------------
 Symbolic Z-matrix:
 Charge =  0 Multiplicity = 1

                         Standard orientation:
 ---------------------------------------------------------------------
 Center     Atomic      Atomic             Coordinates (Angstroms)
 Number     Number       Type             X           Y           Z
 ---------------------------------------------------------------------
      1         12           0       -3.731061    0.412357   -1.184008
      2          6           0       -4.307929   -2.678798    0.526021
      3          6           0       -5.511319    1.942723    1.292224
      4          6           0       -3.624957    3.075327   -2.902714
      5          6           0       -3.008426   -1.466541   -4.028863
      6          7           0       -4.730898   -0.375288    0.627232
      7          6           0       -4.826882   -1.571065    1.200010
      8          6           0       -5.464620   -1.526145    2.620801
      9          6           0       -6.287612   -0.167434    2.484471
     10          6           0       -5.441015    0.524667    1.430814
     11          6           0       -7.696484   -0.361198    1.933074
     12          6           0       -4.387416   -1.432289    3.753300
     13          6           0       -4.901395   -1.711283    5.168695
     14          1           0       -4.028650   -2.399845    6.107602
     15          7           0       -4.023130    2.292592   -0.652726
     16          6           0       -4.763222    2.733051    0.393002
     17          6           0       -4.669321    4.208562    0.365984
     18          6           0       -3.970981    4.597123   -0.890771
     19          6           0       -3.867018    3.322190   -1.553429
     20          6           0       -5.165038    5.085035    1.474953
     21          6           0       -3.485265    5.910828   -1.416500
     22          8           0       -3.113600    6.062197   -2.630389
     23          6           0       -3.540140    7.052008   -0.484975
     24          7           0       -3.583670    0.774041   -3.234640
     25          6           0       -3.497973    2.020921   -3.711014
     26          6           0       -3.118245    2.026130   -5.162124
     27          6           0       -2.722535    0.521329   -5.520926
     28          6           0       -3.040420   -0.138075   -4.156227
     29          6           0       -4.199862    2.515253   -6.135198
     30          6           0       -1.322150    0.291654   -6.142691
     31          6           0       -0.250289    0.601434   -5.121785
     32          7           0       -3.488425   -1.693460   -1.650602
     33          6           0       -3.211014   -2.252237   -2.906582
     34          6           0       -3.247517   -3.717390   -2.745150
     35          6           0       -3.562013   -3.910413   -1.401394
     36          6           0       -3.738249   -2.646132   -0.769867
     37          6           0       -3.063724   -4.674817   -3.781484
     38          6           0       -3.814383   -4.890860   -0.357895
     39          8           0       -3.719364   -6.116471   -0.278256
     40          6           0       -4.426924   -4.134677    0.902584
     41          6           0       -3.684146   -4.608545    2.122026
     42          8           0       -2.477258   -4.334661    2.282569
     43          8           0       -4.559337   -5.099885    3.012626
     44          6           0       -3.890275   -5.560595    4.258522
     45          1           0       -6.246084    2.494861    1.881465
     46          1           0       -3.471829    3.970326   -3.509317
     47          1           0       -2.709813   -2.116754   -4.853185
     48          1           0       -6.142140   -2.351269    2.841164
     49          1           0       -6.282732    0.406038    3.411201
     50          1           0       -7.857469   -1.387365    1.602945
     51          1           0       -7.776643    0.326608    1.091058
     52          1           0       -8.443974   -0.036532    2.657385
     53          1           0       -4.077840   -0.393696    3.869700
     54          1           0       -3.544553   -2.090481    3.539546
     55          1           0       -5.886608   -2.178105    5.150167
     56          1           0       -5.063699   -0.755819    5.667639
     57          1           0       -5.776763    4.527497    2.183113
     58          1           0       -5.852308    5.804046    1.029540
     59          1           0       -4.352991    5.613524    1.974563
     60          1           0       -4.570033    7.202618   -0.160650
     61          1           0       -3.070262    7.886691   -1.003981
     62          1           0       -2.969766    6.804381    0.410739
     63          1           0       -2.260113    2.673112   -5.339467
     64          1           0       -3.409656    0.078662   -6.242442
     65          1           0       -3.883963    3.354697   -6.755074
     66          1           0       -5.085766    2.769814   -5.554110
     67          1           0       -4.592247    1.750186   -6.804619
     68          1           0       -1.166481    0.964380   -6.985396
     69          1           0       -1.171551   -0.727289   -6.499520
     70          1           0       -0.141100    1.682260   -5.203785
     71          1           0        0.679721    0.094309   -5.380851
     72          1           0       -0.590407    0.384190   -4.109061
     73          1           0       -2.416648   -5.449350   -3.369952
     74          1           0       -2.622208   -4.219353   -4.667611
     75          1           0       -4.092521   -4.995168   -3.945216
     76          1           0       -5.484346   -4.394546    0.940636
     77          1           0       -4.173389   -6.602517    4.408453
     78          1           0       -4.158977   -4.846220    5.036901
     79          1           0       -2.803798   -5.646226    4.218848
     80         12           0        3.838448    0.826541    1.193467
     81          6           0        4.539308   -1.669048   -1.288442
     82          6           0        2.462572   -1.655652    3.085641
     83          6           0        2.805888    3.061022    3.195558
     84          6           0        4.209948    3.222023   -1.310391
     85          7           0        3.592625   -1.342458    0.836692
     86          6           0        3.953021   -2.189319   -0.115818
     87          6           0        3.742425   -3.685448    0.240293
     88          6           0        2.589183   -3.509904    1.343962
     89          6           0        2.916115   -2.094684    1.816133
     90          6           0        1.188284   -3.505249    0.755053
     91          6           0        5.029450   -4.340779    0.853586
     92          6           0        4.995484   -5.868364    0.937868
     93          1           0        6.238299   -6.604990    0.725138
     94          7           0        3.237982    0.682753    3.079559
     95          6           0        2.726442   -0.406806    3.689862
     96          6           0        2.422941    0.009248    5.067884
     97          6           0        2.643609    1.477151    5.174061
     98          6           0        2.889744    1.807887    3.784774
     99          6           0        2.048385   -0.963797    6.147845
    100          6           0        2.622343    2.428137    6.332240
    101          8           0        2.606515    3.698207    6.160427
    102          6           0        2.526278    1.828532    7.671166
    103          7           0        3.340273    2.828585    0.936626
    104          6           0        2.970316    3.588587    1.982323
    105          6           0        2.928816    5.050573    1.606473
    106          6           0        3.584568    5.138659    0.150514
    107          6           0        3.820747    3.635105   -0.112036
    108          6           0        1.541310    5.691256    1.579042
    109          6           0        4.778716    6.116243   -0.025545
    110          6           0        5.971774    5.620293    0.759338
    111          7           0        4.469950    0.831740   -0.872742
    112          6           0        4.526677    1.941171   -1.744536
    113          6           0        4.905766    1.428697   -3.077235
    114          6           0        5.021751    0.042779   -2.892141
    115          6           0        4.715482   -0.287672   -1.544369
    116          6           0        5.049097    2.209377   -4.258811
    117          6           0        5.323280   -1.217019   -3.533001
    118          8           0        5.734223   -1.550149   -4.643810
    119          6           0        4.901163   -2.395842   -2.553928
    120          6           0        6.036627   -3.380663   -2.496076
    121          8           0        7.130223   -3.056046   -2.000813
    122          8           0        5.579632   -4.600381   -2.833446
    123          6           0        6.666899   -5.613707   -2.780160
    124          1           0        1.806913   -2.312489    3.657973
    125          1           0        2.560892    3.884100    3.870826
    126          1           0        4.441716    3.916764   -2.120512
    127          1           0        3.384820   -4.300836   -0.576515
    128          1           0        2.709504   -4.220614    2.157454
    129          1           0        1.205154   -3.502244   -0.324684
    130          1           0        0.715150   -2.606531    1.128554
    131          1           0        0.607742   -4.340702    1.156724
    132          1           0        5.082130   -4.094789    1.921971
    133          1           0        5.906810   -4.027636    0.321795
    134          1           0        4.186632   -6.296647    0.333480
    135          1           0        4.744596   -6.153886    1.962343
    136          1           0        1.804785   -1.950052    5.733875
    137          1           0        1.106779   -0.611746    6.582946
    138          1           0        2.800526   -1.027154    6.937105
    139          1           0        1.621793    1.228179    7.733963
    140          1           0        2.614871    2.661421    8.371394
    141          1           0        3.369536    1.142493    7.808592
    142          1           0        3.519114    5.643579    2.294218
    143          1           0        2.859304    5.479128   -0.603085
    144          1           0        1.454422    6.572781    2.241937
    145          1           0        0.812491    4.938792    1.849493
    146          1           0        1.196360    6.003832    0.594911
    147          1           0        4.526733    7.098939    0.380634
    148          1           0        5.069758    6.260608   -1.060647
    149          1           0        5.772225    5.988000    1.770308
    150          1           0        6.893454    6.040058    0.361422
    151          1           0        5.985963    4.525089    0.803745
    152          1           0        5.948384    1.865272   -4.752138
    153          1           0        5.102140    3.271627   -4.029491
    154          1           0        4.123900    1.947449   -4.779062
    155          1           0        3.990710   -2.843768   -2.953949
    156          1           0        6.703929   -6.094540   -3.762564
    157          1           0        6.432203   -6.258353   -1.912350
    158          1           0        7.684106   -5.252746   -2.682899
 ---------------------------------------------------------------------

 SCF Done:  E(RCAM-B3LYP) =  -4069.81455958     A.U. after   18 cycles

 Excitation energies and oscillator strengths:

 Excited State   1:      Singlet-A      1.6619 eV  746.04 nm  f=0.2414  <S**2>=0.000
     310 -> 316        0.13774
     311 -> 313       -0.39403
     312 -> 314        0.56218
 This state for optimization and/or second-order correction.
 Total Energy, E(TD-HF/TD-DFT) =  -4069.75348628
 Copying the excited state density for this state as the 1-particle RhoCI density.

 Excited State   2:      Singlet-A      1.6779 eV  738.94 nm  f=0.4088  <S**2>=0.000
     309 -> 315        0.14358
     311 -> 313        0.56095
     312 -> 314        0.39322

 Excited State   3:      Singlet-A      2.1811 eV  568.46 nm  f=0.0896  <S**2>=0.000
     309 -> 313       -0.18623
     310 -> 314        0.61637
     312 -> 316       -0.25449

 Excited State   4:      Singlet-A      2.1940 eV  565.10 nm  f=0.1054  <S**2>=0.000
     309 -> 313        0.61290
     310 -> 314        0.18433
     311 -> 315       -0.26676

 Excited State   5:      Singlet-A      2.1991 eV  563.81 nm  f=0.0000  <S**2>=0.000
     312 -> 313        0.70687

 The electronic state is 1-A.
 Alpha  occ. eigenvalues --  -46.87979 -46.87334 -19.26854 -19.26046 -19.19710
 Alpha  occ. eigenvalues --  -19.18991 -19.18863 -19.18541 -19.18468 -19.17791
 Alpha  occ. eigenvalues --  -14.42643 -14.42092 -14.41617 -14.41050 -14.39583
 Alpha  occ. eigenvalues --  -14.39037 -14.38789 -14.38287 -10.39689 -10.38791
 Alpha  occ. eigenvalues --  -10.35620 -10.35225 -10.34700 -10.33962 -10.32241
 Alpha  occ. eigenvalues --  -10.31622 -10.31465 -10.31126 -10.30844 -10.30775
 Alpha  occ. eigenvalues --  -10.30700 -10.30614 -10.30338 -10.30122 -10.30093
 Alpha  occ. eigenvalues --  -10.30026 -10.29843 -10.29827 -10.29630 -10.29421
 Alpha  occ. eigenvalues --  -10.29129 -10.29122 -10.29019 -10.28909 -10.28582
 Alpha  occ. eigenvalues --  -10.28345 -10.28156 -10.28100 -10.28079 -10.27994
 Alpha  occ. eigenvalues --  -10.27909 -10.27773 -10.27701 -10.27633 -10.27600
 Alpha  occ. eigenvalues --  -10.27566 -10.27543 -10.27515 -10.27308 -10.27286
 Alpha  occ. eigenvalues --  -10.27217 -10.27208 -10.27203 -10.27200 -10.27136
 Alpha  occ. eigenvalues --  -10.27048 -10.26745 -10.26556 -10.26435 -10.26304
 Alpha  occ. eigenvalues --  -10.26187 -10.26172 -10.26163 -10.26022 -10.25939
 Alpha  occ. eigenvalues --  -10.25636 -10.25621 -10.25519 -10.25325 -10.25057
 Alpha  occ. eigenvalues --  -10.24968 -10.24633 -10.24590 -10.24579 -10.24548
 Alpha  occ. eigenvalues --  -10.24409  -3.16721  -3.16085  -1.91602  -1.91189
 Alpha  occ. eigenvalues --   -1.91031  -1.90968  -1.90555  -1.90393  -1.17209
 Alpha  occ. eigenvalues --   -1.16341  -1.08954  -1.08402  -1.07392  -1.07268
 Alpha  occ. eigenvalues --   -1.06801  -1.06649  -1.04785  -1.04098  -1.03937
 Alpha  occ. eigenvalues --   -1.03421  -1.03324  -1.02738  -1.02598  -1.01795
 Alpha  occ. eigenvalues --   -0.92225  -0.91652  -0.89651  -0.89430  -0.89225
 Alpha  occ. eigenvalues --   -0.88483  -0.88405  -0.88069  -0.87978  -0.87870
 Alpha  occ. eigenvalues --   -0.87506  -0.87441  -0.87289  -0.86877  -0.85226
 Alpha  occ. eigenvalues --   -0.84487  -0.84065  -0.83661  -0.83110  -0.82892
 Alpha  occ. eigenvalues --   -0.82737  -0.82193  -0.81919  -0.81265  -0.80844
 Alpha  occ. eigenvalues --   -0.80118  -0.78973  -0.78351  -0.77406  -0.77194
 Alpha  occ. eigenvalues --   -0.76812  -0.76442  -0.76182  -0.75289  -0.75050
 Alpha  occ. eigenvalues --   -0.74531  -0.72959  -0.72363  -0.71874  -0.71166
 Alpha  occ. eigenvalues --   -0.69973  -0.69515  -0.69106  -0.68352  -0.67862
 Alpha  occ. eigenvalues --   -0.67471  -0.67310  -0.66791  -0.65545  -0.65114
 Alpha  occ. eigenvalues --   -0.64843  -0.64811  -0.64434  -0.64405  -0.64251
 Alpha  occ. eigenvalues --   -0.63922  -0.62656  -0.61973  -0.60602  -0.60093
 Alpha  occ. eigenvalues --   -0.60032  -0.59269  -0.59198  -0.58733  -0.58659
 Alpha  occ. eigenvalues --   -0.58109  -0.57959  -0.57494  -0.57251  -0.56980
 Alpha  occ. eigenvalues --   -0.56569  -0.56341  -0.55887  -0.55745  -0.55572
 Alpha  occ. eigenvalues --   -0.55554  -0.55147  -0.54992  -0.54795  -0.54224
 Alpha  occ. eigenvalues --   -0.54154  -0.53491  -0.53476  -0.53314  -0.53220
 Alpha  occ. eigenvalues --   -0.52948  -0.52942  -0.52808  -0.52567  -0.52493
 Alpha  occ. eigenvalues --   -0.52229  -0.52167  -0.52123  -0.51869  -0.51632
 Alpha  occ. eigenvalues --   -0.51424  -0.51220  -0.50862  -0.50709  -0.50246
 Alpha  occ. eigenvalues --   -0.50168  -0.50071  -0.49760  -0.49712  -0.49543
 Alpha  occ. eigenvalues --   -0.49468  -0.49343  -0.49074  -0.48891  -0.48849
 Alpha  occ. eigenvalues --   -0.48691  -0.48604  -0.48506  -0.48167  -0.48134
 Alpha  occ. eigenvalues --   -0.48014  -0.47902  -0.47490  -0.47209  -0.46984
 Alpha  occ. eigenvalues --   -0.46834  -0.46812  -0.46576  -0.46363  -0.46348
 Alpha  occ. eigenvalues --   -0.46117  -0.46030  -0.45941  -0.45824  -0.45457
 Alpha  occ. eigenvalues --   -0.45338  -0.44970  -0.44854  -0.44693  -0.44382
 Alpha  occ. eigenvalues --   -0.44275  -0.44230  -0.44221  -0.44096  -0.43832
 Alpha  occ. eigenvalues --   -0.43817  -0.43648  -0.43586  -0.43512  -0.43249
 Alpha  occ. eigenvalues --   -0.43225  -0.43140  -0.42938  -0.42767  -0.42630
 Alpha  occ. eigenvalues --   -0.42547  -0.42301  -0.42175  -0.41927  -0.41762
 Alpha  occ. eigenvalues --   -0.41654  -0.41345  -0.41331  -0.41081  -0.41016
 Alpha  occ. eigenvalues --   -0.41012  -0.40690  -0.40568  -0.40515  -0.40454
 Alpha  occ. eigenvalues --   -0.40288  -0.39970  -0.39731  -0.39493  -0.39189
 Alpha  occ. eigenvalues --   -0.38605  -0.38063  -0.38038  -0.37522  -0.37467
 Alpha  occ. eigenvalues --   -0.37225  -0.37183  -0.36939  -0.36733  -0.36481
 Alpha  occ. eigenvalues --   -0.36432  -0.35887  -0.34506  -0.34337  -0.33912
 Alpha  occ. eigenvalues --   -0.33562  -0.33396  -0.32849  -0.31521  -0.31243
 Alpha  occ. eigenvalues --   -0.31097  -0.30625  -0.30338  -0.29692  -0.29642
 Alpha  occ. eigenvalues --   -0.29530  -0.29061  -0.28928  -0.24278  -0.23700
 Alpha  occ. eigenvalues --   -0.21313  -0.20779
 Alpha virt. eigenvalues --   -0.08967  -0.08486  -0.01928  -0.01373  -0.00259
 Alpha virt. eigenvalues --    0.00275   0.01958   0.02364   0.02601   0.03650
 Alpha virt. eigenvalues --    0.04488   0.04533   0.05219   0.05472   0.05843

 Mulliken charges:
               1
     1  Mg   0.839336
     2  C   -0.004829
     3  C   -0.093594
     4  C   -0.045366
     5  C   -0.063131
     6  N   -0.256964
     7  C   -0.052705
     8  C   -0.014234
     9  C   -0.087204
    10  C    0.046586
    11  C    0.104651
    12  C    0.053480
    13  C   -0.071291
    14  H    0.032536
    15  N   -0.433339
    16  C    0.169249
    17  C   -0.176325
    18  C   -0.003650
    19  C    0.149171
    20  C    0.109870
    21  C    0.011870
    22  O   -0.249523
    23  C    0.061796
    24  N   -0.341177
    25  C    0.041899
    26  C   -0.028340
    27  C   -0.024066
    28  C    0.074959
    29  C    0.076070
    30  C    0.034881
    31  C   -0.006578
    32  N   -0.310200
    33  C    0.079841
    34  C   -0.170673
    35  C    0.007479
    36  C    0.082488
    37  C    0.127525
    38  C    0.044159
    39  O   -0.189826
    40  C   -0.005244
    41  C    0.215865
    42  O   -0.261709
    43  O   -0.302799
    44  C    0.158158
    45  H   -0.017135
    46  H   -0.016429
    47  H   -0.040418
    48  H    0.000700
    49  H   -0.003576
    50  H    0.025469
    51  H    0.017020
    52  H    0.017166
    53  H    0.012816
    54  H    0.040678
    55  H    0.018825
    56  H    0.019396
    57  H    0.006290
    58  H    0.027159
    59  H    0.041343
    60  H    0.037991
    61  H    0.035502
    62  H    0.032492
    63  H    0.016853
    64  H    0.009839
    65  H    0.023603
    66  H    0.012326
    67  H    0.005312
    68  H    0.007006
    69  H    0.006076
    70  H    0.007558
    71  H    0.023195
    72  H    0.028680
    73  H    0.046206
    74  H    0.010642
    75  H    0.046387
    76  H    0.036129
    77  H    0.044386
    78  H    0.047485
    79  H    0.050027
    80  Mg   0.836209
    81  C   -0.017027
    82  C   -0.087151
    83  C   -0.047108
    84  C   -0.065139
    85  N   -0.255486
    86  C   -0.048287
    87  C   -0.015400
    88  C   -0.090446
    89  C    0.044579
    90  C    0.114966
    91  C    0.062340
    92  C   -0.077175
    93  H    0.031867
    94  N   -0.423652
    95  C    0.162696
    96  C   -0.174183
    97  C   -0.009363
    98  C    0.152651
    99  C    0.099643
   100  C    0.014547
   101  O   -0.254872
   102  C    0.061616
   103  N   -0.350536
   104  C    0.037671
   105  C   -0.019620
   106  C   -0.035336
   107  C    0.088831
   108  C    0.072884
   109  C    0.035021
   110  C   -0.007494
   111  N   -0.323993
   112  C    0.078046
   113  C   -0.163744
   114  C    0.001419
   115  C    0.096168
   116  C    0.131520
   117  C    0.040864
   118  O   -0.189759
   119  C    0.001647
   120  C    0.211370
   121  O   -0.251456
   122  O   -0.305272
   123  C    0.152330
   124  H   -0.012313
   125  H   -0.017710
   126  H   -0.041064
   127  H    0.000037
   128  H   -0.004940
   129  H    0.017668
   130  H    0.016033
   131  H    0.033702
   132  H    0.012808
   133  H    0.035812
   134  H    0.023042
   135  H    0.019753
   136  H    0.010850
   137  H    0.024108
   138  H    0.038629
   139  H    0.037162
   140  H    0.035060
   141  H    0.034191
   142  H    0.013598
   143  H    0.014063
   144  H    0.022521
   145  H    0.009960
   146  H    0.007211
   147  H    0.005242
   148  H    0.003772
   149  H    0.010200
   150  H    0.017356
   151  H    0.030625
   152  H    0.045142
   153  H    0.008357
   154  H    0.045516
   155  H    0.034844
   156  H    0.042923
   157  H    0.050509
   158  H    0.052848
 Sum of Mulliken charges =  -0.00000

 Dipole moment (field-independent basis, Debye):
    X=             -6.2619    Y=              1.0594    Z=              4.4880  Tot=              7.7766
 Quadrupole moment (field-independent basis, Debye-Ang):
   XX=           -517.5732   YY=           -511.6927   ZZ=           -490.3884
   XY=            -13.1960   XZ=             -2.6774   YZ=            -16.1546

 Normal termination of Gaussian 16 at Fri Sep  3 18:22:33 2021.
