 Gaussian 16, Revision A.03,
 Gaussian 16:  ES64L-G16RevA.03 25-Dec-2016

 -----------------------------------
 #p cam-b3lyp/Def2SVP td=(nstates=5)
 -----------------------------------

 --------------------------------
 TDDFT excited states in gaussian
 --------------------------------
 Symbolic Z-matrix:
 Charge =  0 Multiplicity = 1

                         Standard orientation:
 ---------------------------------------------------------------------
 Center     Atomic      Atomic             Coordinates (Angstroms)
 Number     Number       Type             X           Y           Z
 ---------------------------------------------------------------------
      1         12           0        7.704502   -0.837379    0.045167
      2          6           0        7.995280    2.087944   -1.996927
      3          6           0        8.604714    1.107914    2.700072
      4          6           0        7.897067   -3.484708    1.780444
      5          6           0        7.944784   -2.721233   -2.876992
      6          7           0        8.208607    1.312273    0.204921
      7          6           0        8.224288    2.336916   -0.641857
      8          6           0        8.432514    3.713382    0.057683
      9          6           0        9.162322    3.213735    1.384231
     10          6           0        8.598903    1.805410    1.455686
     11          6           0       10.679381    3.129629    1.250206
     12          6           0        7.076793    4.425903    0.383359
     13          6           0        7.191014    5.904605    0.765130
     14          1           0        6.140751    6.819628    0.344384
     15          7           0        7.701732   -1.087799    2.004793
     16          6           0        8.085250   -0.183098    2.937379
     17          6           0        7.898492   -0.843710    4.247109
     18          6           0        7.555504   -2.270431    3.992316
     19          6           0        7.732357   -2.345349    2.564559
     20          6           0        7.999479   -0.120790    5.555138
     21          6           0        7.145232   -3.391461    4.894037
     22          8           0        7.119673   -4.607258    4.499374
     23          6           0        6.855359   -3.035316    6.294815
     24          7           0        8.113698   -2.826219   -0.439298
     25          6           0        8.077172   -3.785008    0.492567
     26          6           0        8.120863   -5.150413   -0.126870
     27          6           0        7.949416   -4.928387   -1.698831
     28          6           0        7.917117   -3.380188   -1.716354
     29          6           0        9.394762   -5.964826    0.137558
     30          6           0        6.799919   -5.698047   -2.396469
     31          6           0        5.465362   -5.172579   -1.916948
     32          7           0        7.752394   -0.424701   -2.085196
     33          6           0        7.879149   -1.359880   -3.122522
     34          6           0        7.972488   -0.598357   -4.381665
     35          6           0        7.909806    0.736096   -3.985242
     36          6           0        7.811626    0.804493   -2.566097
     37          6           0        8.155392   -1.152685   -5.679240
     38          6           0        7.927733    2.120679   -4.428486
     39          8           0        7.901196    2.680407   -5.525525
     40          6           0        8.106504    3.053656   -3.150432
     41          6           0        7.086656    4.155525   -3.245835
     42          8           0        5.867015    3.908191   -3.152731
     43          8           0        7.709020    5.343122   -3.192731
     44          6           0        6.751367    6.479538   -3.252847
     45          1           0        9.103421    1.563131    3.557983
     46          1           0        7.857486   -4.426639    2.331478
     47          1           0        7.936498   -3.243251   -3.835575
     48          1           0        9.077533    4.405501   -0.483932
     49          1           0        8.856796    3.788888    2.258059
     50          1           0       10.998830    3.303780    0.222809
     51          1           0       10.943869    2.120006    1.565166
     52          1           0       11.168441    3.801482    1.956045
     53          1           0        6.674263    4.024718    1.313456
     54          1           0        6.376682    4.320763   -0.446168
     55          1           0        8.172258    6.306994    0.511846
     56          1           0        7.138596    5.981987    1.851162
     57          1           0        8.425589    0.873988    5.431078
     58          1           0        8.731471   -0.656427    6.159281
     59          1           0        7.044511   -0.086209    6.079706
     60          1           0        7.739370   -2.578631    6.740361
     61          1           0        6.492273   -3.947012    6.767921
     62          1           0        6.075419   -2.273495    6.311300
     63          1           0        7.303504   -5.771423    0.237408
     64          1           0        8.841053   -5.222434   -2.253082
     65          1           0        9.207047   -6.932265    0.603960
     66          1           0       10.061489   -5.358295    0.749837
     67          1           0       10.012491   -6.145548   -0.741741
     68          1           0        6.839947   -6.755596   -2.137755
     69          1           0        6.828124   -5.621235   -3.483463
     70          1           0        5.307356   -5.720411   -0.988645
     71          1           0        4.683868   -5.400419   -2.642598
     72          1           0        5.521882   -4.113490   -1.664715
     73          1           0        7.475315   -0.614564   -6.339459
     74          1           0        7.949401   -2.222794   -5.685315
     75          1           0        9.208759   -0.929259   -5.847626
     76          1           0        9.126322    3.435919   -3.181563
     77          1           0        7.054012    7.110454   -4.088660
     78          1           0        6.739383    6.927565   -2.259100
     79          1           0        5.728658    6.233363   -3.540602
     80         12           0       -8.164819   -0.444567   -0.095966
     81          6           0       -6.083103    1.847063    1.718967
     82          6           0      -10.548288    1.994897   -0.148079
     83          6           0      -10.182531   -2.579902   -1.294534
     84          6           0       -6.122188   -3.012857    1.077601
     85          7           0       -8.193727    1.613391    0.714114
     86          6           0       -7.322544    2.397372    1.331188
     87          6           0       -7.775378    3.875301    1.473371
     88          6           0       -9.362805    3.650244    1.382336
     89          6           0       -9.380177    2.357739    0.568828
     90          6           0      -10.009906    3.375378    2.729574
     91          6           0       -7.254578    4.775689    0.298597
     92          6           0       -7.395766    6.281577    0.531219
     93          1           0       -6.359028    7.166912    0.007950
     94          7           0       -9.876852   -0.190130   -1.066940
     95          6           0      -10.707242    0.870761   -0.987957
     96          6           0      -11.837297    0.564328   -1.878598
     97          6           0      -11.686989   -0.834885   -2.362682
     98          6           0      -10.562883   -1.272361   -1.559516
     99          6           0      -12.875191    1.581215   -2.255608
    100          6           0      -12.439568   -1.649033   -3.371136
    101          8           0      -12.286941   -2.918477   -3.460884
    102          6           0      -13.429028   -0.930387   -4.187223
    103          7           0       -8.285157   -2.514149    0.061184
    104          6           0       -9.229081   -3.204154   -0.602758
    105          6           0       -8.951696   -4.687934   -0.559769
    106          6           0       -7.488182   -4.833389    0.068373
    107          6           0       -7.195969   -3.348280    0.375717
    108          6           0       -9.939191   -5.526050    0.251896
    109          6           0       -6.445184   -5.636710   -0.755939
    110          6           0       -6.102639   -4.888566   -2.024129
    111          7           0       -6.314780   -0.577444    1.012074
    112          6           0       -5.646783   -1.753154    1.418966
    113          6           0       -4.494620   -1.335878    2.244099
    114          6           0       -4.586231    0.063712    2.279355
    115          6           0       -5.727269    0.487571    1.545953
    116          6           0       -3.568112   -2.208719    2.881176
    117          6           0       -3.983174    1.278328    2.779079
    118          8           0       -2.948611    1.547732    3.388049
    119          6           0       -4.997023    2.479689    2.544101
    120          6           0       -4.230542    3.622133    1.935967
    121          8           0       -3.736322    3.517783    0.799537
    122          8           0       -4.392249    4.717612    2.700259
    123          6           0       -3.659628    5.880460    2.132031
    124          1           0      -11.443496    2.604949   -0.024256
    125          1           0      -10.783645   -3.353111   -1.778579
    126          1           0       -5.381546   -3.748346    1.398815
    127          1           0       -7.519282    4.340000    2.417959
    128          1           0       -9.844741    4.453887    0.831653
    129          1           0       -9.275768    3.259325    3.512964
    130          1           0      -10.575915    2.461756    2.603132
    131          1           0      -10.742228    4.153882    2.961864
    132          1           0       -7.919740    4.655998   -0.566258
    133          1           0       -6.235171    4.540678    0.061523
    134          1           0       -7.609566    6.518292    1.580607
    135          1           0       -8.277878    6.634852   -0.008313
    136          1           0      -12.818061    2.470521   -1.615868
    137          1           0      -13.851750    1.142347   -2.024067
    138          1           0      -12.846254    1.839265   -3.316374
    139          1           0      -14.166415   -0.467224   -3.535908
    140          1           0      -13.798603   -1.661212   -4.909167
    141          1           0      -12.921144   -0.116419   -4.716484
    142          1           0       -8.949541   -5.110017   -1.557233
    143          1           0       -7.510151   -5.356097    1.035905
    144          1           0      -10.412293   -6.334653   -0.336686
    145          1           0      -10.690768   -4.865112    0.662788
    146          1           0       -9.525674   -5.989755    1.145862
    147          1           0       -6.865446   -6.596678   -1.065786
    148          1           0       -5.531655   -5.846400   -0.209593
    149          1           0       -6.912076   -5.171395   -2.703774
    150          1           0       -5.135596   -5.207511   -2.407727
    151          1           0       -6.164517   -3.804922   -1.870718
    152          1           0       -2.583781   -1.790163    2.718718
    153          1           0       -3.640472   -3.220704    2.488225
    154          1           0       -3.918077   -2.143765    3.914893
    155          1           0       -5.423637    2.742567    3.512839
    156          1           0       -2.994442    6.253521    2.916911
    157          1           0       -4.439038    6.572438    1.761331
    158          1           0       -2.954793    5.686468    1.332013
 ---------------------------------------------------------------------

 SCF Done:  E(RCAM-B3LYP) =  -4069.81162682     A.U. after   19 cycles

 Excitation energies and oscillator strengths:

 Excited State   1:      Singlet-A      1.6724 eV  741.34 nm  f=0.2264  <S**2>=0.000
     309 -> 315        0.14718
     311 -> 313        0.58441
     312 -> 314        0.35968
 This state for optimization and/or second-order correction.
 Total Energy, E(TD-HF/TD-DFT) =  -4069.75016610
 Copying the excited state density for this state as the 1-particle RhoCI density.

 Excited State   2:      Singlet-A      1.6830 eV  736.69 nm  f=0.5505  <S**2>=0.000
     310 -> 316        0.15009
     311 -> 313       -0.35935
     312 -> 314        0.58379

 Excited State   3:      Singlet-A      2.1853 eV  567.34 nm  f=0.0500  <S**2>=0.000
     309 -> 313        0.62040
     310 -> 314        0.16827
     311 -> 315       -0.26315

 Excited State   4:      Singlet-A      2.1926 eV  565.46 nm  f=0.1420  <S**2>=0.000
     309 -> 313       -0.16717
     310 -> 314        0.61841
     312 -> 316       -0.26865

 Excited State   5:      Singlet-A      2.7344 eV  453.43 nm  f=0.0000  <S**2>=0.000
     312 -> 313        0.70688

 The electronic state is 1-A.
 Alpha  occ. eigenvalues --  -46.87601 -46.87538 -19.26292 -19.26033 -19.19086
 Alpha  occ. eigenvalues --  -19.18750 -19.18659 -19.18570 -19.18001 -19.17928
 Alpha  occ. eigenvalues --  -14.42440 -14.42196 -14.41301 -14.41204 -14.39293
 Alpha  occ. eigenvalues --  -14.39146 -14.38540 -14.38332 -10.39020 -10.38814
 Alpha  occ. eigenvalues --  -10.35336 -10.35203 -10.34177 -10.34147 -10.31708
 Alpha  occ. eigenvalues --  -10.31441 -10.31253 -10.31155 -10.30968 -10.30651
 Alpha  occ. eigenvalues --  -10.30339 -10.30318 -10.30302 -10.30260 -10.30084
 Alpha  occ. eigenvalues --  -10.29966 -10.29837 -10.29685 -10.29382 -10.29379
 Alpha  occ. eigenvalues --  -10.29343 -10.29004 -10.28667 -10.28600 -10.28491
 Alpha  occ. eigenvalues --  -10.28347 -10.28272 -10.28110 -10.28092 -10.27944
 Alpha  occ. eigenvalues --  -10.27870 -10.27614 -10.27545 -10.27477 -10.27461
 Alpha  occ. eigenvalues --  -10.27427 -10.27414 -10.27408 -10.27332 -10.27322
 Alpha  occ. eigenvalues --  -10.27291 -10.27242 -10.27219 -10.27152 -10.26997
 Alpha  occ. eigenvalues --  -10.26911 -10.26631 -10.26414 -10.26362 -10.26155
 Alpha  occ. eigenvalues --  -10.26073 -10.26013 -10.25989 -10.25986 -10.25875
 Alpha  occ. eigenvalues --  -10.25791 -10.25778 -10.25624 -10.25352 -10.25250
 Alpha  occ. eigenvalues --  -10.24815 -10.24656 -10.24633 -10.24585 -10.24545
 Alpha  occ. eigenvalues --  -10.24478  -3.16350  -3.16280  -1.91232  -1.91161
 Alpha  occ. eigenvalues --   -1.90821  -1.90749  -1.90658  -1.90591  -1.16583
 Alpha  occ. eigenvalues --   -1.16378  -1.08607  -1.08385  -1.06972  -1.06911
 Alpha  occ. eigenvalues --   -1.06874  -1.06376  -1.04438  -1.04327  -1.03606
 Alpha  occ. eigenvalues --   -1.03513  -1.02983  -1.02981  -1.02162  -1.02053
 Alpha  occ. eigenvalues --   -0.91931  -0.91723  -0.89436  -0.89290  -0.89100
 Alpha  occ. eigenvalues --   -0.88935  -0.88163  -0.88063  -0.87736  -0.87630
 Alpha  occ. eigenvalues --   -0.87628  -0.87422  -0.87064  -0.87020  -0.84946
 Alpha  occ. eigenvalues --   -0.84729  -0.83818  -0.83717  -0.82876  -0.82723
 Alpha  occ. eigenvalues --   -0.82599  -0.82401  -0.81541  -0.81341  -0.80387
 Alpha  occ. eigenvalues --   -0.80349  -0.78579  -0.78547  -0.77090  -0.76979
 Alpha  occ. eigenvalues --   -0.76844  -0.76693  -0.75787  -0.75681  -0.74749
 Alpha  occ. eigenvalues --   -0.74676  -0.72642  -0.72532  -0.71528  -0.71435
 Alpha  occ. eigenvalues --   -0.69697  -0.69691  -0.68773  -0.68624  -0.67545
 Alpha  occ. eigenvalues --   -0.67395  -0.67144  -0.66958  -0.65217  -0.65033
 Alpha  occ. eigenvalues --   -0.64713  -0.64609  -0.64598  -0.64378  -0.64146
 Alpha  occ. eigenvalues --   -0.64039  -0.62221  -0.62053  -0.60283  -0.60196
 Alpha  occ. eigenvalues --   -0.59743  -0.59553  -0.58936  -0.58745  -0.58369
 Alpha  occ. eigenvalues --   -0.58260  -0.57496  -0.57336  -0.57180  -0.57071
 Alpha  occ. eigenvalues --   -0.56148  -0.56065  -0.55831  -0.55730  -0.55397
 Alpha  occ. eigenvalues --   -0.55276  -0.55191  -0.55112  -0.54429  -0.54289
 Alpha  occ. eigenvalues --   -0.53859  -0.53640  -0.53172  -0.53086  -0.53056
 Alpha  occ. eigenvalues --   -0.52970  -0.52843  -0.52666  -0.52615  -0.52504
 Alpha  occ. eigenvalues --   -0.52337  -0.52221  -0.51826  -0.51682  -0.51604
 Alpha  occ. eigenvalues --   -0.51360  -0.51146  -0.50956  -0.50421  -0.50318
 Alpha  occ. eigenvalues --   -0.49926  -0.49812  -0.49809  -0.49670  -0.49433
 Alpha  occ. eigenvalues --   -0.49266  -0.49147  -0.49054  -0.48968  -0.48855
 Alpha  occ. eigenvalues --   -0.48503  -0.48353  -0.48322  -0.48285  -0.48234
 Alpha  occ. eigenvalues --   -0.48200  -0.47540  -0.47452  -0.47064  -0.47057
 Alpha  occ. eigenvalues --   -0.46652  -0.46558  -0.46500  -0.46302  -0.46213
 Alpha  occ. eigenvalues --   -0.46117  -0.46028  -0.45927  -0.45767  -0.45585
 Alpha  occ. eigenvalues --   -0.45154  -0.44980  -0.44460  -0.44422  -0.44337
 Alpha  occ. eigenvalues --   -0.44263  -0.44075  -0.44020  -0.43908  -0.43885
 Alpha  occ. eigenvalues --   -0.43846  -0.43774  -0.43497  -0.43331  -0.43253
 Alpha  occ. eigenvalues --   -0.43143  -0.42873  -0.42845  -0.42787  -0.42495
 Alpha  occ. eigenvalues --   -0.42462  -0.42421  -0.41905  -0.41776  -0.41615
 Alpha  occ. eigenvalues --   -0.41462  -0.41403  -0.41284  -0.40937  -0.40902
 Alpha  occ. eigenvalues --   -0.40667  -0.40643  -0.40627  -0.40573  -0.40437
 Alpha  occ. eigenvalues --   -0.40345  -0.40171  -0.39964  -0.39363  -0.39225
 Alpha  occ. eigenvalues --   -0.38294  -0.38243  -0.37597  -0.37487  -0.37208
 Alpha  occ. eigenvalues --   -0.37143  -0.37087  -0.37005  -0.36708  -0.36465
 Alpha  occ. eigenvalues --   -0.36158  -0.35948  -0.34195  -0.34036  -0.33789
 Alpha  occ. eigenvalues --   -0.33502  -0.33117  -0.32936  -0.31218  -0.31101
 Alpha  occ. eigenvalues --   -0.30916  -0.30788  -0.29905  -0.29787  -0.29270
 Alpha  occ. eigenvalues --   -0.29196  -0.29153  -0.29072  -0.23978  -0.23829
 Alpha  occ. eigenvalues --   -0.21060  -0.20879
 Alpha virt. eigenvalues --   -0.08735  -0.08524  -0.01626  -0.01501   0.00027
 Alpha virt. eigenvalues --    0.00194   0.02263   0.02444   0.03309   0.03447
 Alpha virt. eigenvalues --    0.04785   0.04968   0.05231   0.05360   0.06237

 Mulliken charges:
               1
     1  Mg   0.840081
     2  C   -0.002467
     3  C   -0.093629
     4  C   -0.045987
     5  C   -0.064187
     6  N   -0.256736
     7  C   -0.052243
     8  C   -0.014204
     9  C   -0.087093
    10  C    0.046668
    11  C    0.104918
    12  C    0.053314
    13  C   -0.071627
    14  H    0.036088
    15  N   -0.433063
    16  C    0.168910
    17  C   -0.176773
    18  C   -0.003847
    19  C    0.148995
    20  C    0.110205
    21  C    0.012582
    22  O   -0.250180
    23  C    0.062198
    24  N   -0.341165
    25  C    0.041276
    26  C   -0.028068
    27  C   -0.023884
    28  C    0.074906
    29  C    0.076356
    30  C    0.035231
    31  C   -0.004452
    32  N   -0.310443
    33  C    0.080544
    34  C   -0.169803
    35  C    0.008225
    36  C    0.083311
    37  C    0.127305
    38  C    0.046239
    39  O   -0.188892
    40  C   -0.005454
    41  C    0.212603
    42  O   -0.255950
    43  O   -0.305123
    44  C    0.157763
    45  H   -0.017894
    46  H   -0.017264
    47  H   -0.041961
    48  H    0.000471
    49  H   -0.003909
    50  H    0.025195
    51  H    0.016218
    52  H    0.016260
    53  H    0.012352
    54  H    0.044966
    55  H    0.017116
    56  H    0.017967
    57  H    0.005777
    58  H    0.026235
    59  H    0.040596
    60  H    0.036938
    61  H    0.035204
    62  H    0.032773
    63  H    0.016321
    64  H    0.009022
    65  H    0.022762
    66  H    0.012449
    67  H    0.004372
    68  H    0.005721
    69  H    0.004468
    70  H    0.008460
    71  H    0.017800
    72  H    0.029942
    73  H    0.047520
    74  H    0.008819
    75  H    0.045523
    76  H    0.034654
    77  H    0.042270
    78  H    0.046262
    79  H    0.054150
    80  Mg   0.838272
    81  C   -0.016628
    82  C   -0.087819
    83  C   -0.045515
    84  C   -0.064871
    85  N   -0.254556
    86  C   -0.049853
    87  C   -0.015124
    88  C   -0.090485
    89  C    0.045808
    90  C    0.114429
    91  C    0.062523
    92  C   -0.077908
    93  H    0.035110
    94  N   -0.423458
    95  C    0.162978
    96  C   -0.174676
    97  C   -0.007798
    98  C    0.152157
    99  C    0.099407
   100  C    0.015608
   101  O   -0.253236
   102  C    0.061165
   103  N   -0.350096
   104  C    0.037501
   105  C   -0.019778
   106  C   -0.034837
   107  C    0.088967
   108  C    0.073707
   109  C    0.034715
   110  C   -0.007686
   111  N   -0.324172
   112  C    0.078612
   113  C   -0.162806
   114  C    0.002164
   115  C    0.096509
   116  C    0.131351
   117  C    0.042761
   118  O   -0.188320
   119  C    0.000781
   120  C    0.211074
   121  O   -0.249998
   122  O   -0.305985
   123  C    0.151981
   124  H   -0.019815
   125  H   -0.015631
   126  H   -0.040378
   127  H   -0.000912
   128  H   -0.004347
   129  H    0.022256
   130  H    0.014370
   131  H    0.016098
   132  H    0.014093
   133  H    0.038102
   134  H    0.020433
   135  H    0.019545
   136  H    0.008679
   137  H    0.025992
   138  H    0.039870
   139  H    0.038136
   140  H    0.036358
   141  H    0.034031
   142  H    0.014446
   143  H    0.012283
   144  H    0.025067
   145  H    0.011517
   146  H    0.005550
   147  H    0.006112
   148  H    0.003736
   149  H    0.010861
   150  H    0.018157
   151  H    0.030352
   152  H    0.046342
   153  H    0.008774
   154  H    0.046486
   155  H    0.034557
   156  H    0.043128
   157  H    0.049391
   158  H    0.054386
 Sum of Mulliken charges =  -0.00000

 Dipole moment (field-independent basis, Debye):
    X=             -2.1585    Y=              2.6521    Z=              4.1752  Tot=              5.3968
 Quadrupole moment (field-independent basis, Debye-Ang):
   XX=           -434.8206   YY=           -466.1392   ZZ=           -525.4087
   XY=            -28.9248   XZ=             21.3008   YZ=             25.9313

 Normal termination of Gaussian 16 at Sun Sep 12 00:49:15 2021.
