 Gaussian 16, Revision A.03,
 Gaussian 16:  ES64L-G16RevA.03 25-Dec-2016

 -----------------------------------
 #p cam-b3lyp/Def2SVP td=(nstates=5)
 -----------------------------------

 --------------------------------
 TDDFT excited states in gaussian
 --------------------------------
 Symbolic Z-matrix:
 Charge =  0 Multiplicity = 1

                         Standard orientation:
 ---------------------------------------------------------------------
 Center     Atomic      Atomic             Coordinates (Angstroms)
 Number     Number       Type             X           Y           Z
 ---------------------------------------------------------------------
      1         12           0       -5.364720   -0.235417    0.311305
      2          6           0       -5.166926    3.268076    1.017439
      3          6           0       -6.358013    0.607788   -2.842334
      4          6           0       -5.982975   -3.303928   -0.197246
      5          6           0       -5.466670   -0.773140    3.753124
      6          7           0       -5.682763    1.723758   -0.669066
      7          6           0       -5.514241    2.991643   -0.306797
      8          6           0       -5.667711    3.997040   -1.487050
      9          6           0       -6.576799    3.113396   -2.453865
     10          6           0       -6.156235    1.731136   -1.986525
     11          6           0       -8.072394    3.281706   -2.206137
     12          6           0       -4.294273    4.346301   -2.152945
     13          6           0       -4.311601    5.557717   -3.089709
     14          1           0       -3.142899    6.423319   -3.136788
     15          7           0       -5.592569   -1.233556   -1.378267
     16          6           0       -5.987728   -0.727188   -2.571048
     17          6           0       -6.002366   -1.867012   -3.512998
     18          6           0       -5.767195   -3.109949   -2.726934
     19          6           0       -5.797996   -2.594988   -1.381853
     20          6           0       -6.174292   -1.709494   -4.992653
     21          6           0       -5.559729   -4.537221   -3.124406
     22          8           0       -5.604606   -5.492867   -2.276290
     23          6           0       -5.388268   -4.799753   -4.564795
     24          7           0       -5.901738   -1.804823    1.578670
     25          6           0       -6.052568   -3.048787    1.110922
     26          6           0       -6.155984   -4.043642    2.228736
     27          6           0       -5.799312   -3.245711    3.565091
     28          6           0       -5.622882   -1.832731    2.956298
     29          6           0       -7.520288   -4.727861    2.391621
     30          6           0       -4.658199   -3.818440    4.442738
     31          6           0       -3.339237   -3.697302    3.712832
     32          7           0       -5.148519    0.983296    2.094291
     33          6           0       -5.250298    0.554979    3.425779
     34          6           0       -5.139229    1.755008    4.275287
     35          6           0       -4.996241    2.806858    3.372507
     36          6           0       -5.043023    2.299311    2.042658
     37          6           0       -5.233962    1.782929    5.694681
     38          6           0       -4.839526    4.244386    3.221468
     39          8           0       -4.645520    5.181744    3.996848
     40          6           0       -5.065946    4.614867    1.689377
     41          6           0       -3.944603    5.526728    1.271755
     42          8           0       -2.769674    5.110292    1.212680
     43          8           0       -4.457049    6.666484    0.782983
     44          6           0       -3.397841    7.603835    0.322976
     45          1           0       -6.900711    0.748669   -3.779122
     46          1           0       -6.088896   -4.383342   -0.324065
     47          1           0       -5.405030   -0.873169    4.838319
     48          1           0       -6.185241    4.921947   -1.231835
     49          1           0       -6.313863    3.255339   -3.501929
     50          1           0       -8.263838    3.884356   -1.318397
     51          1           0       -8.460609    2.271895   -2.071733
     52          1           0       -8.569483    3.678419   -3.091742
     53          1           0       -4.031177    3.564542   -2.865472
     54          1           0       -3.522927    4.487616   -1.395066
     55          1           0       -5.219248    6.148086   -2.961059
     56          1           0       -4.367587    5.194992   -4.116109
     57          1           0       -6.491424   -0.700657   -5.253842
     58          1           0       -7.012353   -2.341901   -5.284928
     59          1           0       -5.281144   -2.005068   -5.543339
     60          1           0       -6.268651   -4.446733   -5.102244
     61          1           0       -5.162849   -5.862022   -4.652092
     62          1           0       -4.547627   -4.211168   -4.933361
     63          1           0       -5.442491   -4.855968    2.096525
     64          1           0       -6.650510   -3.182842    4.243459
     65          1           0       -7.472928   -5.816043    2.343447
     66          1           0       -8.189394   -4.331380    1.628475
     67          1           0       -8.055428   -4.468813    3.304822
     68          1           0       -4.822633   -4.878262    4.634272
     69          1           0       -4.563936   -3.317957    5.406523
     70          1           0       -3.331562   -4.580939    3.075684
     71          1           0       -2.509615   -3.718865    4.420274
     72          1           0       -3.324364   -2.824528    3.059739
     73          1           0       -4.441135    2.446204    6.040313
     74          1           0       -5.127927    0.784489    6.118327
     75          1           0       -6.238492    2.186084    5.822122
     76          1           0       -6.037164    5.104538    1.625508
     77          1           0       -3.550867    8.545156    0.850928
     78          1           0       -3.449951    7.620088   -0.765796
     79          1           0       -2.377454    7.363006    0.623229
     80         12           0        5.147872   -1.305804   -0.357604
     81          6           0        6.541241    1.970430    0.093927
     82          6           0        3.222224    0.018579   -2.842059
     83          6           0        3.582472   -4.063041   -0.478253
     84          6           0        6.304350   -2.086217    2.836023
     85          7           0        4.992547    0.742988   -1.176503
     86          6           0        5.615883    1.892869   -0.967740
     87          6           0        5.284792    3.001159   -2.002941
     88          6           0        3.851008    2.460673   -2.483587
     89          6           0        4.037332    0.974507   -2.184860
     90          6           0        2.698811    2.977055   -1.637932
     91          6           0        6.311854    3.037675   -3.188606
     92          6           0        6.231855    4.285717   -4.070505
     93          1           0        7.469318    4.824415   -4.628150
     94          7           0        3.995326   -2.066962   -1.782683
     95          6           0        3.305620   -1.386027   -2.721779
     96          6           0        2.599641   -2.401808   -3.517981
     97          6           0        2.797968   -3.726810   -2.870103
     98          6           0        3.463475   -3.325233   -1.647031
     99          6           0        1.897743   -2.082830   -4.806012
    100          6           0        2.435695   -5.122940   -3.277285
    101          8           0        2.491513   -6.101221   -2.451039
    102          6           0        1.924637   -5.295209   -4.644992
    103          7           0        4.781238   -2.782193    1.059510
    104          6           0        4.118976   -3.905606    0.731989
    105          6           0        4.215733   -4.936099    1.831584
    106          6           0        5.288036   -4.358859    2.868193
    107          6           0        5.571945   -2.993426    2.204572
    108          6           0        2.912970   -5.247569    2.567902
    109          6           0        6.492383   -5.275146    3.218390
    110          6           0        7.379612   -5.447053    2.006504
    111          7           0        6.383280   -0.339631    1.128443
    112          6           0        6.720766   -0.832053    2.408175
    113          6           0        7.483386    0.229851    3.096070
    114          6           0        7.517150    1.283390    2.170112
    115          6           0        6.807176    0.912300    0.996352
    116          6           0        7.993706    0.161030    4.423087
    117          6           0        7.982871    2.629006    1.922858
    118          8           0        8.710227    3.420297    2.521657
    119          6           0        7.263757    3.180729    0.617155
    120          6           0        8.312447    3.805143   -0.261991
    121          8           0        9.205667    3.107252   -0.773579
    122          8           0        7.963751    5.077057   -0.528456
    123          6           0        8.967576    5.735254   -1.406494
    124          1           0        2.413198    0.376954   -3.479181
    125          1           0        3.153747   -5.067398   -0.508973
    126          1           0        6.783543   -2.288276    3.796345
    127          1           0        5.186507    3.996651   -1.586875
    128          1           0        3.705591    2.620180   -3.548844
    129          1           0        3.046422    3.529973   -0.777936
    130          1           0        2.146729    2.100135   -1.326058
    131          1           0        2.011125    3.562469   -2.254950
    132          1           0        6.037462    2.270227   -3.923774
    133          1           0        7.314492    2.913601   -2.828124
    134          1           0        5.641626    5.083408   -3.603331
    135          1           0        5.674491    4.035344   -4.976417
    136          1           0        1.778976   -1.000819   -4.942134
    137          1           0        0.873164   -2.459044   -4.713506
    138          1           0        2.370239   -2.553331   -5.670904
    139          1           0        1.036081   -4.682704   -4.778305
    140          1           0        1.805825   -6.372145   -4.779074
    141          1           0        2.675086   -4.918498   -5.348923
    142          1           0        4.574758   -5.881899    1.444729
    143          1           0        4.834127   -4.144284    3.846853
    144          1           0        2.639330   -6.319116    2.536537
    145          1           0        2.125649   -4.641360    2.139907
    146          1           0        2.891332   -4.948992    3.614600
    147          1           0        6.141901   -6.273755    3.490608
    148          1           0        7.089205   -4.906594    4.046007
    149          1           0        6.884570   -6.248438    1.449916
    150          1           0        8.384845   -5.736937    2.305703
    151          1           0        7.363867   -4.549914    1.376774
    152          1           0        8.996020    0.567166    4.392652
    153          1           0        7.988925   -0.860177    4.798419
    154          1           0        7.269290    0.793089    4.943652
    155          1           0        6.513814    3.905013    0.937433
    156          1           0        9.297582    6.642195   -0.890510
    157          1           0        8.468592    5.865764   -2.385132
    158          1           0        9.910814    5.224231   -1.560110
 ---------------------------------------------------------------------

 SCF Done:  E(RCAM-B3LYP) =  -4069.81147335     A.U. after   19 cycles

 Excitation energies and oscillator strengths:

 Excited State   1:      Singlet-A      1.6558 eV  748.78 nm  f=0.0572  <S**2>=0.000
     309 -> 315       -0.11311
     310 -> 316        0.12555
     311 -> 313       -0.45809
     312 -> 314        0.51225
 This state for optimization and/or second-order correction.
 Total Energy, E(TD-HF/TD-DFT) =  -4069.75062347
 Copying the excited state density for this state as the 1-particle RhoCI density.

 Excited State   2:      Singlet-A      1.6960 eV  731.04 nm  f=0.6749  <S**2>=0.000
     309 -> 315        0.13442
     310 -> 316        0.11889
     311 -> 313        0.51029
     312 -> 314        0.45641

 Excited State   3:      Singlet-A      2.1822 eV  568.17 nm  f=0.0228  <S**2>=0.000
     309 -> 313       -0.27152
     310 -> 314        0.58438
     311 -> 315        0.11301
     312 -> 316       -0.24452

 Excited State   4:      Singlet-A      2.1945 eV  564.97 nm  f=0.1584  <S**2>=0.000
     309 -> 313        0.58046
     310 -> 314        0.26827
     311 -> 315       -0.25457
     312 -> 316       -0.11821

 Excited State   5:      Singlet-A      2.4595 eV  504.09 nm  f=0.0000  <S**2>=0.000
     312 -> 313        0.70698

 The electronic state is 1-A.
 Alpha  occ. eigenvalues --  -46.87948 -46.87502 -19.26475 -19.26211 -19.19215
 Alpha  occ. eigenvalues --  -19.19022 -19.18940 -19.18592 -19.18314 -19.17895
 Alpha  occ. eigenvalues --  -14.42610 -14.42330 -14.41590 -14.41206 -14.39554
 Alpha  occ. eigenvalues --  -14.39200 -14.38736 -14.38442 -10.39271 -10.38948
 Alpha  occ. eigenvalues --  -10.35576 -10.35274 -10.34537 -10.34070 -10.31878
 Alpha  occ. eigenvalues --  -10.31637 -10.31569 -10.31135 -10.31082 -10.30864
 Alpha  occ. eigenvalues --  -10.30725 -10.30645 -10.30342 -10.30245 -10.30208
 Alpha  occ. eigenvalues --  -10.30045 -10.30000 -10.29777 -10.29741 -10.29403
 Alpha  occ. eigenvalues --  -10.29291 -10.29262 -10.28959 -10.28831 -10.28550
 Alpha  occ. eigenvalues --  -10.28534 -10.28521 -10.28309 -10.28250 -10.27941
 Alpha  occ. eigenvalues --  -10.27920 -10.27887 -10.27852 -10.27736 -10.27679
 Alpha  occ. eigenvalues --  -10.27596 -10.27560 -10.27535 -10.27509 -10.27420
 Alpha  occ. eigenvalues --  -10.27393 -10.27332 -10.27323 -10.27320 -10.27247
 Alpha  occ. eigenvalues --  -10.26983 -10.26881 -10.26569 -10.26557 -10.26401
 Alpha  occ. eigenvalues --  -10.26348 -10.26257 -10.26158 -10.26032 -10.25959
 Alpha  occ. eigenvalues --  -10.25788 -10.25700 -10.25672 -10.25511 -10.25273
 Alpha  occ. eigenvalues --  -10.24980 -10.24921 -10.24744 -10.24719 -10.24630
 Alpha  occ. eigenvalues --  -10.24537  -3.16691  -3.16252  -1.91572  -1.91159
 Alpha  occ. eigenvalues --   -1.91134  -1.91001  -1.90723  -1.90560  -1.16825
 Alpha  occ. eigenvalues --   -1.16505  -1.08773  -1.08501  -1.07337  -1.06843
 Alpha  occ. eigenvalues --   -1.06835  -1.06806  -1.04743  -1.04329  -1.03905
 Alpha  occ. eigenvalues --   -1.03507  -1.03380  -1.02887  -1.02557  -1.01957
 Alpha  occ. eigenvalues --   -0.92128  -0.91826  -0.89639  -0.89385  -0.89356
 Alpha  occ. eigenvalues --   -0.88956  -0.88400  -0.88086  -0.88011  -0.87838
 Alpha  occ. eigenvalues --   -0.87642  -0.87531  -0.87434  -0.87011  -0.85172
 Alpha  occ. eigenvalues --   -0.84832  -0.84043  -0.83748  -0.83110  -0.82831
 Alpha  occ. eigenvalues --   -0.82822  -0.82497  -0.81753  -0.81452  -0.80758
 Alpha  occ. eigenvalues --   -0.80299  -0.78953  -0.78509  -0.77376  -0.77103
 Alpha  occ. eigenvalues --   -0.76996  -0.76743  -0.76093  -0.75662  -0.75018
 Alpha  occ. eigenvalues --   -0.74665  -0.72918  -0.72548  -0.71819  -0.71413
 Alpha  occ. eigenvalues --   -0.70004  -0.69632  -0.69052  -0.68667  -0.67793
 Alpha  occ. eigenvalues --   -0.67460  -0.67424  -0.67069  -0.65473  -0.65107
 Alpha  occ. eigenvalues --   -0.65007  -0.64778  -0.64619  -0.64501  -0.64391
 Alpha  occ. eigenvalues --   -0.64066  -0.62462  -0.62137  -0.60587  -0.60218
 Alpha  occ. eigenvalues --   -0.59985  -0.59619  -0.59133  -0.58842  -0.58652
 Alpha  occ. eigenvalues --   -0.58278  -0.57747  -0.57445  -0.57399  -0.57101
 Alpha  occ. eigenvalues --   -0.56463  -0.56162  -0.56064  -0.55749  -0.55674
 Alpha  occ. eigenvalues --   -0.55467  -0.55319  -0.55111  -0.54663  -0.54354
 Alpha  occ. eigenvalues --   -0.54093  -0.53729  -0.53447  -0.53399  -0.53092
 Alpha  occ. eigenvalues --   -0.53079  -0.52996  -0.52931  -0.52758  -0.52543
 Alpha  occ. eigenvalues --   -0.52533  -0.52283  -0.52047  -0.51810  -0.51733
 Alpha  occ. eigenvalues --   -0.51511  -0.51344  -0.51053  -0.50741  -0.50385
 Alpha  occ. eigenvalues --   -0.50158  -0.50070  -0.49829  -0.49735  -0.49685
 Alpha  occ. eigenvalues --   -0.49376  -0.49339  -0.49269  -0.49048  -0.48915
 Alpha  occ. eigenvalues --   -0.48754  -0.48593  -0.48579  -0.48397  -0.48244
 Alpha  occ. eigenvalues --   -0.48211  -0.47854  -0.47454  -0.47447  -0.46994
 Alpha  occ. eigenvalues --   -0.46944  -0.46747  -0.46563  -0.46503  -0.46387
 Alpha  occ. eigenvalues --   -0.46300  -0.46137  -0.45977  -0.45944  -0.45669
 Alpha  occ. eigenvalues --   -0.45317  -0.45070  -0.44733  -0.44667  -0.44366
 Alpha  occ. eigenvalues --   -0.44318  -0.44285  -0.44258  -0.44175  -0.43954
 Alpha  occ. eigenvalues --   -0.43947  -0.43806  -0.43654  -0.43546  -0.43410
 Alpha  occ. eigenvalues --   -0.43227  -0.43174  -0.42868  -0.42790  -0.42769
 Alpha  occ. eigenvalues --   -0.42750  -0.42424  -0.42147  -0.41855  -0.41827
 Alpha  occ. eigenvalues --   -0.41717  -0.41511  -0.41306  -0.41293  -0.41042
 Alpha  occ. eigenvalues --   -0.40979  -0.40813  -0.40690  -0.40594  -0.40546
 Alpha  occ. eigenvalues --   -0.40466  -0.40347  -0.40086  -0.39533  -0.39304
 Alpha  occ. eigenvalues --   -0.38596  -0.38210  -0.37967  -0.37512  -0.37451
 Alpha  occ. eigenvalues --   -0.37449  -0.37122  -0.37040  -0.36882  -0.36634
 Alpha  occ. eigenvalues --   -0.36345  -0.36072  -0.34436  -0.34097  -0.33958
 Alpha  occ. eigenvalues --   -0.33720  -0.33337  -0.33022  -0.31469  -0.31184
 Alpha  occ. eigenvalues --   -0.31149  -0.30815  -0.30175  -0.29798  -0.29599
 Alpha  occ. eigenvalues --   -0.29468  -0.29189  -0.29058  -0.24230  -0.23877
 Alpha  occ. eigenvalues --   -0.21277  -0.20963
 Alpha virt. eigenvalues --   -0.08924  -0.08643  -0.01894  -0.01531  -0.00210
 Alpha virt. eigenvalues --    0.00113   0.02060   0.02361   0.02945   0.03371
 Alpha virt. eigenvalues --    0.04538   0.04895   0.04912   0.05310   0.05943

 Mulliken charges:
               1
     1  Mg   0.838426
     2  C   -0.003451
     3  C   -0.095270
     4  C   -0.045064
     5  C   -0.063571
     6  N   -0.256751
     7  C   -0.052817
     8  C   -0.013825
     9  C   -0.086840
    10  C    0.045914
    11  C    0.104768
    12  C    0.053838
    13  C   -0.071404
    14  H    0.034578
    15  N   -0.433124
    16  C    0.168031
    17  C   -0.178133
    18  C   -0.004105
    19  C    0.148815
    20  C    0.110378
    21  C    0.012537
    22  O   -0.248107
    23  C    0.062870
    24  N   -0.341127
    25  C    0.041195
    26  C   -0.028383
    27  C   -0.024077
    28  C    0.074998
    29  C    0.076004
    30  C    0.034982
    31  C   -0.004639
    32  N   -0.310508
    33  C    0.080517
    34  C   -0.169362
    35  C    0.008510
    36  C    0.083014
    37  C    0.127254
    38  C    0.046250
    39  O   -0.187949
    40  C   -0.005396
    41  C    0.213085
    42  O   -0.257884
    43  O   -0.304553
    44  C    0.157638
    45  H   -0.017707
    46  H   -0.016024
    47  H   -0.041040
    48  H    0.001301
    49  H   -0.004708
    50  H    0.025741
    51  H    0.016817
    52  H    0.016747
    53  H    0.009537
    54  H    0.043363
    55  H    0.018928
    56  H    0.017483
    57  H    0.005596
    58  H    0.027394
    59  H    0.037662
    60  H    0.037440
    61  H    0.036784
    62  H    0.029068
    63  H    0.017549
    64  H    0.009657
    65  H    0.023784
    66  H    0.012441
    67  H    0.004890
    68  H    0.006795
    69  H    0.004620
    70  H    0.010130
    71  H    0.017741
    72  H    0.028830
    73  H    0.047916
    74  H    0.009396
    75  H    0.046293
    76  H    0.035417
    77  H    0.043696
    78  H    0.045902
    79  H    0.053297
    80  Mg   0.838498
    81  C   -0.016723
    82  C   -0.087661
    83  C   -0.045430
    84  C   -0.064746
    85  N   -0.254686
    86  C   -0.048831
    87  C   -0.015151
    88  C   -0.090900
    89  C    0.046386
    90  C    0.114897
    91  C    0.062632
    92  C   -0.077416
    93  H    0.034077
    94  N   -0.423505
    95  C    0.163026
    96  C   -0.174888
    97  C   -0.007809
    98  C    0.152003
    99  C    0.099827
   100  C    0.015855
   101  O   -0.252702
   102  C    0.061500
   103  N   -0.349905
   104  C    0.037489
   105  C   -0.019784
   106  C   -0.034826
   107  C    0.089026
   108  C    0.073687
   109  C    0.034798
   110  C   -0.007605
   111  N   -0.324214
   112  C    0.078789
   113  C   -0.162964
   114  C    0.002603
   115  C    0.096342
   116  C    0.131366
   117  C    0.042623
   118  O   -0.187882
   119  C    0.000784
   120  C    0.211093
   121  O   -0.251424
   122  O   -0.305291
   123  C    0.152215
   124  H   -0.020184
   125  H   -0.015513
   126  H   -0.040680
   127  H   -0.000106
   128  H   -0.005825
   129  H    0.024863
   130  H    0.016265
   131  H    0.016175
   132  H    0.013398
   133  H    0.037414
   134  H    0.020964
   135  H    0.018877
   136  H    0.007992
   137  H    0.024470
   138  H    0.038917
   139  H    0.036932
   140  H    0.036445
   141  H    0.033337
   142  H    0.014140
   143  H    0.012334
   144  H    0.024794
   145  H    0.012381
   146  H    0.005025
   147  H    0.005908
   148  H    0.003508
   149  H    0.010809
   150  H    0.017630
   151  H    0.030242
   152  H    0.045713
   153  H    0.008157
   154  H    0.047743
   155  H    0.036417
   156  H    0.043802
   157  H    0.049232
   158  H    0.053255
 Sum of Mulliken charges =  -0.00000

 Dipole moment (field-independent basis, Debye):
    X=             -6.0653    Y=             -0.0087    Z=             -6.1338  Tot=              8.6262
 Quadrupole moment (field-independent basis, Debye-Ang):
   XX=           -540.0322   YY=           -527.3618   ZZ=           -465.9295
   XY=            -16.6494   XZ=              9.1529   YZ=            -57.0347

 Normal termination of Gaussian 16 at Fri Sep 10 19:58:58 2021.
