 Gaussian 16, Revision A.03,
 Gaussian 16:  ES64L-G16RevA.03 25-Dec-2016

 -----------------------------------
 #p cam-b3lyp/Def2SVP td=(nstates=5)
 -----------------------------------

 --------------------------------
 TDDFT excited states in gaussian
 --------------------------------
 Symbolic Z-matrix:
 Charge =  0 Multiplicity = 1

                         Standard orientation:
 ---------------------------------------------------------------------
 Center     Atomic      Atomic             Coordinates (Angstroms)
 Number     Number       Type             X           Y           Z
 ---------------------------------------------------------------------
      1         12           0      -15.787820    0.599072   -0.509050
      2          6           0      -16.027415   -2.524058    1.223251
      3          6           0      -16.751101    2.112852    2.393299
      4          6           0      -16.023836    3.314040   -2.130737
      5          6           0      -15.958184   -1.206925   -3.484787
      6          7           0      -16.294493   -0.210234    1.488187
      7          6           0      -16.289082   -1.420437    2.038232
      8          6           0      -16.513469   -1.399408    3.579849
      9          6           0      -17.275501   -0.004483    3.704307
     10          6           0      -16.714739    0.689132    2.475336
     11          6           0      -18.788908   -0.121508    3.554619
     12          6           0      -15.165661   -1.389018    4.376740
     13          6           0      -15.288309   -1.696272    5.872035
     14          1           0      -14.227659   -2.452106    6.520944
     15          7           0      -15.832707    2.469872    0.124151
     16          6           0      -16.238240    2.903147    1.341977
     17          6           0      -16.083655    4.373674    1.323668
     18          6           0      -15.735358    4.777305   -0.066967
     19          6           0      -15.877575    3.523167   -0.761438
     20          6           0      -16.215942    5.230206    2.545389
     21          6           0      -15.347678    6.087806   -0.675592
     22          8           0      -15.313211    6.266342   -1.941100
     23          6           0      -15.091667    7.196984    0.261011
     24          7           0      -16.186219    1.025997   -2.513208
     25          6           0      -16.172819    2.284273   -2.966578
     26          6           0      -16.202211    2.324833   -4.465721
     27          6           0      -15.992575    0.818688   -4.952889
     28          6           0      -15.959025    0.125387   -3.568520
     29          6           0      -17.482587    2.891186   -5.094921
     30          6           0      -14.826912    0.554268   -5.938654
     31          6           0      -13.504094    0.784393   -5.242744
     32          7           0      -15.783814   -1.497242   -1.071630
     33          6           0      -15.885880   -2.022534   -2.367903
     34          6           0      -15.948247   -3.489749   -2.235778
     35          6           0      -15.894477   -3.716743   -0.861942
     36          6           0      -15.830703   -2.469220   -0.177901
     37          6           0      -16.099929   -4.417003   -3.304248
     38          6           0      -15.900903   -4.722047    0.188382
     39          8           0      -15.847469   -5.952540    0.211322
     40          6           0      -16.110113   -3.986192    1.585012
     41          6           0      -15.087657   -4.532181    2.544068
     42          8           0      -13.870766   -4.313281    2.374877
     43          8           0      -15.710485   -5.018458    3.628577
     44          6           0      -14.751044   -5.549243    4.633513
     45          1           0      -17.270221    2.673399    3.173198
     46          1           0      -15.998137    4.222761   -2.735718
     47          1           0      -15.926935   -1.839483   -4.373801
     48          1           0      -17.144791   -2.203563    3.958254
     49          1           0      -16.990945    0.535546    4.607147
     50          1           0      -19.083255   -1.128119    3.257948
     51          1           0      -19.061500    0.598021    2.782308
     52          1           0      -19.294579    0.207685    4.462752
     53          1           0      -14.786020   -0.368551    4.427552
     54          1           0      -14.445695   -2.072989    3.926007
     55          1           0      -16.262905   -2.121795    6.112869
     56          1           0      -15.262201   -0.753048    6.417790
     57          1           0      -16.638382    4.673518    3.380965
     58          1           0      -16.962659    5.991656    2.321073
     59          1           0      -15.273957    5.707506    2.815910
     60          1           0      -15.985977    7.377824    0.857715
     61          1           0      -14.740653    8.029559   -0.347643
     62          1           0      -14.311946    6.895232    0.960960
     63          1           0      -15.394261    2.942268   -4.856128
     64          1           0      -16.870667    0.429781   -5.469009
     65          1           0      -17.306759    3.738291   -5.758398
     66          1           0      -18.163639    3.161001   -4.288287
     67          1           0      -18.078908    2.166560   -5.648758
     68          1           0      -14.873773    1.249193   -6.776407
     69          1           0      -14.828708   -0.456839   -6.345976
     70          1           0      -13.368941    1.862105   -5.327022
     71          1           0      -12.705355    0.249320   -5.757452
     72          1           0      -13.566143    0.545832   -4.180800
     73          1           0      -15.403752   -5.231079   -3.102786
     74          1           0      -15.894428   -3.949109   -4.266769
     75          1           0      -17.148782   -4.689419   -3.187835
     76          1           0      -17.128669   -4.204109    1.904663
     77          1           0      -15.032992   -6.583425    4.831520
     78          1           0      -14.762921   -4.852222    5.471621
     79          1           0      -13.721790   -5.677451    4.296558
     80         12           0       15.957008    0.713833    0.391816
     81          6           0       15.821849   -2.173587   -1.735067
     82          6           0       15.014714   -1.320541    2.962425
     83          6           0       15.629061    3.306089    2.191825
     84          6           0       15.763424    2.670465   -2.485648
     85          7           0       15.506834   -1.450014    0.477683
     86          6           0       15.548796   -2.457803   -0.380779
     87          6           0       15.362374   -3.858408    0.261968
     88          6           0       14.563357   -3.412874    1.581801
     89          6           0       15.082115   -1.982121    1.710275
     90          6           0       13.057561   -3.359029    1.384277
     91          6           0       16.730238   -4.538314    0.620677
     92          6           0       16.638035   -6.026671    0.964254
     93          1           0       17.734749   -6.903051    0.562215
     94          7           0       15.884393    0.905915    2.365750
     95          6           0       15.499740   -0.028186    3.260603
     96          6           0       15.604736    0.612128    4.580883
     97          6           0       15.924847    2.051537    4.379992
     98          6           0       15.801990    2.150348    2.939424
     99          6           0       15.485542   -0.151853    5.867556
    100          6           0       16.270235    3.159125    5.328758
    101          8           0       16.276940    4.385969    4.957753
    102          6           0       16.509129    2.773745    6.727295
    103          7           0       15.516638    2.695505   -0.056921
    104          6           0       15.486110    3.632315    0.907128
    105          6           0       15.423093    5.020772    0.316706
    106          6           0       15.662630    4.831369   -1.253113
    107          6           0       15.737125    3.289879   -1.313564
    108          6           0       14.116956    5.781573    0.543813
    109          6           0       16.815073    5.652750   -1.893326
    110          6           0       18.147837    5.163917   -1.373564
    111          7           0       16.003075    0.355991   -1.738413
    112          6           0       15.880752    1.315377   -2.767341
    113          6           0       15.855487    0.579438   -4.048046
    114          6           0       15.942390   -0.769203   -3.671083
    115          6           0       15.996219   -0.867991   -2.254455
    116          6           0       15.714528    1.161526   -5.339332
    117          6           0       15.990102   -2.132295   -4.148988
    118          8           0       16.065383   -2.662311   -5.256759
    119          6           0       15.786705   -3.109025   -2.911644
    120          6           0       16.840340   -4.179863   -2.987068
    121          8           0       18.043196   -3.893536   -2.853768
    122          8           0       16.243759   -5.385869   -2.986157
    123          6           0       17.248302   -6.480777   -3.048673
    124          1           0       14.504625   -1.820234    3.786433
    125          1           0       15.621426    4.238804    2.760577
    126          1           0       15.803655    3.213678   -3.432210
    127          1           0       14.763732   -4.549106   -0.319697
    128          1           0       14.861502   -4.005328    2.442876
    129          1           0       12.780742   -3.515498    0.352268
    130          1           0       12.752848   -2.373923    1.712540
    131          1           0       12.563672   -4.066777    2.056213
    132          1           0       17.084241   -4.145077    1.582337
    133          1           0       17.445816   -4.392484   -0.165020
    134          1           0       15.673566   -6.458513    0.670547
    135          1           0       16.659713   -6.133819    2.051486
    136          1           0       15.085816   -1.159820    5.701323
    137          1           0       14.717897    0.349307    6.467070
    138          1           0       16.419181   -0.171545    6.433777
    139          1           0       15.624629    2.279233    7.121734
    140          1           0       16.829343    3.687529    7.231605
    141          1           0       17.319707    2.036935    6.753578
    142          1           0       16.209075    5.648087    0.718957
    143          1           0       14.779474    5.126502   -1.838564
    144          1           0       14.261041    6.754746    1.050038
    145          1           0       13.449437    5.150678    1.115582
    146          1           0       13.535136    5.978816   -0.354945
    147          1           0       16.736272    6.703946   -1.605348
    148          1           0       16.821465    5.615492   -2.977558
    149          1           0       18.250453    5.692961   -0.421379
    150          1           0       18.948107    5.430005   -2.061174
    151          1           0       18.114426    4.090769   -1.152483
    152          1           0       16.426132    0.663767   -5.984595
    153          1           0       15.885102    2.235738   -5.311990
    154          1           0       14.670083    0.916996   -5.550543
    155          1           0       14.779045   -3.520545   -2.981301
    156          1           0       16.991169   -7.101320   -3.912669
    157          1           0       17.223623   -6.965955   -2.054826
    158          1           0       18.271641   -6.209445   -3.280219
 ---------------------------------------------------------------------

 SCF Done:  E(RCAM-B3LYP) =  -4069.81177686     A.U. after   19 cycles

 Excitation energies and oscillator strengths:

 Excited State   1:      Singlet-A      1.6755 eV  739.97 nm  f=0.3539  <S**2>=0.000
     310 -> 316        0.17256
     312 -> 313        0.68207
     310 <- 316        0.10401
 This state for optimization and/or second-order correction.
 Total Energy, E(TD-HF/TD-DFT) =  -4069.75020263
 Copying the excited state density for this state as the 1-particle RhoCI density.

 Excited State   2:      Singlet-A      1.6799 eV  738.05 nm  f=0.4225  <S**2>=0.000
     309 -> 315        0.17456
     311 -> 314        0.68172
     309 <- 315        0.10453

 Excited State   3:      Singlet-A      2.1861 eV  567.16 nm  f=0.1009  <S**2>=0.000
     310 -> 313        0.64239
     312 -> 316       -0.27304

 Excited State   4:      Singlet-A      2.1926 eV  565.47 nm  f=0.0999  <S**2>=0.000
     309 -> 314        0.64061
     311 -> 315       -0.27829

 Excited State   5:      Singlet-A      3.0660 eV  404.38 nm  f=0.0000  <S**2>=0.000
     311 -> 313        0.70711

 The electronic state is 1-A.
 Alpha  occ. eigenvalues --  -46.87797 -46.87660 -19.26344 -19.26289 -19.19157
 Alpha  occ. eigenvalues --  -19.19024 -19.18814 -19.18716 -19.18171 -19.18049
 Alpha  occ. eigenvalues --  -14.42496 -14.42450 -14.41449 -14.41359 -14.39402
 Alpha  occ. eigenvalues --  -14.39352 -14.38599 -14.38587 -10.39087 -10.39084
 Alpha  occ. eigenvalues --  -10.35447 -10.35393 -10.34391 -10.34226 -10.31750
 Alpha  occ. eigenvalues --  -10.31686 -10.31406 -10.31307 -10.31022 -10.30909
 Alpha  occ. eigenvalues --  -10.30570 -10.30507 -10.30398 -10.30360 -10.30206
 Alpha  occ. eigenvalues --  -10.30142 -10.29920 -10.29895 -10.29631 -10.29437
 Alpha  occ. eigenvalues --  -10.29401 -10.29254 -10.28751 -10.28714 -10.28648
 Alpha  occ. eigenvalues --  -10.28543 -10.28404 -10.28365 -10.28135 -10.28118
 Alpha  occ. eigenvalues --  -10.28000 -10.27793 -10.27727 -10.27668 -10.27584
 Alpha  occ. eigenvalues --  -10.27520 -10.27499 -10.27483 -10.27481 -10.27467
 Alpha  occ. eigenvalues --  -10.27465 -10.27447 -10.27404 -10.27378 -10.27160
 Alpha  occ. eigenvalues --  -10.27047 -10.26708 -10.26688 -10.26417 -10.26408
 Alpha  occ. eigenvalues --  -10.26236 -10.26180 -10.26141 -10.26019 -10.26018
 Alpha  occ. eigenvalues --  -10.25934 -10.25851 -10.25843 -10.25433 -10.25401
 Alpha  occ. eigenvalues --  -10.24872 -10.24833 -10.24787 -10.24734 -10.24690
 Alpha  occ. eigenvalues --  -10.24684  -3.16539  -3.16410  -1.91421  -1.91292
 Alpha  occ. eigenvalues --   -1.91008  -1.90881  -1.90850  -1.90718  -1.16638
 Alpha  occ. eigenvalues --   -1.16638  -1.08656  -1.08629  -1.07215  -1.06968
 Alpha  occ. eigenvalues --   -1.06941  -1.06647  -1.04581  -1.04494  -1.03760
 Alpha  occ. eigenvalues --   -1.03663  -1.03234  -1.03039  -1.02411  -1.02111
 Alpha  occ. eigenvalues --   -0.91986  -0.91973  -0.89518  -0.89495  -0.89189
 Alpha  occ. eigenvalues --   -0.89147  -0.88285  -0.88222  -0.87870  -0.87793
 Alpha  occ. eigenvalues --   -0.87683  -0.87673  -0.87273  -0.87121  -0.84997
 Alpha  occ. eigenvalues --   -0.84983  -0.83935  -0.83878  -0.82966  -0.82933
 Alpha  occ. eigenvalues --   -0.82651  -0.82650  -0.81594  -0.81588  -0.80597
 Alpha  occ. eigenvalues --   -0.80441  -0.78797  -0.78635  -0.77219  -0.77143
 Alpha  occ. eigenvalues --   -0.76936  -0.76896  -0.75925  -0.75836  -0.74897
 Alpha  occ. eigenvalues --   -0.74803  -0.72774  -0.72699  -0.71672  -0.71580
 Alpha  occ. eigenvalues --   -0.69905  -0.69760  -0.68874  -0.68825  -0.67641
 Alpha  occ. eigenvalues --   -0.67601  -0.67221  -0.67198  -0.65288  -0.65269
 Alpha  occ. eigenvalues --   -0.64854  -0.64769  -0.64652  -0.64621  -0.64268
 Alpha  occ. eigenvalues --   -0.64205  -0.62300  -0.62276  -0.60441  -0.60340
 Alpha  occ. eigenvalues --   -0.59805  -0.59794  -0.58992  -0.58988  -0.58504
 Alpha  occ. eigenvalues --   -0.58425  -0.57586  -0.57552  -0.57309  -0.57237
 Alpha  occ. eigenvalues --   -0.56310  -0.56203  -0.55982  -0.55883  -0.55520
 Alpha  occ. eigenvalues --   -0.55451  -0.55339  -0.55248  -0.54524  -0.54487
 Alpha  occ. eigenvalues --   -0.53909  -0.53897  -0.53299  -0.53227  -0.53223
 Alpha  occ. eigenvalues --   -0.53140  -0.52916  -0.52900  -0.52756  -0.52667
 Alpha  occ. eigenvalues --   -0.52436  -0.52403  -0.51915  -0.51885  -0.51656
 Alpha  occ. eigenvalues --   -0.51618  -0.51200  -0.51197  -0.50571  -0.50476
 Alpha  occ. eigenvalues --   -0.50030  -0.49978  -0.49918  -0.49868  -0.49515
 Alpha  occ. eigenvalues --   -0.49487  -0.49215  -0.49200  -0.49101  -0.49097
 Alpha  occ. eigenvalues --   -0.48594  -0.48556  -0.48460  -0.48446  -0.48377
 Alpha  occ. eigenvalues --   -0.48339  -0.47695  -0.47593  -0.47297  -0.47118
 Alpha  occ. eigenvalues --   -0.46797  -0.46708  -0.46557  -0.46551  -0.46359
 Alpha  occ. eigenvalues --   -0.46270  -0.46163  -0.46085  -0.45824  -0.45820
 Alpha  occ. eigenvalues --   -0.45210  -0.45200  -0.44579  -0.44512  -0.44507
 Alpha  occ. eigenvalues --   -0.44474  -0.44144  -0.44125  -0.44089  -0.44078
 Alpha  occ. eigenvalues --   -0.44020  -0.43938  -0.43551  -0.43497  -0.43386
 Alpha  occ. eigenvalues --   -0.43384  -0.43027  -0.42928  -0.42899  -0.42701
 Alpha  occ. eigenvalues --   -0.42655  -0.42555  -0.42009  -0.41964  -0.41704
 Alpha  occ. eigenvalues --   -0.41668  -0.41535  -0.41457  -0.41141  -0.40988
 Alpha  occ. eigenvalues --   -0.40870  -0.40823  -0.40721  -0.40697  -0.40570
 Alpha  occ. eigenvalues --   -0.40494  -0.40236  -0.40223  -0.39439  -0.39428
 Alpha  occ. eigenvalues --   -0.38468  -0.38351  -0.37750  -0.37651  -0.37319
 Alpha  occ. eigenvalues --   -0.37266  -0.37265  -0.37197  -0.36768  -0.36716
 Alpha  occ. eigenvalues --   -0.36216  -0.36194  -0.34286  -0.34253  -0.33859
 Alpha  occ. eigenvalues --   -0.33774  -0.33187  -0.33175  -0.31343  -0.31275
 Alpha  occ. eigenvalues --   -0.31036  -0.30972  -0.30031  -0.29954  -0.29449
 Alpha  occ. eigenvalues --   -0.29327  -0.29322  -0.29211  -0.24081  -0.24036
 Alpha  occ. eigenvalues --   -0.21127  -0.21116
 Alpha virt. eigenvalues --   -0.08792  -0.08774  -0.01749  -0.01684  -0.00058
 Alpha virt. eigenvalues --   -0.00029   0.02200   0.02208   0.03121   0.03225
 Alpha virt. eigenvalues --    0.04717   0.04732   0.05094   0.05169   0.06174

 Mulliken charges:
               1
     1  Mg   0.838730
     2  C   -0.002969
     3  C   -0.094138
     4  C   -0.045893
     5  C   -0.063929
     6  N   -0.256785
     7  C   -0.052490
     8  C   -0.013999
     9  C   -0.087001
    10  C    0.046335
    11  C    0.104809
    12  C    0.053468
    13  C   -0.071787
    14  H    0.036065
    15  N   -0.433156
    16  C    0.168433
    17  C   -0.177146
    18  C   -0.003991
    19  C    0.148734
    20  C    0.110176
    21  C    0.012291
    22  O   -0.249596
    23  C    0.062475
    24  N   -0.341129
    25  C    0.041260
    26  C   -0.028175
    27  C   -0.023961
    28  C    0.074806
    29  C    0.076161
    30  C    0.035128
    31  C   -0.004510
    32  N   -0.310459
    33  C    0.080398
    34  C   -0.169721
    35  C    0.008354
    36  C    0.082986
    37  C    0.127312
    38  C    0.046111
    39  O   -0.188476
    40  C   -0.005352
    41  C    0.212879
    42  O   -0.257124
    43  O   -0.304788
    44  C    0.157704
    45  H   -0.017602
    46  H   -0.016812
    47  H   -0.041478
    48  H    0.000925
    49  H   -0.004041
    50  H    0.025470
    51  H    0.016462
    52  H    0.016655
    53  H    0.011211
    54  H    0.044106
    55  H    0.017872
    56  H    0.017956
    57  H    0.005868
    58  H    0.026839
    59  H    0.039563
    60  H    0.037348
    61  H    0.035678
    62  H    0.031502
    63  H    0.016574
    64  H    0.009468
    65  H    0.023236
    66  H    0.012542
    67  H    0.004762
    68  H    0.006392
    69  H    0.004735
    70  H    0.008796
    71  H    0.018165
    72  H    0.028958
    73  H    0.047553
    74  H    0.009130
    75  H    0.046006
    76  H    0.035146
    77  H    0.042922
    78  H    0.046397
    79  H    0.053653
    80  Mg   0.837795
    81  C   -0.016817
    82  C   -0.087771
    83  C   -0.045519
    84  C   -0.064874
    85  N   -0.254572
    86  C   -0.049791
    87  C   -0.015110
    88  C   -0.090479
    89  C    0.045749
    90  C    0.114352
    91  C    0.062505
    92  C   -0.077918
    93  H    0.034915
    94  N   -0.423470
    95  C    0.162915
    96  C   -0.174623
    97  C   -0.007815
    98  C    0.152133
    99  C    0.099361
   100  C    0.015563
   101  O   -0.253211
   102  C    0.061203
   103  N   -0.350068
   104  C    0.037542
   105  C   -0.019851
   106  C   -0.034799
   107  C    0.088912
   108  C    0.073662
   109  C    0.034740
   110  C   -0.007666
   111  N   -0.324102
   112  C    0.078443
   113  C   -0.163135
   114  C    0.002274
   115  C    0.096182
   116  C    0.131484
   117  C    0.042393
   118  O   -0.187838
   119  C    0.000909
   120  C    0.211268
   121  O   -0.251040
   122  O   -0.305610
   123  C    0.152025
   124  H   -0.019614
   125  H   -0.015592
   126  H   -0.040463
   127  H   -0.000593
   128  H   -0.004302
   129  H    0.022510
   130  H    0.014425
   131  H    0.016364
   132  H    0.013901
   133  H    0.037668
   134  H    0.020846
   135  H    0.019606
   136  H    0.008801
   137  H    0.026148
   138  H    0.039794
   139  H    0.038258
   140  H    0.036371
   141  H    0.033906
   142  H    0.014383
   143  H    0.012425
   144  H    0.025111
   145  H    0.011656
   146  H    0.005681
   147  H    0.006241
   148  H    0.003650
   149  H    0.010918
   150  H    0.017923
   151  H    0.030117
   152  H    0.046009
   153  H    0.008497
   154  H    0.046982
   155  H    0.035094
   156  H    0.043950
   157  H    0.049516
   158  H    0.053566
 Sum of Mulliken charges =  -0.00000

 Dipole moment (field-independent basis, Debye):
    X=             -4.1905    Y=              2.0841    Z=              6.3428  Tot=              7.8826
 Quadrupole moment (field-independent basis, Debye-Ang):
   XX=           -516.8044   YY=           -521.2072   ZZ=           -477.7639
   XY=            -63.5351   XZ=             18.7397   YZ=            -20.4664

 Normal termination of Gaussian 16 at Sun Sep 12 21:29:12 2021.
