 Gaussian 16, Revision A.03,
 Gaussian 16:  ES64L-G16RevA.03 25-Dec-2016

 -----------------------------------
 #p cam-b3lyp/Def2SVP td=(nstates=5)
 -----------------------------------

 --------------------------------
 TDDFT excited states in gaussian
 --------------------------------
 Symbolic Z-matrix:
 Charge =  0 Multiplicity = 1

                         Standard orientation:
 ---------------------------------------------------------------------
 Center     Atomic      Atomic             Coordinates (Angstroms)
 Number     Number       Type             X           Y           Z
 ---------------------------------------------------------------------
      1         12           0        6.463235   -0.987825    0.232761
      2          6           0        7.085738    2.070210   -1.520271
      3          6           0        7.626847    0.559577    3.042498
      4          6           0        6.350776   -3.799017    1.696036
      5          6           0        6.435758   -2.585561   -2.864358
      6          7           0        7.228834    1.058449    0.589508
      7          6           0        7.359783    2.153114   -0.153277
      8          6           0        7.743493    3.417566    0.672133
      9          6           0        8.422452    2.703480    1.925565
     10          6           0        7.691606    1.373445    1.872687
     11          6           0        9.916052    2.450626    1.747447
     12          6           0        6.489307    4.252450    1.098418
     13          6           0        6.788438    5.660963    1.619922
     14          1           0        5.853238    6.733517    1.315988
     15          7           0        6.453331   -1.430540    2.158055
     16          6           0        6.955988   -0.676466    3.165028
     17          6           0        6.705429   -1.437182    4.408094
     18          6           0        6.187165   -2.779416    4.023514
     19          6           0        6.336348   -2.732161    2.591421
     20          6           0        6.909938   -0.866029    5.777660
     21          6           0        5.653476   -3.927122    4.821060
     22          8           0        5.474393   -5.085396    4.310270
     23          6           0        5.426269   -3.680284    6.256500
     24          7           0        6.619794   -2.953116   -0.453354
     25          6           0        6.477249   -3.988724    0.381021
     26          6           0        6.345857   -5.280668   -0.369682
     27          6           0        6.184045   -4.883680   -1.907853
     28          6           0        6.341492   -3.348957   -1.773299
     29          6           0        7.513443   -6.265245   -0.216836
     30          6           0        4.940605   -5.435361   -2.649422
     31          6           0        3.686350   -4.803141   -2.088852
     32          7           0        6.535749   -0.373252   -1.847644
     33          6           0        6.534490   -1.208578   -2.974100
     34          6           0        6.705314   -0.341972   -4.154728
     35          6           0        6.811388    0.943971   -3.628473
     36          6           0        6.739376    0.881637   -2.207480
     37          6           0        6.803319   -0.781937   -5.504268
     38          6           0        6.993518    2.353555   -3.934671
     39          8           0        7.022597    3.019143   -4.970837
     40          6           0        7.300600    3.125772   -2.576286
     41          6           0        6.422384    4.346697   -2.539011
     42          8           0        5.182834    4.240382   -2.441145
     43          8           0        7.186175    5.439173   -2.385185
     44          6           0        6.374339    6.683184   -2.310926
     45          1           0        8.187842    0.863269    3.928498
     46          1           0        6.202692   -4.779569    2.153232
     47          1           0        6.352058   -3.004389   -3.868863
     48          1           0        8.461910    4.077349    0.185319
     49          1           0        8.200220    3.221142    2.858497
     50          1           0       10.242074    2.686669    0.734572
     51          1           0       10.058594    1.390083    1.955828
     52          1           0       10.492193    2.984632    2.503539
     53          1           0        6.051848    3.811928    1.994314
     54          1           0        5.771678    4.315993    0.279701
     55          1           0        7.808482    5.965201    1.383577
     56          1           0        6.758942    5.635248    2.709265
     57          1           0        7.453213    0.077402    5.741119
     58          1           0        7.577981   -1.543771    6.308785
     59          1           0        5.972773   -0.768962    6.325958
     60          1           0        6.364865   -3.380478    6.723087
     61          1           0        4.959912   -4.584130    6.646914
     62          1           0        4.745813   -2.835349    6.366102
     63          1           0        5.462995   -5.831700   -0.048208
     64          1           0        7.026211   -5.226396   -2.509498
     65          1           0        7.214210   -7.244650    0.157236
     66          1           0        8.256772   -5.807861    0.435508
     67          1           0        8.093768   -6.430497   -1.124212
     68          1           0        4.853847   -6.510519   -2.496273
     69          1           0        4.964956   -5.254337   -3.724079
     70          1           0        3.473564   -5.417844   -1.214956
     71          1           0        2.874169   -4.861330   -2.814240
     72          1           0        3.875246   -3.789152   -1.735821
     73          1           0        6.186428   -0.102409   -6.092193
     74          1           0        6.467695   -1.813348   -5.609864
     75          1           0        7.874028   -0.671639   -5.675364
     76          1           0        8.359125    3.383288   -2.594500
     77          1           0        6.741956    7.353244   -3.088172
     78          1           0        6.429279    7.027870   -1.278173
     79          1           0        5.325791    6.592275   -2.596619
     80         12           0       -6.630435    0.938671    0.463963
     81          6           0       -6.930289   -2.339790   -0.964637
     82          6           0       -5.639945    2.026193   -2.613504
     83          6           0       -5.925056    3.734254    1.788558
     84          6           0       -6.527487   -0.586871    3.595701
     85          7           0       -6.359841   -0.115653   -1.461509
     86          6           0       -6.563266   -1.349124   -1.899150
     87          6           0       -6.440171   -1.514198   -3.437705
     88          6           0       -5.492241   -0.253617   -3.739726
     89          6           0       -5.874144    0.629185   -2.553353
     90          6           0       -4.010803   -0.576463   -3.637485
     91          6           0       -7.823593   -1.380090   -4.165827
     92          6           0       -7.828009   -1.834713   -5.627006
     93          1           0       -9.026529   -2.484606   -6.150127
     94          7           0       -6.366881    2.722504   -0.364921
     95          6           0       -5.985072    2.982160   -1.633013
     96          6           0       -5.917717    4.447766   -1.740805
     97          6           0       -6.130973    5.027964   -0.387072
     98          6           0       -6.128493    3.823794    0.419196
     99          6           0       -5.750124    5.160437   -3.051318
    100          6           0       -6.295472    6.434870    0.102587
    101          8           0       -6.230846    6.725856    1.349169
    102          6           0       -6.441177    7.474453   -0.926744
    103          7           0       -6.064909    1.484246    2.388764
    104          6           0       -5.869489    2.774617    2.712315
    105          6           0       -5.741408    2.948880    4.206841
    106          6           0       -6.134527    1.533746    4.839637
    107          6           0       -6.344757    0.725277    3.540570
    108          6           0       -4.360390    3.365977    4.712025
    109          6           0       -7.265294    1.528719    5.904540
    110          6           0       -8.583364    1.891978    5.259468
    111          7           0       -6.895585   -1.065027    1.227487
    112          6           0       -6.784009   -1.487908    2.570164
    113          6           0       -6.935109   -2.957448    2.577768
    114          6           0       -7.102438   -3.292612    1.225678
    115          6           0       -7.038540   -2.117262    0.429467
    116          6           0       -6.860366   -3.795461    3.725924
    117          6           0       -7.307984   -4.374615    0.289887
    118          8           0       -7.526021   -5.581233    0.391323
    119          6           0       -7.079279   -3.820046   -1.182029
    120          6           0       -8.222584   -4.290813   -2.038629
    121          8           0       -9.380173   -3.890435   -1.823479
    122          8           0       -7.732870   -4.960062   -3.098178
    123          6           0       -8.828352   -5.437546   -3.983476
    124          1           0       -5.103035    2.425658   -3.474350
    125          1           0       -5.787788    4.685457    2.308036
    126          1           0       -6.605269   -1.126175    4.542154
    127          1           0       -5.956347   -2.428715   -3.759176
    128          1           0       -5.762034    0.228140   -4.675938
    129          1           0       -3.840960   -1.574486   -3.261664
    130          1           0       -3.595598    0.158535   -2.960411
    131          1           0       -3.521138   -0.409120   -4.601108
    132          1           0       -8.056173   -0.315771   -4.299497
    133          1           0       -8.591084   -1.897781   -3.623997
    134          1           0       -6.933590   -2.416797   -5.880287
    135          1           0       -7.762139   -0.950560   -6.265721
    136          1           0       -5.453802    4.469317   -3.850035
    137          1           0       -4.892522    5.833085   -2.942117
    138          1           0       -6.628120    5.748940   -3.326041
    139          1           0       -5.570373    7.462461   -1.577916
    140          1           0       -6.636606    8.399988   -0.381710
    141          1           0       -7.305864    7.227973   -1.552979
    142          1           0       -6.432465    3.700034    4.569229
    143          1           0       -5.284944    1.071495    5.363445
    144          1           0       -4.375811    4.301624    5.302286
    145          1           0       -3.700770    3.464628    3.860134
    146          1           0       -3.845985    2.621725    5.317554
    147          1           0       -7.072252    2.288862    6.665505
    148          1           0       -7.371022    0.578785    6.417811
    149          1           0       -8.555765    2.985584    5.240592
    150          1           0       -9.415995    1.528448    5.858301
    151          1           0       -8.621725    1.545224    4.220265
    152          1           0       -7.666126   -4.512437    3.641050
    153          1           0       -6.935982   -3.218218    4.645072
    154          1           0       -5.863347   -4.223159    3.590651
    155          1           0       -6.120386   -4.204554   -1.531665
    156          1           0       -8.702548   -6.519204   -4.092481
    157          1           0       -8.756864   -4.826921   -4.903137
    158          1           0       -9.841440   -5.379737   -3.603015
 ---------------------------------------------------------------------

 SCF Done:  E(RCAM-B3LYP) =  -4069.81195558     A.U. after   19 cycles

 Excitation energies and oscillator strengths:

 Excited State   1:      Singlet-A      1.6698 eV  742.51 nm  f=0.1614  <S**2>=0.000
     309 -> 315        0.10424
     310 -> 316        0.13718
     311 -> 313        0.41311
     312 -> 314        0.54805
 This state for optimization and/or second-order correction.
 Total Energy, E(TD-HF/TD-DFT) =  -4069.75059172
 Copying the excited state density for this state as the 1-particle RhoCI density.

 Excited State   2:      Singlet-A      1.6849 eV  735.86 nm  f=0.5734  <S**2>=0.000
     309 -> 315        0.14119
     310 -> 316       -0.10593
     311 -> 313        0.54728
     312 -> 314       -0.41265

 Excited State   3:      Singlet-A      2.1860 eV  567.18 nm  f=0.0790  <S**2>=0.000
     309 -> 313        0.12159
     310 -> 314        0.63104
     312 -> 316       -0.26774

 Excited State   4:      Singlet-A      2.1930 eV  565.37 nm  f=0.1166  <S**2>=0.000
     309 -> 313        0.62924
     310 -> 314       -0.12059
     311 -> 315       -0.27330

 Excited State   5:      Singlet-A      2.6473 eV  468.35 nm  f=0.0000  <S**2>=0.000
     312 -> 313        0.70710

 The electronic state is 1-A.
 Alpha  occ. eigenvalues --  -46.87857 -46.87550 -19.26373 -19.26265 -19.19114
 Alpha  occ. eigenvalues --  -19.19072 -19.18858 -19.18612 -19.18250 -19.17949
 Alpha  occ. eigenvalues --  -14.42509 -14.42381 -14.41508 -14.41255 -14.39462
 Alpha  occ. eigenvalues --  -14.39240 -14.38653 -14.38492 -10.39171 -10.39001
 Alpha  occ. eigenvalues --  -10.35490 -10.35289 -10.34470 -10.34127 -10.31770
 Alpha  occ. eigenvalues --  -10.31680 -10.31469 -10.31188 -10.30965 -10.30902
 Alpha  occ. eigenvalues --  -10.30637 -10.30570 -10.30295 -10.30259 -10.30249
 Alpha  occ. eigenvalues --  -10.30038 -10.29981 -10.29802 -10.29694 -10.29322
 Alpha  occ. eigenvalues --  -10.29312 -10.29293 -10.28804 -10.28591 -10.28584
 Alpha  occ. eigenvalues --  -10.28545 -10.28427 -10.28290 -10.28171 -10.27993
 Alpha  occ. eigenvalues --  -10.27889 -10.27859 -10.27786 -10.27644 -10.27549
 Alpha  occ. eigenvalues --  -10.27541 -10.27530 -10.27493 -10.27466 -10.27452
 Alpha  occ. eigenvalues --  -10.27374 -10.27355 -10.27314 -10.27312 -10.27234
 Alpha  occ. eigenvalues --  -10.26949 -10.26758 -10.26578 -10.26444 -10.26307
 Alpha  occ. eigenvalues --  -10.26284 -10.26234 -10.26089 -10.26080 -10.25933
 Alpha  occ. eigenvalues --  -10.25836 -10.25834 -10.25761 -10.25469 -10.25352
 Alpha  occ. eigenvalues --  -10.24901 -10.24844 -10.24763 -10.24743 -10.24681
 Alpha  occ. eigenvalues --  -10.24588  -3.16600  -3.16300  -1.91482  -1.91182
 Alpha  occ. eigenvalues --   -1.91068  -1.90911  -1.90771  -1.90608  -1.16723
 Alpha  occ. eigenvalues --   -1.16558  -1.08710  -1.08558  -1.07257  -1.06866
 Alpha  occ. eigenvalues --   -1.06857  -1.06736  -1.04641  -1.04378  -1.03819
 Alpha  occ. eigenvalues --   -1.03554  -1.03296  -1.02934  -1.02472  -1.02004
 Alpha  occ. eigenvalues --   -0.92039  -0.91879  -0.89576  -0.89406  -0.89243
 Alpha  occ. eigenvalues --   -0.89018  -0.88339  -0.88141  -0.87943  -0.87731
 Alpha  occ. eigenvalues --   -0.87690  -0.87570  -0.87327  -0.87001  -0.85038
 Alpha  occ. eigenvalues --   -0.84880  -0.83991  -0.83804  -0.83014  -0.82828
 Alpha  occ. eigenvalues --   -0.82705  -0.82537  -0.81658  -0.81499  -0.80660
 Alpha  occ. eigenvalues --   -0.80339  -0.78856  -0.78520  -0.77277  -0.77033
 Alpha  occ. eigenvalues --   -0.76994  -0.76797  -0.75987  -0.75719  -0.74951
 Alpha  occ. eigenvalues --   -0.74720  -0.72837  -0.72592  -0.71730  -0.71473
 Alpha  occ. eigenvalues --   -0.69960  -0.69688  -0.68930  -0.68710  -0.67702
 Alpha  occ. eigenvalues --   -0.67498  -0.67272  -0.67087  -0.65346  -0.65156
 Alpha  occ. eigenvalues --   -0.64919  -0.64682  -0.64667  -0.64550  -0.64325
 Alpha  occ. eigenvalues --   -0.64119  -0.62373  -0.62186  -0.60495  -0.60233
 Alpha  occ. eigenvalues --   -0.59863  -0.59672  -0.59049  -0.58889  -0.58567
 Alpha  occ. eigenvalues --   -0.58323  -0.57661  -0.57455  -0.57369  -0.57142
 Alpha  occ. eigenvalues --   -0.56374  -0.56094  -0.56053  -0.55788  -0.55577
 Alpha  occ. eigenvalues --   -0.55402  -0.55345  -0.55167  -0.54591  -0.54408
 Alpha  occ. eigenvalues --   -0.53951  -0.53785  -0.53358  -0.53279  -0.53126
 Alpha  occ. eigenvalues --   -0.53032  -0.52982  -0.52806  -0.52797  -0.52545
 Alpha  occ. eigenvalues --   -0.52494  -0.52335  -0.51995  -0.51789  -0.51674
 Alpha  occ. eigenvalues --   -0.51540  -0.51262  -0.51102  -0.50618  -0.50357
 Alpha  occ. eigenvalues --   -0.50082  -0.49970  -0.49865  -0.49775  -0.49570
 Alpha  occ. eigenvalues --   -0.49373  -0.49280  -0.49156  -0.49086  -0.48986
 Alpha  occ. eigenvalues --   -0.48661  -0.48517  -0.48500  -0.48447  -0.48296
 Alpha  occ. eigenvalues --   -0.48230  -0.47752  -0.47484  -0.47353  -0.47010
 Alpha  occ. eigenvalues --   -0.46857  -0.46612  -0.46607  -0.46433  -0.46421
 Alpha  occ. eigenvalues --   -0.46228  -0.46167  -0.45995  -0.45897  -0.45725
 Alpha  occ. eigenvalues --   -0.45253  -0.45126  -0.44649  -0.44558  -0.44414
 Alpha  occ. eigenvalues --   -0.44358  -0.44203  -0.44144  -0.44081  -0.44013
 Alpha  occ. eigenvalues --   -0.43984  -0.43829  -0.43569  -0.43461  -0.43440
 Alpha  occ. eigenvalues --   -0.43278  -0.43089  -0.42837  -0.42803  -0.42775
 Alpha  occ. eigenvalues --   -0.42715  -0.42467  -0.42069  -0.41875  -0.41767
 Alpha  occ. eigenvalues --   -0.41588  -0.41566  -0.41350  -0.41197  -0.40923
 Alpha  occ. eigenvalues --   -0.40876  -0.40868  -0.40625  -0.40614  -0.40590
 Alpha  occ. eigenvalues --   -0.40405  -0.40285  -0.40113  -0.39493  -0.39358
 Alpha  occ. eigenvalues --   -0.38519  -0.38267  -0.37803  -0.37542  -0.37375
 Alpha  occ. eigenvalues --   -0.37323  -0.37173  -0.37082  -0.36791  -0.36686
 Alpha  occ. eigenvalues --   -0.36259  -0.36125  -0.34348  -0.34146  -0.33859
 Alpha  occ. eigenvalues --   -0.33770  -0.33250  -0.33067  -0.31388  -0.31172
 Alpha  occ. eigenvalues --   -0.31095  -0.30864  -0.30110  -0.29855  -0.29510
 Alpha  occ. eigenvalues --   -0.29390  -0.29215  -0.29103  -0.24142  -0.23926
 Alpha  occ. eigenvalues --   -0.21189  -0.21006
 Alpha virt. eigenvalues --   -0.08835  -0.08680  -0.01807  -0.01577  -0.00113
 Alpha virt. eigenvalues --    0.00086   0.02130   0.02308   0.03054   0.03323
 Alpha virt. eigenvalues --    0.04662   0.04847   0.05010   0.05257   0.06125

 Mulliken charges:
               1
     1  Mg   0.838610
     2  C   -0.003078
     3  C   -0.094097
     4  C   -0.045746
     5  C   -0.064032
     6  N   -0.256841
     7  C   -0.052463
     8  C   -0.014038
     9  C   -0.086998
    10  C    0.046420
    11  C    0.104769
    12  C    0.053439
    13  C   -0.071944
    14  H    0.036297
    15  N   -0.433202
    16  C    0.168553
    17  C   -0.177049
    18  C   -0.003833
    19  C    0.148780
    20  C    0.110152
    21  C    0.012411
    22  O   -0.249180
    23  C    0.062423
    24  N   -0.341131
    25  C    0.041276
    26  C   -0.028305
    27  C   -0.023952
    28  C    0.074766
    29  C    0.076089
    30  C    0.035129
    31  C   -0.004507
    32  N   -0.310335
    33  C    0.080187
    34  C   -0.170195
    35  C    0.008169
    36  C    0.082729
    37  C    0.127453
    38  C    0.045735
    39  O   -0.188958
    40  C   -0.005165
    41  C    0.212797
    42  O   -0.257599
    43  O   -0.304627
    44  C    0.157833
    45  H   -0.017418
    46  H   -0.016501
    47  H   -0.041676
    48  H    0.000923
    49  H   -0.003880
    50  H    0.025476
    51  H    0.016503
    52  H    0.016828
    53  H    0.011311
    54  H    0.043882
    55  H    0.017886
    56  H    0.018171
    57  H    0.005983
    58  H    0.027052
    59  H    0.039633
    60  H    0.037411
    61  H    0.036009
    62  H    0.031381
    63  H    0.016913
    64  H    0.009506
    65  H    0.023583
    66  H    0.012567
    67  H    0.004809
    68  H    0.006817
    69  H    0.004382
    70  H    0.009473
    71  H    0.017615
    72  H    0.028632
    73  H    0.046843
    74  H    0.008950
    75  H    0.046143
    76  H    0.035261
    77  H    0.042867
    78  H    0.046743
    79  H    0.053181
    80  Mg   0.837964
    81  C   -0.016770
    82  C   -0.087267
    83  C   -0.045409
    84  C   -0.065014
    85  N   -0.254565
    86  C   -0.049785
    87  C   -0.015108
    88  C   -0.090488
    89  C    0.045582
    90  C    0.114058
    91  C    0.062508
    92  C   -0.077791
    93  H    0.034446
    94  N   -0.423623
    95  C    0.162814
    96  C   -0.173748
    97  C   -0.007861
    98  C    0.152386
    99  C    0.099006
   100  C    0.015665
   101  O   -0.253601
   102  C    0.061168
   103  N   -0.349971
   104  C    0.037605
   105  C   -0.019797
   106  C   -0.034699
   107  C    0.088809
   108  C    0.073785
   109  C    0.034867
   110  C   -0.007611
   111  N   -0.324032
   112  C    0.078295
   113  C   -0.163323
   114  C    0.002222
   115  C    0.096084
   116  C    0.131495
   117  C    0.042255
   118  O   -0.188258
   119  C    0.000947
   120  C    0.211262
   121  O   -0.251141
   122  O   -0.305616
   123  C    0.152108
   124  H   -0.018297
   125  H   -0.015885
   126  H   -0.040923
   127  H   -0.000793
   128  H   -0.004163
   129  H    0.022056
   130  H    0.015659
   131  H    0.017266
   132  H    0.013899
   133  H    0.037427
   134  H    0.020817
   135  H    0.019794
   136  H    0.009476
   137  H    0.027239
   138  H    0.039525
   139  H    0.038823
   140  H    0.035993
   141  H    0.033796
   142  H    0.014143
   143  H    0.011950
   144  H    0.024556
   145  H    0.012203
   146  H    0.004970
   147  H    0.005737
   148  H    0.003423
   149  H    0.010796
   150  H    0.017681
   151  H    0.030399
   152  H    0.045734
   153  H    0.008126
   154  H    0.047015
   155  H    0.035041
   156  H    0.043658
   157  H    0.049564
   158  H    0.053442
 Sum of Mulliken charges =  -0.00000

 Dipole moment (field-independent basis, Debye):
    X=              4.5468    Y=              2.7037    Z=              1.1199  Tot=              5.4072
 Quadrupole moment (field-independent basis, Debye-Ang):
   XX=           -520.7285   YY=           -530.1196   ZZ=           -468.1133
   XY=            -16.9283   XZ=             50.5936   YZ=             26.4770

 Normal termination of Gaussian 16 at Sat Sep 11 04:30:01 2021.
