 Gaussian 16, Revision A.03,
 Gaussian 16:  ES64L-G16RevA.03 25-Dec-2016

 -----------------------------------
 #p cam-b3lyp/Def2SVP td=(nstates=5)
 -----------------------------------

 --------------------------------
 TDDFT excited states in gaussian
 --------------------------------
 Symbolic Z-matrix:
 Charge =  0 Multiplicity = 1

                         Standard orientation:
 ---------------------------------------------------------------------
 Center     Atomic      Atomic             Coordinates (Angstroms)
 Number     Number       Type             X           Y           Z
 ---------------------------------------------------------------------
      1         12           0       -4.120758    0.851846    0.078909
      2          6           0       -4.573558   -2.241740    1.821583
      3          6           0       -4.794196    2.437898    3.024072
      4          6           0       -4.174464    3.583992   -1.530164
      5          6           0       -4.605891   -0.916694   -2.884632
      6          7           0       -4.605521    0.085831    2.098530
      7          6           0       -4.689131   -1.121763    2.647984
      8          6           0       -4.835939   -1.086158    4.198646
      9          6           0       -5.454482    0.374506    4.359467
     10          6           0       -4.889960    1.016851    3.104623
     11          6           0       -6.977597    0.402948    4.283207
     12          6           0       -3.456464   -1.207783    4.929390
     13          6           0       -3.535678   -1.508460    6.428947
     14          1           0       -2.521970   -2.364791    7.025975
     15          7           0       -3.956337    2.715626    0.713054
     16          6           0       -4.259513    3.180275    1.948963
     17          6           0       -3.966357    4.629432    1.922814
     18          6           0       -3.648546    5.004079    0.516851
     19          6           0       -3.943101    3.772251   -0.169600
     20          6           0       -3.957272    5.489341    3.149282
     21          6           0       -3.167350    6.274292   -0.110158
     22          8           0       -3.177023    6.454245   -1.375898
     23          6           0       -2.761820    7.349918    0.812673
     24          7           0       -4.572705    1.323540   -1.903737
     25          6           0       -4.461145    2.576772   -2.357551
     26          6           0       -4.558737    2.626484   -3.853527
     27          6           0       -4.517516    1.109351   -4.349877
     28          6           0       -4.483615    0.409982   -2.968572
     29          6           0       -5.808045    3.315060   -4.420188
     30          6           0       -3.431270    0.739307   -5.390817
     31          6           0       -2.060537    0.839237   -4.759784
     32          7           0       -4.343944   -1.232830   -0.482662
     33          6           0       -4.558019   -1.740342   -1.772343
     34          6           0       -4.753685   -3.195491   -1.636975
     35          6           0       -4.655685   -3.432565   -0.267290
     36          6           0       -4.440258   -2.199798    0.412540
     37          6           0       -5.044476   -4.099394   -2.696613
     38          6           0       -4.707403   -4.437246    0.782376
     39          8           0       -4.770601   -5.667317    0.803023
     40          6           0       -4.777888   -3.690893    2.187301
     41          6           0       -3.767184   -4.336047    3.095905
     42          8           0       -2.544529   -4.233421    2.867979
     43          8           0       -4.380591   -4.765456    4.209406
     44          6           0       -3.428878   -5.389666    5.166881
     45          1           0       -5.219263    3.041977    3.828029
     46          1           0       -4.091342    4.488753   -2.135917
     47          1           0       -4.678029   -1.545469   -3.773953
     48          1           0       -5.522152   -1.828106    4.607363
     49          1           0       -5.076515    0.881005    5.247341
     50          1           0       -7.380618   -0.569714    4.001386
     51          1           0       -7.217175    1.148547    3.524803
     52          1           0       -7.405193    0.774887    5.214658
     53          1           0       -2.979163   -0.228389    4.961509
     54          1           0       -2.827619   -1.955305    4.444529
     55          1           0       -4.533692   -1.840179    6.716764
     56          1           0       -3.393405   -0.574411    6.972555
     57          1           0       -4.390154    4.971824    4.004463
     58          1           0       -4.637850    6.319481    2.961160
     59          1           0       -2.962100    5.873479    3.373786
     60          1           0       -3.604993    7.612590    1.451901
     61          1           0       -2.362691    8.147882    0.187533
     62          1           0       -1.981637    6.972156    1.474156
     63          1           0       -3.715307    3.165777   -4.282728
     64          1           0       -5.452561    0.808183   -4.822806
     65          1           0       -5.584353    4.144429   -5.091615
     66          1           0       -6.420574    3.645055   -3.581617
     67          1           0       -6.496790    2.653006   -4.944336
     68          1           0       -3.451911    1.439180   -6.225501
     69          1           0       -3.549177   -0.265237   -5.797313
     70          1           0       -1.827370    1.899513   -4.850782
     71          1           0       -1.342243    0.232703   -5.312396
     72          1           0       -2.093826    0.603052   -3.696019
     73          1           0       -4.420271   -4.977003   -2.528859
     74          1           0       -4.841880   -3.649032   -3.668072
     75          1           0       -6.107706   -4.271082   -2.529520
     76          1           0       -5.796000   -3.812105    2.555915
     77          1           0       -3.798365   -6.393112    5.378566
     78          1           0       -3.333782   -4.698348    6.004402
     79          1           0       -2.433996   -5.613945    4.780556
     80         12           0        4.826552    0.030865   -0.098028
     81          6           0        2.398289   -1.757409   -2.043445
     82          6           0        3.334684    2.909763   -1.156754
     83          6           0        7.213630    1.640899    1.235051
     84          6           0        6.773722   -2.859355   -0.126963
     85          7           0        3.096850    0.399069   -1.426488
     86          6           0        2.213766   -0.359147   -2.058637
     87          6           0        1.023305    0.420641   -2.678557
     88          6           0        1.728033    1.855801   -2.828741
     89          6           0        2.764583    1.737037   -1.713336
     90          6           0        2.463112    2.030267   -4.147287
     91          6           0       -0.214228    0.486311   -1.716150
     92          6           0       -1.513441    0.961042   -2.370688
     93          1           0       -2.773370    0.374231   -1.922713
     94          7           0        4.951471    1.940064    0.429162
     95          6           0        4.256255    2.974391   -0.088636
     96          6           0        4.726910    4.172338    0.623803
     97          6           0        5.873975    3.783446    1.488523
     98          6           0        6.075202    2.413986    1.059354
     99          6           0        4.047934    5.506262    0.509602
    100          6           0        6.667718    4.525751    2.520580
    101          8           0        7.773428    4.066631    2.978230
    102          6           0        6.160323    5.849266    2.910894
    103          7           0        6.810040   -0.454564    0.292459
    104          6           0        7.620448    0.408581    0.929762
    105          6           0        8.910491   -0.258450    1.343578
    106          6           0        8.696485   -1.818451    1.063976
    107          6           0        7.290895   -1.770646    0.425668
    108          6           0       10.168831    0.220124    0.619743
    109          6           0        8.934715   -2.786148    2.255398
    110          6           0        7.876921   -2.571717    3.313928
    111          7           0        4.572082   -2.009419   -0.761762
    112          6           0        5.523880   -3.050848   -0.701949
    113          6           0        4.930423   -4.222410   -1.378465
    114          6           0        3.673662   -3.770674   -1.808542
    115          6           0        3.504540   -2.407393   -1.444716
    116          6           0        5.564732   -5.482254   -1.569732
    117          6           0        2.455942   -4.133973   -2.496915
    118          8           0        1.993815   -5.179795   -2.951262
    119          6           0        1.627235   -2.809848   -2.790748
    120          6           0        0.200270   -3.054876   -2.382988
    121          8           0       -0.092292   -3.244489   -1.189232
    122          8           0       -0.605982   -2.810154   -3.432009
    123          6           0       -2.032773   -3.028718   -3.073800
    124          1           0        3.086194    3.871354   -1.606729
    125          1           0        8.025902    2.116873    1.789257
    126          1           0        7.277837   -3.827514   -0.092058
    127          1           0        0.700782    0.061463   -3.648466
    128          1           0        1.030816    2.662294   -2.617047
    129          1           0        2.489806    1.113904   -4.717990
    130          1           0        3.465720    2.342628   -3.886046
    131          1           0        2.027905    2.857781   -4.714871
    132          1           0       -0.061812    1.296648   -0.991680
    133          1           0       -0.375465   -0.460132   -1.237736
    134          1           0       -1.451714    0.948943   -3.465673
    135          1           0       -1.662320    2.014677   -2.122274
    136          1           0        3.336168    5.525208   -0.324917
    137          1           0        4.816979    6.233379    0.227228
    138          1           0        3.586591    5.825662    1.446534
    139          1           0        6.102527    6.487371    2.032290
    140          1           0        6.810429    6.184052    3.721549
    141          1           0        5.136732    5.735195    3.284871
    142          1           0        9.099205   -0.113459    2.400205
    143          1           0        9.381415   -2.191068    0.288173
    144          1           0       10.951250    0.595186    1.306198
    145          1           0        9.884477    0.987276   -0.088182
    146          1           0       10.643133   -0.521221   -0.021082
    147          1           0        9.895972   -2.573495    2.729645
    148          1           0        8.942049   -3.832118    1.967484
    149          1           0        8.264180   -1.719783    3.880773
    150          1           0        7.780770   -3.453908    3.943642
    151          1           0        6.926294   -2.263274    2.863555
    152          1           0        4.825836   -6.240072   -1.345612
    153          1           0        6.444483   -5.584456   -0.937776
    154          1           0        5.826246   -5.410152   -2.628825
    155          1           0        1.717591   -2.596563   -3.856543
    156          1           0       -2.435473   -3.750125   -3.791491
    157          1           0       -2.494066   -2.023381   -3.057430
    158          1           0       -2.243128   -3.525504   -2.133903
 ---------------------------------------------------------------------

 SCF Done:  E(RCAM-B3LYP) =  -4069.60957782     A.U. after   19 cycles

 Excitation energies and oscillator strengths:

 Excited State   1:      Singlet-A      1.6068 eV  771.64 nm  f=0.0579  <S**2>=0.000
     309 -> 315        0.14182
     311 -> 313        0.60892
     312 -> 314       -0.32184
 This state for optimization and/or second-order correction.
 Total Energy, E(TD-HF/TD-DFT) =  -4069.55053003
 Copying the excited state density for this state as the 1-particle RhoCI density.

 Excited State   2:      Singlet-A      1.6883 eV  734.38 nm  f=0.6185  <S**2>=0.000
     310 -> 316        0.15475
     311 -> 313        0.31887
     312 -> 314        0.60592

 Excited State   3:      Singlet-A      2.1489 eV  576.98 nm  f=0.0001  <S**2>=0.000
     312 -> 313        0.70528

 Excited State   4:      Singlet-A      2.1634 eV  573.09 nm  f=0.0758  <S**2>=0.000
     309 -> 313        0.60793
     310 -> 314        0.21305
     311 -> 315       -0.25542

 Excited State   5:      Singlet-A      2.1837 eV  567.76 nm  f=0.1225  <S**2>=0.000
     309 -> 313       -0.20628
     310 -> 314        0.60723
     312 -> 316       -0.25550

 The electronic state is 1-A.
 Alpha  occ. eigenvalues --  -46.88216 -46.87248 -19.26146 -19.25571 -19.19372
 Alpha  occ. eigenvalues --  -19.18818 -19.18425 -19.18364 -19.18361 -19.17581
 Alpha  occ. eigenvalues --  -14.42974 -14.42050 -14.41650 -14.40964 -14.39837
 Alpha  occ. eigenvalues --  -14.39166 -14.38954 -14.38181 -10.38942 -10.38316
 Alpha  occ. eigenvalues --  -10.36001 -10.35112 -10.34576 -10.33745 -10.31894
 Alpha  occ. eigenvalues --  -10.31512 -10.31229 -10.31141 -10.31129 -10.30837
 Alpha  occ. eigenvalues --  -10.30727 -10.30662 -10.30560 -10.30467 -10.30284
 Alpha  occ. eigenvalues --  -10.29994 -10.29925 -10.29798 -10.29704 -10.29502
 Alpha  occ. eigenvalues --  -10.29073 -10.29002 -10.28972 -10.28690 -10.28570
 Alpha  occ. eigenvalues --  -10.28423 -10.28299 -10.28153 -10.28108 -10.28032
 Alpha  occ. eigenvalues --  -10.27985 -10.27975 -10.27925 -10.27900 -10.27844
 Alpha  occ. eigenvalues --  -10.27609 -10.27590 -10.27323 -10.27237 -10.27222
 Alpha  occ. eigenvalues --  -10.27181 -10.27086 -10.27074 -10.27032 -10.26932
 Alpha  occ. eigenvalues --  -10.26781 -10.26539 -10.26521 -10.26518 -10.26294
 Alpha  occ. eigenvalues --  -10.26271 -10.26229 -10.25877 -10.25824 -10.25601
 Alpha  occ. eigenvalues --  -10.25557 -10.25512 -10.25484 -10.25247 -10.25240
 Alpha  occ. eigenvalues --  -10.25135 -10.24476 -10.24464 -10.24298 -10.23779
 Alpha  occ. eigenvalues --  -10.22362  -3.16936  -3.15998  -1.91808  -1.91412
 Alpha  occ. eigenvalues --   -1.91254  -1.90880  -1.90468  -1.90306  -1.16494
 Alpha  occ. eigenvalues --   -1.15865  -1.08775  -1.08161  -1.07775  -1.06685
 Alpha  occ. eigenvalues --   -1.06459  -1.06155  -1.05053  -1.04322  -1.04043
 Alpha  occ. eigenvalues --   -1.03786  -1.03246  -1.02920  -1.02647  -1.01706
 Alpha  occ. eigenvalues --   -0.92416  -0.91530  -0.91276  -0.89520  -0.89338
 Alpha  occ. eigenvalues --   -0.89132  -0.88555  -0.88419  -0.88177  -0.87900
 Alpha  occ. eigenvalues --   -0.87825  -0.87567  -0.87367  -0.86794  -0.86451
 Alpha  occ. eigenvalues --   -0.85290  -0.84148  -0.83639  -0.83510  -0.83111
 Alpha  occ. eigenvalues --   -0.82647  -0.82314  -0.81851  -0.81289  -0.80835
 Alpha  occ. eigenvalues --   -0.80236  -0.79436  -0.79180  -0.78266  -0.77387
 Alpha  occ. eigenvalues --   -0.76843  -0.76605  -0.76179  -0.75675  -0.75069
 Alpha  occ. eigenvalues --   -0.74449  -0.73593  -0.72794  -0.72182  -0.72100
 Alpha  occ. eigenvalues --   -0.71111  -0.69441  -0.69320  -0.68304  -0.68085
 Alpha  occ. eigenvalues --   -0.67629  -0.67368  -0.67164  -0.65674  -0.65433
 Alpha  occ. eigenvalues --   -0.65190  -0.64939  -0.64400  -0.64297  -0.63848
 Alpha  occ. eigenvalues --   -0.63774  -0.62386  -0.61772  -0.60949  -0.60148
 Alpha  occ. eigenvalues --   -0.59997  -0.59437  -0.59308  -0.58921  -0.58585
 Alpha  occ. eigenvalues --   -0.58137  -0.57883  -0.57568  -0.57145  -0.56994
 Alpha  occ. eigenvalues --   -0.56814  -0.56382  -0.56127  -0.55931  -0.55835
 Alpha  occ. eigenvalues --   -0.55722  -0.55246  -0.55053  -0.54865  -0.54712
 Alpha  occ. eigenvalues --   -0.54187  -0.54077  -0.53735  -0.53566  -0.53369
 Alpha  occ. eigenvalues --   -0.53226  -0.52994  -0.52936  -0.52854  -0.52517
 Alpha  occ. eigenvalues --   -0.52363  -0.52161  -0.51943  -0.51849  -0.51641
 Alpha  occ. eigenvalues --   -0.51476  -0.51419  -0.51046  -0.50827  -0.50727
 Alpha  occ. eigenvalues --   -0.50352  -0.50193  -0.50012  -0.49845  -0.49587
 Alpha  occ. eigenvalues --   -0.49537  -0.49465  -0.49286  -0.49110  -0.48913
 Alpha  occ. eigenvalues --   -0.48890  -0.48778  -0.48729  -0.48239  -0.48049
 Alpha  occ. eigenvalues --   -0.48039  -0.47961  -0.47709  -0.47538  -0.47234
 Alpha  occ. eigenvalues --   -0.47076  -0.46837  -0.46736  -0.46596  -0.46387
 Alpha  occ. eigenvalues --   -0.46149  -0.45994  -0.45911  -0.45758  -0.45606
 Alpha  occ. eigenvalues --   -0.45384  -0.45125  -0.44908  -0.44829  -0.44717
 Alpha  occ. eigenvalues --   -0.44487  -0.44380  -0.44116  -0.43953  -0.43841
 Alpha  occ. eigenvalues --   -0.43774  -0.43705  -0.43498  -0.43478  -0.43354
 Alpha  occ. eigenvalues --   -0.43269  -0.42980  -0.42649  -0.42611  -0.42551
 Alpha  occ. eigenvalues --   -0.42288  -0.42215  -0.42113  -0.41976  -0.41852
 Alpha  occ. eigenvalues --   -0.41700  -0.41480  -0.41423  -0.41284  -0.41163
 Alpha  occ. eigenvalues --   -0.41109  -0.40769  -0.40556  -0.40433  -0.40312
 Alpha  occ. eigenvalues --   -0.40252  -0.40025  -0.39565  -0.39138  -0.38900
 Alpha  occ. eigenvalues --   -0.38334  -0.38001  -0.37847  -0.37538  -0.36971
 Alpha  occ. eigenvalues --   -0.36926  -0.36830  -0.36298  -0.36259  -0.35939
 Alpha  occ. eigenvalues --   -0.35105  -0.34718  -0.33844  -0.33722  -0.33348
 Alpha  occ. eigenvalues --   -0.33114  -0.32715  -0.31876  -0.31016  -0.30977
 Alpha  occ. eigenvalues --   -0.30552  -0.30210  -0.29955  -0.29720  -0.29472
 Alpha  occ. eigenvalues --   -0.28958  -0.28802  -0.28037  -0.24594  -0.23614
 Alpha  occ. eigenvalues --   -0.21562  -0.20703
 Alpha virt. eigenvalues --   -0.09362  -0.08393  -0.02390  -0.01288  -0.00545
 Alpha virt. eigenvalues --    0.00350   0.01534   0.02634   0.03372   0.03873
 Alpha virt. eigenvalues --    0.04363   0.05145   0.05359   0.05812   0.05918

 Mulliken charges:
               1
     1  Mg   0.765235
     2  C    0.005674
     3  C   -0.091412
     4  C   -0.049927
     5  C   -0.040535
     6  N   -0.245559
     7  C   -0.055793
     8  C   -0.013935
     9  C   -0.087344
    10  C    0.045844
    11  C    0.104552
    12  C    0.053224
    13  C   -0.072522
    14  H    0.038877
    15  N   -0.431684
    16  C    0.171263
    17  C   -0.176316
    18  C   -0.004150
    19  C    0.154943
    20  C    0.109792
    21  C    0.011090
    22  O   -0.249694
    23  C    0.062479
    24  N   -0.330332
    25  C    0.044286
    26  C   -0.025231
    27  C   -0.006257
    28  C    0.025691
    29  C    0.078940
    30  C    0.115320
    31  C    0.071135
    32  N   -0.298994
    33  C    0.045199
    34  C   -0.216376
    35  C    0.030134
    36  C    0.090387
    37  C    0.125168
    38  C    0.046683
    39  O   -0.181794
    40  C   -0.009694
    41  C    0.211638
    42  O   -0.246916
    43  O   -0.306439
    44  C    0.157097
    45  H   -0.015674
    46  H   -0.018207
    47  H   -0.040445
    48  H    0.002109
    49  H   -0.002939
    50  H    0.026670
    51  H    0.015947
    52  H    0.017869
    53  H    0.011098
    54  H    0.048239
    55  H    0.017600
    56  H    0.017528
    57  H    0.007586
    58  H    0.028352
    59  H    0.040720
    60  H    0.038728
    61  H    0.035819
    62  H    0.030968
    63  H    0.011921
    64  H    0.008843
    65  H    0.023350
    66  H    0.013167
    67  H    0.006288
    68  H   -0.005165
    69  H   -0.000621
    70  H    0.014340
    71  H    0.025817
    72  H    0.012577
    73  H    0.049317
    74  H    0.013646
    75  H    0.048985
    76  H    0.035958
    77  H    0.043014
    78  H    0.045408
    79  H    0.056825
    80  Mg   0.837265
    81  C   -0.015317
    82  C   -0.088284
    83  C   -0.046424
    84  C   -0.066055
    85  N   -0.255377
    86  C   -0.040717
    87  C   -0.018727
    88  C   -0.092078
    89  C    0.047602
    90  C    0.114737
    91  C    0.109197
    92  C   -0.001110
    93  H    0.113578
    94  N   -0.423132
    95  C    0.162008
    96  C   -0.175571
    97  C   -0.009019
    98  C    0.151839
    99  C    0.099394
   100  C    0.014588
   101  O   -0.254333
   102  C    0.061835
   103  N   -0.350238
   104  C    0.037117
   105  C   -0.019421
   106  C   -0.034820
   107  C    0.089371
   108  C    0.074033
   109  C    0.034968
   110  C   -0.007532
   111  N   -0.324413
   112  C    0.079347
   113  C   -0.162976
   114  C    0.002768
   115  C    0.097026
   116  C    0.131199
   117  C    0.044432
   118  O   -0.186669
   119  C    0.001755
   120  C    0.211112
   121  O   -0.240651
   122  O   -0.312162
   123  C    0.142953
   124  H   -0.019452
   125  H   -0.016882
   126  H   -0.041250
   127  H   -0.003879
   128  H    0.000148
   129  H    0.020555
   130  H    0.013350
   131  H    0.015309
   132  H    0.000155
   133  H    0.035274
   134  H   -0.257038
   135  H    0.023955
   136  H    0.009898
   137  H    0.025246
   138  H    0.036344
   139  H    0.038017
   140  H    0.035023
   141  H    0.032145
   142  H    0.013488
   143  H    0.011800
   144  H    0.024138
   145  H    0.011475
   146  H    0.004984
   147  H    0.005326
   148  H    0.003431
   149  H    0.010162
   150  H    0.017313
   151  H    0.031076
   152  H    0.047084
   153  H    0.007780
   154  H    0.046088
   155  H    0.032194
   156  H    0.035901
   157  H    0.056133
   158  H    0.072229
 Sum of Mulliken charges =  -0.00000

 Dipole moment (field-independent basis, Debye):
    X=             -3.1575    Y=              7.0295    Z=              2.3598  Tot=              8.0593
 Quadrupole moment (field-independent basis, Debye-Ang):
   XX=           -490.6232   YY=           -537.8789   ZZ=           -473.0321
   XY=            -29.4122   XZ=            -18.9981   YZ=             -1.7991

 Normal termination of Gaussian 16 at Thu Sep  9 21:15:11 2021.
