 Gaussian 16, Revision A.03,
 Gaussian 16:  ES64L-G16RevA.03 25-Dec-2016

 -----------------------------------
 #p cam-b3lyp/Def2SVP td=(nstates=5)
 -----------------------------------

 --------------------------------
 TDDFT excited states in gaussian
 --------------------------------
 Symbolic Z-matrix:
 Charge =  0 Multiplicity = 1

                         Standard orientation:
 ---------------------------------------------------------------------
 Center     Atomic      Atomic             Coordinates (Angstroms)
 Number     Number       Type             X           Y           Z
 ---------------------------------------------------------------------
      1         12           0        5.106812    1.011392    0.437897
      2          6           0        5.966101   -2.080187   -1.148287
      3          6           0        5.715886    2.542103   -2.550249
      4          6           0        4.795660    3.795374    1.924252
      5          6           0        5.667757   -0.570092    3.492387
      6          7           0        5.751833    0.223178   -1.527635
      7          6           0        5.989638   -0.988752   -2.019413
      8          6           0        6.192210   -0.999854   -3.564151
      9          6           0        6.651607    0.513132   -3.768669
     10          6           0        5.970961    1.138614   -2.563921
     11          6           0        8.158121    0.714939   -3.641416
     12          6           0        4.864252   -1.304645   -4.335746
     13          6           0        5.034804   -1.655131   -5.816768
     14          1           0        4.145939   -2.643043   -6.409470
     15          7           0        4.762674    2.817799   -0.284124
     16          6           0        5.060872    3.262956   -1.528390
     17          6           0        4.608791    4.670057   -1.577079
     18          6           0        4.196784    5.063486   -0.201013
     19          6           0        4.598376    3.901223    0.549486
     20          6           0        4.552888    5.473097   -2.840310
     21          6           0        3.554182    6.296236    0.351727
     22          8           0        3.494381    6.527321    1.607752
     23          6           0        3.068870    7.281400   -0.631617
     24          7           0        5.425983    1.610719    2.411870
     25          6           0        5.159128    2.860957    2.805162
     26          6           0        5.192001    2.981905    4.299896
     27          6           0        5.299051    1.491076    4.861788
     28          6           0        5.396634    0.736869    3.512744
     29          6           0        6.334546    3.828393    4.877875
     30          6           0        4.220363    1.044299    5.880238
     31          6           0        2.872734    0.964509    5.198602
     32          7           0        5.536527   -1.010705    1.099344
     33          6           0        5.754648   -1.438348    2.417001
     34          6           0        6.114846   -2.866739    2.353559
     35          6           0        6.097300   -3.168640    0.993267
     36          6           0        5.773930   -1.996321    0.252059
     37          6           0        6.461903   -3.688695    3.461879
     38          6           0        6.300622   -4.202956   -0.008085
     39          8           0        6.499935   -5.418043    0.028404
     40          6           0        6.343259   -3.510996   -1.441682
     41          6           0        5.446270   -4.301532   -2.354794
     42          8           0        4.211779   -4.327238   -2.173864
     43          8           0        6.146434   -4.704388   -3.426251
     44          6           0        5.307633   -5.469509   -4.387062
     45          1           0        6.102841    3.156859   -3.365284
     46          1           0        4.589554    4.708963    2.485779
     47          1           0        5.773971   -1.150256    4.410854
     48          1           0        6.971579   -1.676296   -3.915483
     49          1           0        6.255104    0.937720   -4.690749
     50          1           0        8.654672   -0.194270   -3.302746
     51          1           0        8.284083    1.512806   -2.909273
     52          1           0        8.578195    1.094318   -4.573288
     53          1           0        4.283413   -0.386940   -4.427966
     54          1           0        4.303242   -2.097572   -3.839902
     55          1           0        6.073827   -1.884460   -6.054989
     56          1           0        4.811716   -0.765692   -6.406116
     57          1           0        5.073379    4.973030   -3.656133
     58          1           0        5.129812    6.381136   -2.666150
     59          1           0        3.530960    5.734014   -3.115839
     60          1           0        3.902280    7.610653   -1.252560
     61          1           0        2.559957    8.054368   -0.056833
     62          1           0        2.361635    6.792177   -1.302012
     63          1           0        4.278058    3.440368    4.675324
     64          1           0        6.242385    1.315883    5.379573
     65          1           0        5.994585    4.654056    5.503505
     66          1           0        6.939274    4.190592    4.046968
     67          1           0        7.071094    3.269391    5.454443
     68          1           0        4.130954    1.775355    6.683052
     69          1           0        4.432400    0.076580    6.335002
     70          1           0        2.520605    1.994838    5.234088
     71          1           0        2.204680    0.304303    5.752717
     72          1           0        2.973501    0.690590    4.148221
     73          1           0        5.945405   -4.636729    3.312113
     74          1           0        6.172973   -3.224815    4.404713
     75          1           0        7.543307   -3.746936    3.339285
     76          1           0        7.382174   -3.532343   -1.769282
     77          1           0        5.793597   -6.433049   -4.540893
     78          1           0        5.169689   -4.827715   -5.257393
     79          1           0        4.329220   -5.787878   -4.025552
     80         12           0       -5.267270   -1.117619    0.336661
     81          6           0       -5.647629    1.851296   -1.643221
     82          6           0       -4.818593    0.919478    3.035463
     83          6           0       -4.482538   -3.688862    2.021980
     84          6           0       -4.609886   -2.838862   -2.621527
     85          7           0       -5.257240    1.084569    0.542824
     86          6           0       -5.474101    2.109604   -0.267499
     87          6           0       -5.586790    3.482517    0.448033
     88          6           0       -4.752408    3.131567    1.774494
     89          6           0       -4.980832    1.621964    1.814683
     90          6           0       -3.260882    3.385318    1.632008
     91          6           0       -7.071689    3.860015    0.786541
     92          6           0       -7.285753    5.316596    1.204062
     93          1           0       -8.522715    5.981039    0.802934
     94          7           0       -5.213024   -1.398641    2.300496
     95          6           0       -5.046107   -0.457208    3.252922
     96          6           0       -5.058879   -1.176444    4.536164
     97          6           0       -5.081780   -2.637599    4.254738
     98          6           0       -4.901729   -2.631944    2.816806
     99          6           0       -5.129266   -0.474971    5.861458
    100          6           0       -5.227191   -3.841331    5.135701
    101          8           0       -4.980384   -5.023592    4.706545
    102          6           0       -5.576527   -3.586927    6.540953
    103          7           0       -4.430739   -2.946857   -0.189142
    104          6           0       -4.242089   -3.910373    0.729530
    105          6           0       -3.888847   -5.225252    0.076294
    106          6           0       -4.117364   -5.001591   -1.490654
    107          6           0       -4.494042   -3.503797   -1.480204
    108          6           0       -2.464724   -5.725898    0.316298
    109          6           0       -5.065974   -5.997296   -2.212721
    110          6           0       -6.483109   -5.808714   -1.721243
    111          7           0       -5.323987   -0.660604   -1.774256
    112          6           0       -4.985442   -1.519948   -2.842443
    113          6           0       -5.070828   -0.724917   -4.084642
    114          6           0       -5.433622    0.557885   -3.647276
    115          6           0       -5.545369    0.567072   -2.230616
    116          6           0       -4.781454   -1.196958   -5.395966
    117          6           0       -5.737100    1.908963   -4.061004
    118          8           0       -5.885018    2.473254   -5.144258
    119          6           0       -5.765753    2.837934   -2.771590
    120          6           0       -7.008121    3.683458   -2.835785
    121          8           0       -8.133645    3.159661   -2.762130
    122          8           0       -6.662530    4.981287   -2.754592
    123          6           0       -7.861929    5.859316   -2.802890
    124          1           0       -4.440742    1.464109    3.901197
    125          1           0       -4.306116   -4.631400    2.545418
    126          1           0       -4.515338   -3.327157   -3.593792
    127          1           0       -5.120893    4.307895   -0.076813
    128          1           0       -5.185870    3.606257    2.650929
    129          1           0       -2.991937    3.648932    0.619926
    130          1           0       -2.776327    2.462889    1.924202
    131          1           0       -2.935904    4.138715    2.355282
    132          1           0       -7.367413    3.353265    1.714170
    133          1           0       -7.722037    3.619403   -0.031856
    134          1           0       -6.418151    5.944758    0.968198
    135          1           0       -7.358487    5.358179    2.293554
    136          1           0       -4.932669    0.599381    5.758874
    137          1           0       -4.294535   -0.847416    6.465110
    138          1           0       -6.063687   -0.669821    6.392069
    139          1           0       -4.818860   -2.950498    6.991907
    140          1           0       -5.723290   -4.571822    6.988502
    141          1           0       -6.517410   -3.026199    6.571558
    142          1           0       -4.545876   -6.015626    0.417951
    143          1           0       -3.177286   -5.085271   -2.055540
    144          1           0       -2.427204   -6.734450    0.769622
    145          1           0       -1.951594   -5.008201    0.942506
    146          1           0       -1.830566   -5.755912   -0.568088
    147          1           0       -4.788534   -7.026606   -1.972482
    148          1           0       -5.049432   -5.903173   -3.293401
    149          1           0       -6.505353   -6.398537   -0.800003
    150          1           0       -7.195353   -6.189032   -2.450707
    151          1           0       -6.669108   -4.763524   -1.448048
    152          1           0       -5.559312   -0.814348   -6.043294
    153          1           0       -4.736534   -2.283612   -5.426451
    154          1           0       -3.800678   -0.740948   -5.555392
    155          1           0       -4.858042    3.442503   -2.783157
    156          1           0       -7.708875    6.564281   -3.625865
    157          1           0       -7.961530    6.285173   -1.786784
    158          1           0       -8.804386    5.405273   -3.085867
 ---------------------------------------------------------------------

 SCF Done:  E(RCAM-B3LYP) =  -4069.81204151     A.U. after   19 cycles

 Excitation energies and oscillator strengths:

 Excited State   1:      Singlet-A      1.6657 eV  744.33 nm  f=0.1725  <S**2>=0.000
     309 -> 315       -0.10318
     310 -> 316       -0.13702
     311 -> 313       -0.41340
     312 -> 314        0.54816
 This state for optimization and/or second-order correction.
 Total Energy, E(TD-HF/TD-DFT) =  -4069.75082776
 Copying the excited state density for this state as the 1-particle RhoCI density.

 Excited State   2:      Singlet-A      1.6856 eV  735.54 nm  f=0.5348  <S**2>=0.000
     309 -> 315        0.14110
     310 -> 316       -0.10595
     311 -> 313        0.54700
     312 -> 314        0.41256

 Excited State   3:      Singlet-A      2.1837 eV  567.76 nm  f=0.0705  <S**2>=0.000
     309 -> 313        0.20344
     310 -> 314        0.61047
     312 -> 316        0.25704

 Excited State   4:      Singlet-A      2.1934 eV  565.27 nm  f=0.1225  <S**2>=0.000
     309 -> 313        0.60747
     310 -> 314       -0.20169
     311 -> 315       -0.26454

 Excited State   5:      Singlet-A      2.4846 eV  499.02 nm  f=0.0000  <S**2>=0.000
     312 -> 313        0.70709

 The electronic state is 1-A.
 Alpha  occ. eigenvalues --  -46.87886 -46.87495 -19.26370 -19.26298 -19.19113
 Alpha  occ. eigenvalues --  -19.19093 -19.18930 -19.18568 -19.18249 -19.17954
 Alpha  occ. eigenvalues --  -14.42533 -14.42336 -14.41546 -14.41175 -14.39493
 Alpha  occ. eigenvalues --  -14.39192 -14.38674 -14.38445 -10.39171 -10.39020
 Alpha  occ. eigenvalues --  -10.35563 -10.35247 -10.34469 -10.34132 -10.31766
 Alpha  occ. eigenvalues --  -10.31723 -10.31480 -10.31163 -10.30989 -10.30872
 Alpha  occ. eigenvalues --  -10.30651 -10.30603 -10.30309 -10.30240 -10.30218
 Alpha  occ. eigenvalues --  -10.30024 -10.29941 -10.29719 -10.29700 -10.29342
 Alpha  occ. eigenvalues --  -10.29270 -10.29260 -10.28809 -10.28592 -10.28575
 Alpha  occ. eigenvalues --  -10.28565 -10.28449 -10.28258 -10.28172 -10.27993
 Alpha  occ. eigenvalues --  -10.27875 -10.27859 -10.27805 -10.27673 -10.27633
 Alpha  occ. eigenvalues --  -10.27585 -10.27531 -10.27510 -10.27490 -10.27347
 Alpha  occ. eigenvalues --  -10.27333 -10.27324 -10.27250 -10.27240 -10.27082
 Alpha  occ. eigenvalues --  -10.26958 -10.26755 -10.26585 -10.26516 -10.26352
 Alpha  occ. eigenvalues --  -10.26293 -10.26284 -10.26114 -10.25915 -10.25912
 Alpha  occ. eigenvalues --  -10.25851 -10.25759 -10.25749 -10.25561 -10.24953
 Alpha  occ. eigenvalues --  -10.24915 -10.24894 -10.24888 -10.24736 -10.24540
 Alpha  occ. eigenvalues --  -10.24508  -3.16629  -3.16245  -1.91511  -1.91127
 Alpha  occ. eigenvalues --   -1.91097  -1.90939  -1.90716  -1.90553  -1.16720
 Alpha  occ. eigenvalues --   -1.16588  -1.08707  -1.08569  -1.07335  -1.06879
 Alpha  occ. eigenvalues --   -1.06819  -1.06734  -1.04663  -1.04340  -1.03855
 Alpha  occ. eigenvalues --   -1.03498  -1.03324  -1.02864  -1.02502  -1.01944
 Alpha  occ. eigenvalues --   -0.92057  -0.91849  -0.89638  -0.89304  -0.89250
 Alpha  occ. eigenvalues --   -0.89007  -0.88407  -0.87992  -0.87948  -0.87754
 Alpha  occ. eigenvalues --   -0.87662  -0.87520  -0.87359  -0.86982  -0.85054
 Alpha  occ. eigenvalues --   -0.84855  -0.84067  -0.83651  -0.83072  -0.82772
 Alpha  occ. eigenvalues --   -0.82731  -0.82509  -0.81672  -0.81487  -0.80684
 Alpha  occ. eigenvalues --   -0.80312  -0.78878  -0.78496  -0.77311  -0.77016
 Alpha  occ. eigenvalues --   -0.76994  -0.76741  -0.75999  -0.75707  -0.75008
 Alpha  occ. eigenvalues --   -0.74559  -0.72862  -0.72543  -0.71760  -0.71392
 Alpha  occ. eigenvalues --   -0.70049  -0.69531  -0.68949  -0.68686  -0.67732
 Alpha  occ. eigenvalues --   -0.67449  -0.67290  -0.67074  -0.65361  -0.65138
 Alpha  occ. eigenvalues --   -0.64945  -0.64714  -0.64620  -0.64511  -0.64382
 Alpha  occ. eigenvalues --   -0.64000  -0.62390  -0.62163  -0.60537  -0.60176
 Alpha  occ. eigenvalues --   -0.59874  -0.59655  -0.59080  -0.58828  -0.58595
 Alpha  occ. eigenvalues --   -0.58273  -0.57670  -0.57454  -0.57412  -0.57064
 Alpha  occ. eigenvalues --   -0.56392  -0.56071  -0.56062  -0.55783  -0.55610
 Alpha  occ. eigenvalues --   -0.55454  -0.55332  -0.55066  -0.54633  -0.54313
 Alpha  occ. eigenvalues --   -0.53960  -0.53772  -0.53393  -0.53302  -0.53076
 Alpha  occ. eigenvalues --   -0.53009  -0.53009  -0.52839  -0.52772  -0.52585
 Alpha  occ. eigenvalues --   -0.52536  -0.52200  -0.51992  -0.51769  -0.51687
 Alpha  occ. eigenvalues --   -0.51534  -0.51288  -0.51064  -0.50658  -0.50332
 Alpha  occ. eigenvalues --   -0.50151  -0.50006  -0.49829  -0.49635  -0.49596
 Alpha  occ. eigenvalues --   -0.49350  -0.49297  -0.49165  -0.49076  -0.48969
 Alpha  occ. eigenvalues --   -0.48676  -0.48571  -0.48540  -0.48433  -0.48211
 Alpha  occ. eigenvalues --   -0.48141  -0.47783  -0.47443  -0.47385  -0.46945
 Alpha  occ. eigenvalues --   -0.46892  -0.46624  -0.46543  -0.46453  -0.46404
 Alpha  occ. eigenvalues --   -0.46258  -0.46112  -0.45903  -0.45902  -0.45696
 Alpha  occ. eigenvalues --   -0.45316  -0.44956  -0.44663  -0.44600  -0.44382
 Alpha  occ. eigenvalues --   -0.44328  -0.44252  -0.44162  -0.44103  -0.43990
 Alpha  occ. eigenvalues --   -0.43907  -0.43815  -0.43583  -0.43473  -0.43437
 Alpha  occ. eigenvalues --   -0.43222  -0.43117  -0.42837  -0.42814  -0.42766
 Alpha  occ. eigenvalues --   -0.42741  -0.42353  -0.42121  -0.41795  -0.41794
 Alpha  occ. eigenvalues --   -0.41607  -0.41522  -0.41306  -0.41227  -0.40959
 Alpha  occ. eigenvalues --   -0.40926  -0.40812  -0.40682  -0.40581  -0.40547
 Alpha  occ. eigenvalues --   -0.40294  -0.40276  -0.40106  -0.39594  -0.39206
 Alpha  occ. eigenvalues --   -0.38583  -0.38122  -0.37815  -0.37523  -0.37428
 Alpha  occ. eigenvalues --   -0.37335  -0.37085  -0.37046  -0.36811  -0.36669
 Alpha  occ. eigenvalues --   -0.36291  -0.36033  -0.34374  -0.34094  -0.33864
 Alpha  occ. eigenvalues --   -0.33776  -0.33277  -0.33015  -0.31461  -0.31127
 Alpha  occ. eigenvalues --   -0.31123  -0.30811  -0.30108  -0.29861  -0.29538
 Alpha  occ. eigenvalues --   -0.29405  -0.29184  -0.29074  -0.24170  -0.23873
 Alpha  occ. eigenvalues --   -0.21216  -0.20954
 Alpha virt. eigenvalues --   -0.08862  -0.08640  -0.01845  -0.01510  -0.00149
 Alpha virt. eigenvalues --    0.00112   0.02111   0.02340   0.03011   0.03385
 Alpha virt. eigenvalues --    0.04640   0.04888   0.05010   0.05241   0.06116

 Mulliken charges:
               1
     1  Mg   0.838696
     2  C   -0.002951
     3  C   -0.093489
     4  C   -0.046390
     5  C   -0.064002
     6  N   -0.256775
     7  C   -0.052299
     8  C   -0.014091
     9  C   -0.087087
    10  C    0.046277
    11  C    0.104736
    12  C    0.053324
    13  C   -0.071921
    14  H    0.035946
    15  N   -0.433133
    16  C    0.168307
    17  C   -0.176764
    18  C   -0.004253
    19  C    0.148589
    20  C    0.109983
    21  C    0.011645
    22  O   -0.250564
    23  C    0.062580
    24  N   -0.341043
    25  C    0.041257
    26  C   -0.028070
    27  C   -0.023896
    28  C    0.074608
    29  C    0.076168
    30  C    0.035254
    31  C   -0.004363
    32  N   -0.310526
    33  C    0.080407
    34  C   -0.169505
    35  C    0.008445
    36  C    0.082957
    37  C    0.127302
    38  C    0.046111
    39  O   -0.188250
    40  C   -0.005339
    41  C    0.213039
    42  O   -0.257620
    43  O   -0.304579
    44  C    0.157854
    45  H   -0.017151
    46  H   -0.017378
    47  H   -0.041503
    48  H    0.001045
    49  H   -0.003496
    50  H    0.025485
    51  H    0.016396
    52  H    0.017026
    53  H    0.011707
    54  H    0.043705
    55  H    0.017962
    56  H    0.018641
    57  H    0.006421
    58  H    0.026910
    59  H    0.040311
    60  H    0.037960
    61  H    0.035003
    62  H    0.031742
    63  H    0.015502
    64  H    0.009708
    65  H    0.022830
    66  H    0.012914
    67  H    0.004948
    68  H    0.005839
    69  H    0.005208
    70  H    0.007172
    71  H    0.017518
    72  H    0.029709
    73  H    0.047894
    74  H    0.009103
    75  H    0.046119
    76  H    0.035399
    77  H    0.043133
    78  H    0.046680
    79  H    0.052963
    80  Mg   0.838165
    81  C   -0.017246
    82  C   -0.088107
    83  C   -0.045117
    84  C   -0.063825
    85  N   -0.254672
    86  C   -0.050013
    87  C   -0.015034
    88  C   -0.090456
    89  C    0.045907
    90  C    0.114431
    91  C    0.062560
    92  C   -0.077681
    93  H    0.034236
    94  N   -0.423621
    95  C    0.163271
    96  C   -0.174744
    97  C   -0.007600
    98  C    0.152284
    99  C    0.099458
   100  C    0.015482
   101  O   -0.252590
   102  C    0.061281
   103  N   -0.350049
   104  C    0.038503
   105  C   -0.020578
   106  C   -0.034621
   107  C    0.089059
   108  C    0.072279
   109  C    0.034598
   110  C   -0.007541
   111  N   -0.323967
   112  C    0.078308
   113  C   -0.163348
   114  C    0.001670
   115  C    0.096286
   116  C    0.131673
   117  C    0.041730
   118  O   -0.189303
   119  C    0.001161
   120  C    0.211170
   121  O   -0.250978
   122  O   -0.305906
   123  C    0.152145
   124  H   -0.019684
   125  H   -0.014848
   126  H   -0.040533
   127  H   -0.001328
   128  H   -0.004506
   129  H    0.021498
   130  H    0.014867
   131  H    0.017656
   132  H    0.013910
   133  H    0.037409
   134  H    0.020700
   135  H    0.019677
   136  H    0.008685
   137  H    0.025737
   138  H    0.039511
   139  H    0.037907
   140  H    0.036296
   141  H    0.033643
   142  H    0.013792
   143  H    0.014338
   144  H    0.025065
   145  H    0.013528
   146  H    0.010238
   147  H    0.006711
   148  H    0.003033
   149  H    0.010929
   150  H    0.017212
   151  H    0.029642
   152  H    0.045320
   153  H    0.008609
   154  H    0.046130
   155  H    0.033840
   156  H    0.043217
   157  H    0.049625
   158  H    0.053510
 Sum of Mulliken charges =  -0.00000

 Dipole moment (field-independent basis, Debye):
    X=              3.3189    Y=              4.4605    Z=              1.1504  Tot=              5.6775
 Quadrupole moment (field-independent basis, Debye-Ang):
   XX=           -522.1459   YY=           -523.4370   ZZ=           -473.9714
   XY=             12.7836   XZ=            -44.9721   YZ=             20.5002

 Normal termination of Gaussian 16 at Fri Sep 10 16:46:46 2021.
