 Gaussian 16, Revision A.03,
 Gaussian 16:  ES64L-G16RevA.03 25-Dec-2016

 -----------------------------------
 #p cam-b3lyp/Def2SVP td=(nstates=5)
 -----------------------------------

 --------------------------------
 TDDFT excited states in gaussian
 --------------------------------
 Symbolic Z-matrix:
 Charge =  0 Multiplicity = 1

                         Standard orientation:
 ---------------------------------------------------------------------
 Center     Atomic      Atomic             Coordinates (Angstroms)
 Number     Number       Type             X           Y           Z
 ---------------------------------------------------------------------
      1         12           0       -7.859691   -0.737365    0.001949
      2          6           0       -8.052595    2.775199    0.662931
      3          6           0       -8.700392   -0.024739   -3.227362
      4          6           0       -8.140421   -3.856190   -0.498794
      5          6           0       -8.156499   -1.250089    3.436288
      6          7           0       -8.294181    1.172148   -1.030341
      7          6           0       -8.275431    2.453774   -0.677844
      8          6           0       -8.440027    3.428270   -1.882269
      9          6           0       -9.187591    2.451125   -2.896337
     10          6           0       -8.670162    1.120927   -2.377911
     11          6           0      -10.706376    2.475087   -2.757705
     12          6           0       -7.062435    3.903542   -2.455059
     13          6           0       -7.129295    5.098633   -3.410382
     14          1           0       -6.049340    6.073612   -3.388895
     15          7           0       -7.867931   -1.768806   -1.682958
     16          6           0       -8.223343   -1.314628   -2.908800
     17          6           0       -8.060009   -2.459249   -3.830670
     18          6           0       -7.763007   -3.665880   -3.009740
     19          6           0       -7.940077   -3.143756   -1.678796
     20          6           0       -8.139478   -2.333167   -5.321153
     21          6           0       -7.390576   -5.069786   -3.368172
     22          8           0       -7.403802   -6.017238   -2.509839
     23          6           0       -7.091401   -5.327872   -4.788358
     24          7           0       -8.332334   -2.339681    1.253679
     25          6           0       -8.328245   -3.596767    0.796840
     26          6           0       -8.415194   -4.586413    1.920664
     27          6           0       -8.234321   -3.744973    3.265661
     28          6           0       -8.151897   -2.327307    2.647841
     29          6           0       -9.715179   -5.398869    1.997889
     30          6           0       -7.109309   -4.195402    4.231000
     31          6           0       -5.759154   -3.953069    3.594247
     32          7           0       -7.891042    0.513331    1.775596
     33          6           0       -8.046466    0.089666    3.103385
     34          6           0       -8.113240    1.302738    3.938887
     35          6           0       -8.007981    2.354986    3.031396
     36          6           0       -7.909740    1.832817    1.710041
     37          6           0       -8.312070    1.334629    5.347391
     38          6           0       -7.980421    3.799461    2.868331
     39          8           0       -7.934154    4.758520    3.640056
     40          6           0       -8.130791    4.131675    1.318219
     41          6           0       -7.075668    5.144587    0.966035
     42          8           0       -5.864812    4.844191    0.996955
     43          8           0       -7.659340    6.224285    0.423705
     44          6           0       -6.665315    7.256106    0.024441
     45          1           0       -9.185372    0.053728   -4.202338
     46          1           0       -8.132168   -4.941933   -0.615118
     47          1           0       -8.163695   -1.333423    4.524615
     48          1           0       -9.061500    4.300650   -1.679419
     49          1           0       -8.864901    2.608177   -3.925379
     50          1           0      -11.018499    3.064511   -1.895685
     51          1           0      -11.003875    1.433536   -2.634584
     52          1           0      -11.174477    2.813085   -3.682592
     53          1           0       -6.674481    3.144507   -3.134335
     54          1           0       -6.364866    4.126531   -1.646975
     55          1           0       -8.096622    5.598847   -3.355864
     56          1           0       -7.076008    4.722545   -4.432105
     57          1           0       -8.532979   -1.362570   -5.620557
     58          1           0       -8.889321   -3.047015   -5.661546
     59          1           0       -7.184670   -2.545386   -5.802438
     60          1           0       -7.960825   -5.067468   -5.392378
     61          1           0       -6.758719   -6.363865   -4.842130
     62          1           0       -6.287234   -4.663596   -5.106167
     63          1           0       -7.618907   -5.326485    1.852502
     64          1           0       -9.134188   -3.759047    3.881061
     65          1           0       -9.559570   -6.477649    1.970978
     66          1           0      -10.362829   -5.076728    1.182987
     67          1           0      -10.337131   -5.184677    2.866632
     68          1           0       -7.183933   -5.264360    4.427734
     69          1           0       -7.133403   -3.679074    5.190727
     70          1           0       -5.620340   -4.837695    2.973764
     71          1           0       -4.984370   -3.886964    4.358807
     72          1           0       -5.781734   -3.089184    2.929658
     73          1           0       -7.613952    2.075286    5.737299
     74          1           0       -8.140818    0.355317    5.793736
     75          1           0       -9.357402    1.639069    5.396917
     76          1           0       -9.137652    4.523665    1.177878
     77          1           0       -6.946140    8.182936    0.524800
     78          1           0       -6.640307    7.256964   -1.065412
     79          1           0       -5.650685    7.118778    0.399950
     80         12           0        8.022010   -0.807877    0.148374
     81          6           0        7.834526    2.767621   -0.096002
     82          6           0        7.176305   -0.928572   -3.153867
     83          6           0        7.737714   -3.954705    0.438390
     84          6           0        7.722896   -0.448637    3.601953
     85          7           0        7.587719    0.781883   -1.326847
     86          6           0        7.607578    2.106238   -1.320954
     87          6           0        7.450554    2.758089   -2.720954
     88          6           0        6.692478    1.552895   -3.463698
     89          6           0        7.206671    0.385840   -2.623299
     90          6           0        5.180737    1.614274   -3.321532
     91          6           0        8.833426    3.068552   -3.394230
     92          6           0        8.761317    3.982049   -4.619827
     93          1           0        9.849486    4.928998   -4.847111
     94          7           0        8.012808   -2.229566   -1.236286
     95          6           0        7.663147   -2.099979   -2.533286
     96          6           0        7.807447   -3.439263   -3.124613
     97          6           0        8.112280   -4.403666   -2.032956
     98          6           0        7.941818   -3.551557   -0.873236
     99          6           0        7.734892   -3.688032   -4.603216
    100          6           0        8.481915   -5.856099   -2.032202
    101          8           0        8.469220   -6.553578   -0.956937
    102          6           0        8.768661   -6.460277   -3.341488
    103          7           0        7.555475   -2.039111    1.757341
    104          6           0        7.550921   -3.377199    1.625373
    105          6           0        7.460410   -4.057678    2.970415
    106          6           0        7.649630   -2.896043    4.053183
    107          6           0        7.731255   -1.678494    3.106450
    108          6           0        6.157911   -4.806936    3.250569
    109          6           0        8.775642   -3.091142    5.105181
    110          6           0       10.127567   -3.031114    4.431309
    111          7           0        8.000546    0.840820    1.544575
    112          6           0        7.838982    0.770043    2.945634
    113          6           0        7.776241    2.158131    3.447343
    114          6           0        7.883403    2.946337    2.291601
    115          6           0        7.984088    2.108529    1.148173
    116          6           0        7.589704    2.544498    4.804560
    117          6           0        7.923561    4.296582    1.777858
    118          8           0        7.965741    5.417474    2.283396
    119          6           0        7.766502    4.240723    0.197161
    120          6           0        8.823434    5.124707   -0.406153
    121          8           0       10.028286    4.839935   -0.288444
    122          8           0        8.234358    6.035316   -1.202484
    123          6           0        9.242792    6.928536   -1.832601
    124          1           0        6.696385   -1.087122   -4.120003
    125          1           0        7.743134   -5.034195    0.606144
    126          1           0        7.728951   -0.252025    4.676190
    127          1           0        6.837328    3.651041   -2.740079
    128          1           0        7.022115    1.454657   -4.494745
    129          1           0        4.871272    2.395139   -2.642842
    130          1           0        4.881079    0.645020   -2.944967
    131          1           0        4.713283    1.713018   -4.305433
    132          1           0        9.216332    2.153529   -3.864176
    133          1           0        9.522060    3.476048   -2.679832
    134          1           0        7.790342    4.485418   -4.702178
    135          1           0        8.819152    3.362652   -5.518168
    136          1           0        7.335934   -2.817555   -5.138480
    137          1           0        6.984288   -4.470380   -4.759396
    138          1           0        8.686629   -4.022904   -5.021211
    139          1           0        7.900478   -6.351796   -3.987204
    140          1           0        9.099777   -7.478311   -3.127342
    141          1           0        9.584025   -5.901077   -3.813818
    142          1           0        8.255390   -4.783340    3.090955
    143          1           0        6.746077   -2.758295    4.665100
    144          1           0        6.312692   -5.874471    3.496526
    145          1           0        5.513176   -4.705115    2.387728
    146          1           0        5.545862   -4.387253    4.047109
    147          1           0        8.700075   -4.081134    5.561644
    148          1           0        8.746820   -2.362925    5.908828
    149          1           0       10.258106   -4.047924    4.049010
    150          1           0       10.903347   -2.777361    5.150906
    151          1           0       10.107749   -2.354724    3.568901
    152          1           0        8.282786    3.352835    4.996219
    153          1           0        7.754713    1.709250    5.481984
    154          1           0        6.540387    2.850244    4.777849
    155          1           0        6.759564    4.583271   -0.044303
    156          1           0        8.961249    7.955750   -1.581123
    157          1           0        9.253479    6.657353   -2.905021
    158          1           0       10.256395    6.887684   -1.451286
 ---------------------------------------------------------------------

 SCF Done:  E(RCAM-B3LYP) =  -4069.81166986     A.U. after   19 cycles

 Excitation energies and oscillator strengths:

 Excited State   1:      Singlet-A      1.6700 eV  742.42 nm  f=0.0298  <S**2>=0.000
     309 -> 315       -0.10397
     310 -> 316        0.13763
     311 -> 313       -0.41227
     312 -> 314        0.54872
 This state for optimization and/or second-order correction.
 Total Energy, E(TD-HF/TD-DFT) =  -4069.75029879
 Copying the excited state density for this state as the 1-particle RhoCI density.

 Excited State   2:      Singlet-A      1.6850 eV  735.80 nm  f=0.7260  <S**2>=0.000
     309 -> 315        0.14139
     310 -> 316        0.10573
     311 -> 313        0.54792
     312 -> 314        0.41177

 Excited State   3:      Singlet-A      2.1855 eV  567.31 nm  f=0.0597  <S**2>=0.000
     309 -> 313       -0.13798
     310 -> 314        0.62773
     312 -> 316       -0.26641

 Excited State   4:      Singlet-A      2.1927 eV  565.45 nm  f=0.1341  <S**2>=0.000
     309 -> 313        0.62581
     310 -> 314        0.13693
     311 -> 315       -0.27195

 Excited State   5:      Singlet-A      2.7652 eV  448.37 nm  f=0.0000  <S**2>=0.000
     312 -> 313        0.70710

 The electronic state is 1-A.
 Alpha  occ. eigenvalues --  -46.87834 -46.87589 -19.26300 -19.26286 -19.19096
 Alpha  occ. eigenvalues --  -19.19038 -19.18859 -19.18655 -19.18195 -19.17971
 Alpha  occ. eigenvalues --  -14.42488 -14.42427 -14.41486 -14.41287 -14.39441
 Alpha  occ. eigenvalues --  -14.39282 -14.38622 -14.38526 -10.39099 -10.39024
 Alpha  occ. eigenvalues --  -10.35494 -10.35333 -10.34415 -10.34148 -10.31701
 Alpha  occ. eigenvalues --  -10.31688 -10.31440 -10.31237 -10.30957 -10.30948
 Alpha  occ. eigenvalues --  -10.30605 -10.30543 -10.30324 -10.30287 -10.30245
 Alpha  occ. eigenvalues --  -10.30072 -10.29953 -10.29819 -10.29667 -10.29367
 Alpha  occ. eigenvalues --  -10.29330 -10.29293 -10.28789 -10.28658 -10.28616
 Alpha  occ. eigenvalues --  -10.28586 -10.28402 -10.28334 -10.28155 -10.28077
 Alpha  occ. eigenvalues --  -10.27927 -10.27828 -10.27765 -10.27623 -10.27601
 Alpha  occ. eigenvalues --  -10.27534 -10.27533 -10.27481 -10.27447 -10.27439
 Alpha  occ. eigenvalues --  -10.27418 -10.27412 -10.27398 -10.27305 -10.27184
 Alpha  occ. eigenvalues --  -10.26972 -10.26751 -10.26643 -10.26467 -10.26369
 Alpha  occ. eigenvalues --  -10.26269 -10.26215 -10.26074 -10.26055 -10.25953
 Alpha  occ. eigenvalues --  -10.25867 -10.25861 -10.25755 -10.25463 -10.25323
 Alpha  occ. eigenvalues --  -10.24866 -10.24823 -10.24797 -10.24721 -10.24672
 Alpha  occ. eigenvalues --  -10.24618  -3.16577  -3.16339  -1.91459  -1.91221
 Alpha  occ. eigenvalues --   -1.91045  -1.90887  -1.90809  -1.90646  -1.16649
 Alpha  occ. eigenvalues --   -1.16579  -1.08651  -1.08577  -1.07261  -1.06908
 Alpha  occ. eigenvalues --   -1.06880  -1.06661  -1.04618  -1.04425  -1.03797
 Alpha  occ. eigenvalues --   -1.03592  -1.03270  -1.02966  -1.02447  -1.02039
 Alpha  occ. eigenvalues --   -0.92005  -0.91914  -0.89553  -0.89424  -0.89227
 Alpha  occ. eigenvalues --   -0.89088  -0.88320  -0.88151  -0.87902  -0.87714
 Alpha  occ. eigenvalues --   -0.87711  -0.87616  -0.87318  -0.87059  -0.85021
 Alpha  occ. eigenvalues --   -0.84937  -0.83968  -0.83807  -0.83012  -0.82873
 Alpha  occ. eigenvalues --   -0.82686  -0.82591  -0.81613  -0.81529  -0.80630
 Alpha  occ. eigenvalues --   -0.80376  -0.78837  -0.78568  -0.77255  -0.77079
 Alpha  occ. eigenvalues --   -0.76967  -0.76834  -0.75955  -0.75772  -0.74930
 Alpha  occ. eigenvalues --   -0.74733  -0.72809  -0.72626  -0.71706  -0.71511
 Alpha  occ. eigenvalues --   -0.69940  -0.69691  -0.68912  -0.68764  -0.67677
 Alpha  occ. eigenvalues --   -0.67533  -0.67263  -0.67144  -0.65323  -0.65207
 Alpha  occ. eigenvalues --   -0.64886  -0.64701  -0.64654  -0.64588  -0.64303
 Alpha  occ. eigenvalues --   -0.64135  -0.62322  -0.62211  -0.60483  -0.60275
 Alpha  occ. eigenvalues --   -0.59842  -0.59730  -0.59021  -0.58922  -0.58537
 Alpha  occ. eigenvalues --   -0.58355  -0.57611  -0.57480  -0.57342  -0.57167
 Alpha  occ. eigenvalues --   -0.56345  -0.56135  -0.56004  -0.55823  -0.55558
 Alpha  occ. eigenvalues --   -0.55388  -0.55368  -0.55178  -0.54550  -0.54421
 Alpha  occ. eigenvalues --   -0.53934  -0.53851  -0.53336  -0.53260  -0.53160
 Alpha  occ. eigenvalues --   -0.53078  -0.52946  -0.52838  -0.52800  -0.52612
 Alpha  occ. eigenvalues --   -0.52470  -0.52336  -0.51943  -0.51798  -0.51657
 Alpha  occ. eigenvalues --   -0.51599  -0.51227  -0.51130  -0.50622  -0.50420
 Alpha  occ. eigenvalues --   -0.50067  -0.49960  -0.49917  -0.49800  -0.49554
 Alpha  occ. eigenvalues --   -0.49426  -0.49249  -0.49135  -0.49131  -0.49035
 Alpha  occ. eigenvalues --   -0.48623  -0.48498  -0.48490  -0.48479  -0.48305
 Alpha  occ. eigenvalues --   -0.48277  -0.47732  -0.47531  -0.47333  -0.47054
 Alpha  occ. eigenvalues --   -0.46832  -0.46641  -0.46594  -0.46493  -0.46393
 Alpha  occ. eigenvalues --   -0.46202  -0.46192  -0.46012  -0.45848  -0.45749
 Alpha  occ. eigenvalues --   -0.45234  -0.45139  -0.44607  -0.44548  -0.44446
 Alpha  occ. eigenvalues --   -0.44411  -0.44180  -0.44126  -0.44060  -0.44053
 Alpha  occ. eigenvalues --   -0.44013  -0.43875  -0.43521  -0.43487  -0.43422
 Alpha  occ. eigenvalues --   -0.43318  -0.43060  -0.42864  -0.42829  -0.42725
 Alpha  occ. eigenvalues --   -0.42681  -0.42487  -0.42043  -0.41900  -0.41737
 Alpha  occ. eigenvalues --   -0.41597  -0.41573  -0.41397  -0.41176  -0.40920
 Alpha  occ. eigenvalues --   -0.40908  -0.40868  -0.40665  -0.40638  -0.40605
 Alpha  occ. eigenvalues --   -0.40425  -0.40278  -0.40174  -0.39474  -0.39360
 Alpha  occ. eigenvalues --   -0.38503  -0.38283  -0.37789  -0.37598  -0.37355
 Alpha  occ. eigenvalues --   -0.37302  -0.37197  -0.37134  -0.36736  -0.36706
 Alpha  occ. eigenvalues --   -0.36222  -0.36149  -0.34322  -0.34182  -0.33796
 Alpha  occ. eigenvalues --   -0.33792  -0.33221  -0.33104  -0.31388  -0.31213
 Alpha  occ. eigenvalues --   -0.31071  -0.30902  -0.30053  -0.29875  -0.29488
 Alpha  occ. eigenvalues --   -0.29356  -0.29258  -0.29135  -0.24116  -0.23964
 Alpha  occ. eigenvalues --   -0.21164  -0.21046
 Alpha virt. eigenvalues --   -0.08811  -0.08720  -0.01787  -0.01613  -0.00098
 Alpha virt. eigenvalues --    0.00037   0.02169   0.02284   0.03076   0.03290
 Alpha virt. eigenvalues --    0.04680   0.04796   0.05077   0.05233   0.06137

 Mulliken charges:
               1
     1  Mg   0.838608
     2  C   -0.002971
     3  C   -0.094297
     4  C   -0.045867
     5  C   -0.063922
     6  N   -0.256782
     7  C   -0.052462
     8  C   -0.013989
     9  C   -0.086960
    10  C    0.046256
    11  C    0.104810
    12  C    0.053544
    13  C   -0.071765
    14  H    0.036082
    15  N   -0.433126
    16  C    0.168319
    17  C   -0.177309
    18  C   -0.004097
    19  C    0.148655
    20  C    0.110218
    21  C    0.012205
    22  O   -0.249552
    23  C    0.062546
    24  N   -0.341110
    25  C    0.041224
    26  C   -0.028199
    27  C   -0.023986
    28  C    0.074838
    29  C    0.076153
    30  C    0.035115
    31  C   -0.004500
    32  N   -0.310513
    33  C    0.080454
    34  C   -0.169608
    35  C    0.008477
    36  C    0.083014
    37  C    0.127281
    38  C    0.046234
    39  O   -0.188078
    40  C   -0.005375
    41  C    0.212950
    42  O   -0.257075
    43  O   -0.304819
    44  C    0.157571
    45  H   -0.017668
    46  H   -0.016813
    47  H   -0.041379
    48  H    0.001068
    49  H   -0.004202
    50  H    0.025564
    51  H    0.016476
    52  H    0.016642
    53  H    0.010883
    54  H    0.044171
    55  H    0.018041
    56  H    0.017708
    57  H    0.005801
    58  H    0.026851
    59  H    0.039110
    60  H    0.037380
    61  H    0.035614
    62  H    0.031114
    63  H    0.016561
    64  H    0.009552
    65  H    0.023262
    66  H    0.012548
    67  H    0.004819
    68  H    0.006447
    69  H    0.004793
    70  H    0.008802
    71  H    0.018115
    72  H    0.028910
    73  H    0.047783
    74  H    0.009146
    75  H    0.046118
    76  H    0.035228
    77  H    0.043200
    78  H    0.046237
    79  H    0.053924
    80  Mg   0.837958
    81  C   -0.016797
    82  C   -0.087856
    83  C   -0.045495
    84  C   -0.064627
    85  N   -0.254553
    86  C   -0.049648
    87  C   -0.015107
    88  C   -0.090557
    89  C    0.045815
    90  C    0.114390
    91  C    0.062568
    92  C   -0.077752
    93  H    0.034686
    94  N   -0.423478
    95  C    0.162901
    96  C   -0.174762
    97  C   -0.007875
    98  C    0.152083
    99  C    0.099450
   100  C    0.015499
   101  O   -0.253254
   102  C    0.061230
   103  N   -0.350017
   104  C    0.037559
   105  C   -0.019857
   106  C   -0.034853
   107  C    0.088958
   108  C    0.073627
   109  C    0.034750
   110  C   -0.007655
   111  N   -0.324197
   112  C    0.078547
   113  C   -0.162874
   114  C    0.002474
   115  C    0.096246
   116  C    0.131420
   117  C    0.042641
   118  O   -0.187613
   119  C    0.000806
   120  C    0.211217
   121  O   -0.251169
   122  O   -0.305518
   123  C    0.152083
   124  H   -0.019979
   125  H   -0.015651
   126  H   -0.040306
   127  H   -0.000538
   128  H   -0.004686
   129  H    0.023040
   130  H    0.014631
   131  H    0.015761
   132  H    0.013814
   133  H    0.037678
   134  H    0.020742
   135  H    0.019365
   136  H    0.008502
   137  H    0.025933
   138  H    0.039552
   139  H    0.038148
   140  H    0.036254
   141  H    0.033772
   142  H    0.014246
   143  H    0.012668
   144  H    0.024951
   145  H    0.011836
   146  H    0.005816
   147  H    0.006164
   148  H    0.003713
   149  H    0.010839
   150  H    0.017835
   151  H    0.030103
   152  H    0.045936
   153  H    0.008442
   154  H    0.047778
   155  H    0.035535
   156  H    0.043924
   157  H    0.049299
   158  H    0.053488
 Sum of Mulliken charges =  -0.00000

 Dipole moment (field-independent basis, Debye):
    X=             -3.9764    Y=             -2.3163    Z=             -7.6243  Tot=              8.9055
 Quadrupole moment (field-independent basis, Debye-Ang):
   XX=           -517.6023   YY=           -550.0575   ZZ=           -448.9446
   XY=            -12.1016   XZ=              2.1094   YZ=            -46.9836

 Normal termination of Gaussian 16 at Sat Sep  4 15:34:49 2021.
