 Gaussian 16, Revision A.03,
 Gaussian 16:  ES64L-G16RevA.03 25-Dec-2016

 -----------------------------------
 #p cam-b3lyp/Def2SVP td=(nstates=5)
 -----------------------------------

 --------------------------------
 TDDFT excited states in gaussian
 --------------------------------
 Symbolic Z-matrix:
 Charge =  0 Multiplicity = 1

                         Standard orientation:
 ---------------------------------------------------------------------
 Center     Atomic      Atomic             Coordinates (Angstroms)
 Number     Number       Type             X           Y           Z
 ---------------------------------------------------------------------
      1         12           0        6.498277    0.664487    0.537601
      2          6           0        7.007697   -2.134010   -1.635213
      3          6           0        7.165929    2.673866   -2.138160
      4          6           0        6.501494    3.132049    2.529522
      5          6           0        6.991651   -1.512050    3.214340
      6          7           0        7.006676    0.209242   -1.568326
      7          6           0        7.111603   -0.903605   -2.287862
      8          6           0        7.267299   -0.639295   -3.815368
      9          6           0        7.864987    0.837594   -3.755648
     10          6           0        7.283335    1.281395   -2.424991
     11          6           0        9.387017    0.875643   -3.663560
     12          6           0        5.894260   -0.671690   -4.567330
     13          6           0        5.987068   -0.748423   -6.094043
     14          1           0        4.989878   -1.522051   -6.818239
     15          7           0        6.309979    2.598578    0.181673
     16          6           0        6.613717    3.243342   -0.970416
     17          6           0        6.298857    4.668853   -0.734905
     18          6           0        5.966952    4.829153    0.708091
     19          6           0        6.275637    3.514283    1.209298
     20          6           0        6.284431    5.698873   -1.822379
     21          6           0        5.463085    5.987080    1.510248
     22          8           0        5.462374    5.979869    2.788732
     23          6           0        5.047204    7.180523    0.751447
     24          7           0        6.931075    0.846991    2.571566
     25          6           0        6.798103    2.018599    3.202945
     26          6           0        6.885838    1.850068    4.690842
     27          6           0        6.864196    0.276185    4.959500
     28          6           0        6.849121   -0.213786    3.490497
     29          6           0        8.121281    2.465472    5.362386
     30          6           0        5.777268   -0.257294    5.926147
     31          6           0        4.409064   -0.085023    5.305309
     32          7           0        6.749063   -1.476657    0.789899
     33          6           0        6.962821   -2.164533    1.993148
     34          6           0        7.180957   -3.581326    1.647921
     35          6           0        7.094836   -3.616617    0.257532
     36          6           0        6.865214   -2.300693   -0.236340
     37          6           0        7.478723   -4.626535    2.566239
     38          6           0        7.167897   -4.455956   -0.927386
     39          8           0        7.249532   -5.668750   -1.127282
     40          6           0        7.235807   -3.511023   -2.207353
     41          6           0        6.240372   -4.030106   -3.208838
     42          8           0        5.014960   -3.978894   -2.978382
     43          8           0        6.866871   -4.283305   -4.368118
     44          6           0        5.930405   -4.773699   -5.414397
     45          1           0        7.586838    3.394981   -2.841559
     46          1           0        6.401221    3.937120    3.260442
     47          1           0        7.067732   -2.263210    4.002644
     48          1           0        7.966960   -1.303828   -4.322609
     49          1           0        7.484929    1.463363   -4.562921
     50          1           0        9.802757   -0.122129   -3.523802
     51          1           0        9.610844    1.505397   -2.802280
     52          1           0        9.814687    1.385846   -4.527023
     53          1           0        5.402631    0.295149   -4.459706
     54          1           0        5.273679   -1.490784   -4.202241
     55          1           0        6.991645   -1.020575   -6.419107
     56          1           0        5.834211    0.253098   -6.496273
     57          1           0        6.730168    5.318199   -2.740502
     58          1           0        6.951412    6.501859   -1.509237
     59          1           0        5.285032    6.097932   -1.996410
     60          1           0        5.890245    7.545610    0.164471
     61          1           0        4.632438    7.872745    1.483326
     62          1           0        4.276773    6.892930    0.035433
     63          1           0        6.031873    2.308974    5.187405
     64          1           0        7.800728   -0.078016    5.390922
     65          1           0        7.881180    3.184409    6.146086
     66          1           0        8.733920    2.923148    4.586179
     67          1           0        8.816607    1.743402    5.789647
     68          1           0        5.782403    0.313032    6.854397
     69          1           0        5.907647   -1.308804    6.182230
     70          1           0        4.159582    0.947170    5.548558
     71          1           0        3.696533   -0.775821    5.757313
     72          1           0        4.452339   -0.162414    4.218744
     73          1           0        6.868691   -5.478675    2.266762
     74          1           0        7.263535   -4.326123    3.591447
     75          1           0        8.545390   -4.757171    2.384546
     76          1           0        8.257837   -3.562849   -2.581375
     77          1           0        6.316077   -5.730121   -5.767596
     78          1           0        5.830122   -3.968580   -6.142497
     79          1           0        4.936641   -5.065878   -5.073219
     80         12           0       -6.662610   -0.749603    0.519314
     81          6           0       -6.710881    1.657541   -2.141952
     82          6           0       -6.063869    1.843289    2.653097
     83          6           0       -6.167264   -2.883239    2.814896
     84          6           0       -6.124890   -3.203316   -1.896431
     85          7           0       -6.438373    1.424491    0.179787
     86          6           0       -6.537824    2.231960   -0.865417
     87          6           0       -6.527094    3.743788   -0.513554
     88          6           0       -5.755957    3.657978    0.892454
     89          6           0       -6.133407    2.232908    1.291672
     90          6           0       -4.244280    3.731018    0.755187
     91          6           0       -7.973261    4.327561   -0.340823
     92          6           0       -8.049649    5.855447   -0.302373
     93          1           0       -9.207210    6.509881   -0.905900
     94          7           0       -6.672371   -0.538607    2.492628
     95          6           0       -6.430514    0.590282    3.191485
     96          6           0       -6.537897    0.216008    4.610131
     97          6           0       -6.700210   -1.260895    4.694631
     98          6           0       -6.494209   -1.628477    3.308069
     99          6           0       -6.562706    1.227615    5.718942
    100          6           0       -6.980161   -2.190062    5.836769
    101          8           0       -6.843825   -3.459263    5.721210
    102          6           0       -7.328235   -1.564292    7.120805
    103          7           0       -6.001836   -2.720654    0.493570
    104          6           0       -5.926327   -3.439354    1.627462
    105          6           0       -5.693139   -4.901756    1.331852
    106          6           0       -5.869691   -5.053728   -0.250336
    107          6           0       -6.096345   -3.572167   -0.623136
    108          6           0       -4.330200   -5.455277    1.747081
    109          6           0       -6.898854   -6.106364   -0.745744
    110          6           0       -8.299106   -5.673059   -0.375705
    111          7           0       -6.635195   -0.827130   -1.639681
    112          6           0       -6.363917   -1.951741   -2.449460
    113          6           0       -6.347440   -1.485222   -3.851066
    114          6           0       -6.589385   -0.106410   -3.757090
    115          6           0       -6.725563    0.263969   -2.391892
    116          6           0       -6.082297   -2.292107   -4.993318
    117          6           0       -6.749983    1.121785   -4.501708
    118          8           0       -6.821466    1.410895   -5.695458
    119          6           0       -6.710086    2.340085   -3.481643
    120          6           0       -7.861258    3.253204   -3.803423
    121          8           0       -9.034267    2.869184   -3.651215
    122          8           0       -7.390411    4.493417   -4.028242
    123          6           0       -8.495896    5.437895   -4.340784
    124          1           0       -5.649852    2.548692    3.374115
    125          1           0       -6.094629   -3.678588    3.560294
    126          1           0       -6.061397   -3.923991   -2.714520
    127          1           0       -5.972234    4.367079   -1.204506
    128          1           0       -6.156237    4.372751    1.606763
    129          1           0       -3.932081    3.709689   -0.278363
    130          1           0       -3.858852    2.869551    1.284683
    131          1           0       -3.859575    4.607262    1.284834
    132          1           0       -8.334609    4.095893    0.669374
    133          1           0       -8.629155    3.952004   -1.101986
    134          1           0       -7.119952    6.323469   -0.648153
    135          1           0       -8.137816    6.172376    0.739645
    136          1           0       -6.258860    2.220355    5.364598
    137          1           0       -5.780137    0.941798    6.430107
    138          1           0       -7.521374    1.256701    6.241207
    139          1           0       -6.519649   -0.907940    7.433602
    140          1           0       -7.579954   -2.389767    7.789454
    141          1           0       -8.209380   -0.929902    6.973354
    142          1           0       -6.431324   -5.519239    1.828739
    143          1           0       -4.932343   -5.360460   -0.737318
    144          1           0       -4.401020   -6.318978    2.434889
    145          1           0       -3.760075   -4.654726    2.199401
    146          1           0       -3.686062   -5.761510    0.924579
    147          1           0       -6.729139   -7.064860   -0.249118
    148          1           0       -6.853321   -6.285090   -1.814848
    149          1           0       -8.396480   -6.011429    0.660211
    150          1           0       -9.032049   -6.155638   -1.019107
    151          1           0       -8.385677   -4.580286   -0.375062
    152          1           0       -6.806485   -2.012523   -5.746897
    153          1           0       -6.144643   -3.351792   -4.754677
    154          1           0       -5.058441   -1.981519   -5.218114
    155          1           0       -5.746924    2.837310   -3.602697
    156          1           0       -8.258767    5.899716   -5.304205
    157          1           0       -8.571406    6.109691   -3.465144
    158          1           0       -9.473340    5.015992   -4.543362
 ---------------------------------------------------------------------

 SCF Done:  E(RCAM-B3LYP) =  -4069.81190879     A.U. after   19 cycles

 Excitation energies and oscillator strengths:

 Excited State   1:      Singlet-A      1.6744 eV  740.46 nm  f=0.3556  <S**2>=0.000
     310 -> 316        0.17113
     311 -> 313        0.11302
     312 -> 314        0.67669
     310 <- 316        0.10324
 This state for optimization and/or second-order correction.
 Total Energy, E(TD-HF/TD-DFT) =  -4069.75037459
 Copying the excited state density for this state as the 1-particle RhoCI density.

 Excited State   2:      Singlet-A      1.6792 eV  738.37 nm  f=0.3758  <S**2>=0.000
     309 -> 315        0.17274
     311 -> 313        0.67630
     312 -> 314       -0.11288
     309 <- 315        0.10346

 Excited State   3:      Singlet-A      2.1855 eV  567.31 nm  f=0.0996  <S**2>=0.000
     310 -> 314        0.64013
     312 -> 316       -0.27168

 Excited State   4:      Singlet-A      2.1921 eV  565.60 nm  f=0.0992  <S**2>=0.000
     309 -> 313        0.63825
     311 -> 315       -0.27675

 Excited State   5:      Singlet-A      2.6503 eV  467.81 nm  f=0.0000  <S**2>=0.000
     312 -> 313        0.70710

 The electronic state is 1-A.
 Alpha  occ. eigenvalues --  -46.87854 -46.87557 -19.26321 -19.26314 -19.19120
 Alpha  occ. eigenvalues --  -19.19057 -19.18903 -19.18623 -19.18220 -19.17981
 Alpha  occ. eigenvalues --  -14.42502 -14.42399 -14.41509 -14.41247 -14.39463
 Alpha  occ. eigenvalues --  -14.39251 -14.38643 -14.38500 -10.39116 -10.39047
 Alpha  occ. eigenvalues --  -10.35537 -10.35301 -10.34439 -10.34160 -10.31744
 Alpha  occ. eigenvalues --  -10.31699 -10.31451 -10.31217 -10.30960 -10.30934
 Alpha  occ. eigenvalues --  -10.30623 -10.30569 -10.30296 -10.30271 -10.30265
 Alpha  occ. eigenvalues --  -10.30021 -10.29982 -10.29778 -10.29691 -10.29332
 Alpha  occ. eigenvalues --  -10.29315 -10.29306 -10.28777 -10.28653 -10.28619
 Alpha  occ. eigenvalues --  -10.28531 -10.28421 -10.28311 -10.28147 -10.28065
 Alpha  occ. eigenvalues --  -10.27906 -10.27850 -10.27778 -10.27647 -10.27571
 Alpha  occ. eigenvalues --  -10.27570 -10.27538 -10.27523 -10.27457 -10.27390
 Alpha  occ. eigenvalues --  -10.27380 -10.27371 -10.27365 -10.27221 -10.27202
 Alpha  occ. eigenvalues --  -10.26988 -10.26718 -10.26640 -10.26512 -10.26336
 Alpha  occ. eigenvalues --  -10.26262 -10.26261 -10.26078 -10.25998 -10.25948
 Alpha  occ. eigenvalues --  -10.25892 -10.25820 -10.25754 -10.25506 -10.25193
 Alpha  occ. eigenvalues --  -10.24889 -10.24850 -10.24780 -10.24776 -10.24611
 Alpha  occ. eigenvalues --  -10.24581  -3.16597  -3.16307  -1.91479  -1.91189
 Alpha  occ. eigenvalues --   -1.91065  -1.90908  -1.90778  -1.90615  -1.16664
 Alpha  occ. eigenvalues --   -1.16612  -1.08676  -1.08593  -1.07306  -1.06905
 Alpha  occ. eigenvalues --   -1.06876  -1.06678  -1.04633  -1.04400  -1.03819
 Alpha  occ. eigenvalues --   -1.03561  -1.03293  -1.02931  -1.02469  -1.02007
 Alpha  occ. eigenvalues --   -0.92024  -0.91899  -0.89585  -0.89378  -0.89220
 Alpha  occ. eigenvalues --   -0.89075  -0.88353  -0.88090  -0.87923  -0.87722
 Alpha  occ. eigenvalues --   -0.87698  -0.87586  -0.87341  -0.87028  -0.85021
 Alpha  occ. eigenvalues --   -0.84919  -0.84004  -0.83749  -0.83046  -0.82833
 Alpha  occ. eigenvalues --   -0.82696  -0.82571  -0.81628  -0.81529  -0.80648
 Alpha  occ. eigenvalues --   -0.80362  -0.78858  -0.78541  -0.77271  -0.77055
 Alpha  occ. eigenvalues --   -0.76974  -0.76811  -0.75964  -0.75763  -0.74959
 Alpha  occ. eigenvalues --   -0.74674  -0.72830  -0.72599  -0.71724  -0.71476
 Alpha  occ. eigenvalues --   -0.69978  -0.69627  -0.68917  -0.68746  -0.67699
 Alpha  occ. eigenvalues --   -0.67508  -0.67259  -0.67127  -0.65325  -0.65195
 Alpha  occ. eigenvalues --   -0.64906  -0.64677  -0.64670  -0.64570  -0.64332
 Alpha  occ. eigenvalues --   -0.64085  -0.62341  -0.62210  -0.60509  -0.60237
 Alpha  occ. eigenvalues --   -0.59845  -0.59715  -0.59042  -0.58893  -0.58559
 Alpha  occ. eigenvalues --   -0.58332  -0.57631  -0.57487  -0.57369  -0.57132
 Alpha  occ. eigenvalues --   -0.56365  -0.56116  -0.56015  -0.55826  -0.55582
 Alpha  occ. eigenvalues --   -0.55398  -0.55376  -0.55142  -0.54576  -0.54390
 Alpha  occ. eigenvalues --   -0.53928  -0.53838  -0.53361  -0.53272  -0.53132
 Alpha  occ. eigenvalues --   -0.53062  -0.52966  -0.52825  -0.52816  -0.52586
 Alpha  occ. eigenvalues --   -0.52511  -0.52279  -0.51967  -0.51791  -0.51659
 Alpha  occ. eigenvalues --   -0.51586  -0.51247  -0.51114  -0.50647  -0.50383
 Alpha  occ. eigenvalues --   -0.50098  -0.49982  -0.49891  -0.49740  -0.49566
 Alpha  occ. eigenvalues --   -0.49405  -0.49268  -0.49134  -0.49123  -0.49026
 Alpha  occ. eigenvalues --   -0.48638  -0.48532  -0.48506  -0.48482  -0.48264
 Alpha  occ. eigenvalues --   -0.48241  -0.47748  -0.47505  -0.47354  -0.47016
 Alpha  occ. eigenvalues --   -0.46851  -0.46609  -0.46591  -0.46473  -0.46416
 Alpha  occ. eigenvalues --   -0.46217  -0.46170  -0.45979  -0.45865  -0.45743
 Alpha  occ. eigenvalues --   -0.45266  -0.45076  -0.44627  -0.44567  -0.44435
 Alpha  occ. eigenvalues --   -0.44390  -0.44207  -0.44129  -0.44073  -0.44045
 Alpha  occ. eigenvalues --   -0.43976  -0.43861  -0.43540  -0.43483  -0.43435
 Alpha  occ. eigenvalues --   -0.43294  -0.43080  -0.42872  -0.42807  -0.42754
 Alpha  occ. eigenvalues --   -0.42706  -0.42436  -0.42066  -0.41864  -0.41757
 Alpha  occ. eigenvalues --   -0.41580  -0.41571  -0.41373  -0.41191  -0.40919
 Alpha  occ. eigenvalues --   -0.40893  -0.40891  -0.40639  -0.40631  -0.40613
 Alpha  occ. eigenvalues --   -0.40372  -0.40259  -0.40164  -0.39515  -0.39296
 Alpha  occ. eigenvalues --   -0.38529  -0.38225  -0.37778  -0.37584  -0.37381
 Alpha  occ. eigenvalues --   -0.37302  -0.37155  -0.37113  -0.36757  -0.36713
 Alpha  occ. eigenvalues --   -0.36242  -0.36114  -0.34341  -0.34154  -0.33812
 Alpha  occ. eigenvalues --   -0.33809  -0.33242  -0.33075  -0.31432  -0.31181
 Alpha  occ. eigenvalues --   -0.31092  -0.30874  -0.30078  -0.29887  -0.29513
 Alpha  occ. eigenvalues --   -0.29379  -0.29232  -0.29118  -0.24136  -0.23934
 Alpha  occ. eigenvalues --   -0.21184  -0.21015
 Alpha virt. eigenvalues --   -0.08833  -0.08694  -0.01811  -0.01578  -0.00124
 Alpha virt. eigenvalues --    0.00060   0.02143   0.02296   0.03054   0.03320
 Alpha virt. eigenvalues --    0.04676   0.04822   0.05060   0.05212   0.06159

 Mulliken charges:
               1
     1  Mg   0.838582
     2  C   -0.002930
     3  C   -0.093865
     4  C   -0.046124
     5  C   -0.063985
     6  N   -0.256808
     7  C   -0.052322
     8  C   -0.014026
     9  C   -0.087026
    10  C    0.046322
    11  C    0.104768
    12  C    0.053384
    13  C   -0.072101
    14  H    0.036738
    15  N   -0.433107
    16  C    0.168286
    17  C   -0.177111
    18  C   -0.004256
    19  C    0.148616
    20  C    0.110122
    21  C    0.011866
    22  O   -0.250090
    23  C    0.062636
    24  N   -0.341117
    25  C    0.041273
    26  C   -0.028105
    27  C   -0.023988
    28  C    0.074814
    29  C    0.076175
    30  C    0.035176
    31  C   -0.004493
    32  N   -0.310486
    33  C    0.080454
    34  C   -0.169670
    35  C    0.008412
    36  C    0.082987
    37  C    0.127310
    38  C    0.046121
    39  O   -0.188290
    40  C   -0.005296
    41  C    0.212917
    42  O   -0.257216
    43  O   -0.304735
    44  C    0.157693
    45  H   -0.017397
    46  H   -0.017145
    47  H   -0.041422
    48  H    0.001061
    49  H   -0.003730
    50  H    0.025501
    51  H    0.016353
    52  H    0.016877
    53  H    0.011349
    54  H    0.044055
    55  H    0.017854
    56  H    0.018287
    57  H    0.006220
    58  H    0.026833
    59  H    0.039438
    60  H    0.037707
    61  H    0.035067
    62  H    0.031180
    63  H    0.016079
    64  H    0.009597
    65  H    0.022987
    66  H    0.012672
    67  H    0.004880
    68  H    0.006195
    69  H    0.005008
    70  H    0.008099
    71  H    0.018321
    72  H    0.029063
    73  H    0.047627
    74  H    0.009172
    75  H    0.046134
    76  H    0.035312
    77  H    0.043014
    78  H    0.046698
    79  H    0.053546
    80  Mg   0.838104
    81  C   -0.017005
    82  C   -0.087901
    83  C   -0.045353
    84  C   -0.064080
    85  N   -0.254580
    86  C   -0.049897
    87  C   -0.015092
    88  C   -0.090507
    89  C    0.045766
    90  C    0.114346
    91  C    0.062588
    92  C   -0.077698
    93  H    0.034524
    94  N   -0.423518
    95  C    0.162994
    96  C   -0.174614
    97  C   -0.007784
    98  C    0.152209
    99  C    0.099366
   100  C    0.015490
   101  O   -0.253049
   102  C    0.061245
   103  N   -0.349997
   104  C    0.037910
   105  C   -0.020136
   106  C   -0.034907
   107  C    0.088935
   108  C    0.073159
   109  C    0.034668
   110  C   -0.007634
   111  N   -0.324101
   112  C    0.078393
   113  C   -0.162949
   114  C    0.002029
   115  C    0.096317
   116  C    0.131514
   117  C    0.042224
   118  O   -0.188574
   119  C    0.000981
   120  C    0.211160
   121  O   -0.250994
   122  O   -0.305799
   123  C    0.152115
   124  H   -0.019635
   125  H   -0.015380
   126  H   -0.040125
   127  H   -0.001180
   128  H   -0.004485
   129  H    0.021978
   130  H    0.015075
   131  H    0.016200
   132  H    0.013982
   133  H    0.037582
   134  H    0.020447
   135  H    0.019616
   136  H    0.008752
   137  H    0.026144
   138  H    0.039569
   139  H    0.038179
   140  H    0.036250
   141  H    0.033757
   142  H    0.014140
   143  H    0.013705
   144  H    0.025018
   145  H    0.012090
   146  H    0.007509
   147  H    0.006542
   148  H    0.003668
   149  H    0.010847
   150  H    0.017643
   151  H    0.029819
   152  H    0.045545
   153  H    0.008732
   154  H    0.047180
   155  H    0.034513
   156  H    0.043467
   157  H    0.049428
   158  H    0.053562
 Sum of Mulliken charges =  -0.00000

 Dipole moment (field-independent basis, Debye):
    X=              3.4850    Y=              5.6246    Z=              1.3880  Tot=              6.7607
 Quadrupole moment (field-independent basis, Debye-Ang):
   XX=           -519.6977   YY=           -503.2791   ZZ=           -495.4384
   XY=              9.4574   XZ=            -42.8929   YZ=              3.0253

 Normal termination of Gaussian 16 at Sat Sep 11 10:59:59 2021.
