 Gaussian 16, Revision A.03,
 Gaussian 16:  ES64L-G16RevA.03 25-Dec-2016

 -----------------------------------
 #p cam-b3lyp/Def2SVP td=(nstates=5)
 -----------------------------------

 --------------------------------
 TDDFT excited states in gaussian
 --------------------------------
 Symbolic Z-matrix:
 Charge =  0 Multiplicity = 1

                         Standard orientation:
 ---------------------------------------------------------------------
 Center     Atomic      Atomic             Coordinates (Angstroms)
 Number     Number       Type             X           Y           Z
 ---------------------------------------------------------------------
      1         12           0        6.472501   -0.584903    0.425167
      2          6           0        6.898047    2.454075   -1.417585
      3          6           0        7.482502    1.129264    3.197277
      4          6           0        6.541939   -3.349958    1.976384
      5          6           0        6.603219   -2.276075   -2.619256
      6          7           0        7.083988    1.521465    0.725070
      7          6           0        7.146291    2.599080   -0.050840
      8          6           0        7.426555    3.913037    0.738047
      9          6           0        8.137496    3.289255    2.021580
     10          6           0        7.504944    1.908875    2.002817
     11          6           0        9.647749    3.139597    1.869140
     12          6           0        6.109773    4.667950    1.122653
     13          6           0        6.299579    6.109948    1.602204
     14          1           0        5.294050    7.102121    1.253129
     15          7           0        6.467533   -0.967032    2.363415
     16          6           0        6.900569   -0.147621    3.351510
     17          6           0        6.687983   -0.885394    4.615305
     18          6           0        6.272955   -2.272896    4.267911
     19          6           0        6.438357   -2.259582    2.836882
     20          6           0        6.831750   -0.258600    5.968158
     21          6           0        5.812040   -3.430792    5.095539
     22          8           0        5.723824   -4.614316    4.620079
     23          6           0        5.547638   -3.156460    6.519574
     24          7           0        6.779480   -2.554141   -0.195722
     25          6           0        6.700087   -3.570867    0.669696
     26          6           0        6.672395   -4.891669   -0.040695
     27          6           0        6.503984   -4.555487   -1.592589
     28          6           0        6.548824   -3.009955   -1.505466
     29          6           0        7.905475   -5.784043    0.157278
     30          6           0        5.313897   -5.218414   -2.330586
     31          6           0        4.009734   -4.661361   -1.805278
     32          7           0        6.529727   -0.031752   -1.672878
     33          6           0        6.604252   -0.899642   -2.771917
     34          6           0        6.728835   -0.060127   -3.977638
     35          6           0        6.734845    1.245876   -3.491668
     36          6           0        6.647646    1.222762   -2.070347
     37          6           0        6.877061   -0.533651   -5.311143
     38          6           0        6.819455    2.654722   -3.840740
     39          8           0        6.815102    3.288094   -4.897298
     40          6           0        7.051226    3.489022   -2.504307
     41          6           0        6.087096    4.643844   -2.516461
     42          8           0        4.857146    4.451312   -2.429743
     43          8           0        6.768167    5.792926   -2.388809
     44          6           0        5.868063    6.976712   -2.363965
     45          1           0        8.007781    1.500141    4.079589
     46          1           0        6.458337   -4.323940    2.463012
     47          1           0        6.563886   -2.730921   -3.610730
     48          1           0        8.102428    4.607546    0.238771
     49          1           0        7.865616    3.818289    2.934776
     50          1           0        9.970088    3.366944    0.853103
     51          1           0        9.863220    2.099132    2.113062
     52          1           0       10.173397    3.737124    2.614414
     53          1           0        5.692627    4.225062    2.027032
     54          1           0        5.400946    4.653942    0.293983
     55          1           0        7.298322    6.479613    1.368175
     56          1           0        6.256784    6.116090    2.691392
     57          1           0        7.306271    0.720035    5.907752
     58          1           0        7.539287   -0.869423    6.528511
     59          1           0        5.882461   -0.212504    6.502064
     60          1           0        6.455646   -2.775219    6.987257
     61          1           0        5.142037   -4.079058    6.933277
     62          1           0        4.806749   -2.359916    6.594070
     63          1           0        5.827014   -5.494797    0.287928
     64          1           0        7.376930   -4.854996   -2.173048
     65          1           0        7.672209   -6.770395    0.559025
     66          1           0        8.604817   -5.254045    0.803275
     67          1           0        8.508802   -5.935082   -0.737485
     68          1           0        5.302505   -6.291741   -2.144078
     69          1           0        5.340192   -5.069643   -3.410135
     70          1           0        3.829485   -5.262336   -0.914676
     71          1           0        3.214055   -4.800653   -2.537878
     72          1           0        4.120311   -3.625875   -1.482745
     73          1           0        6.221204    0.080881   -5.927723
     74          1           0        6.617943   -1.589409   -5.387543
     75          1           0        7.939359   -0.351631   -5.473151
     76          1           0        8.088656    3.821680   -2.518384
     77          1           0        6.197398    7.647071   -3.157937
     78          1           0        5.883648    7.356447   -1.342219
     79          1           0        4.832856    6.801405   -2.658842
     80         12           0       -6.711723    0.390088    0.451626
     81          6           0       -6.170330   -1.515914   -2.540557
     82          6           0       -6.945159   -2.575748    2.120129
     83          6           0       -7.635349    2.017943    3.013730
     84          6           0       -7.565151    3.085668   -1.585824
     85          7           0       -6.559072   -1.708032   -0.231652
     86          6           0       -6.290060   -2.309485   -1.380664
     87          6           0       -6.061437   -3.840634   -1.267077
     88          6           0       -6.884924   -4.107026    0.085607
     89          6           0       -6.764070   -2.723788    0.721779
     90          6           0       -8.357620   -4.395830   -0.153353
     91          6           0       -4.545262   -4.207687   -1.098278
     92          6           0       -4.217114   -5.689902   -1.290930
     93          1           0       -2.946363   -6.045902   -1.916173
     94          7           0       -6.736190   -0.133323    2.365786
     95          6           0       -6.811215   -1.384338    2.866409
     96          6           0       -6.817404   -1.232428    4.329641
     97          6           0       -6.906157    0.218102    4.650273
     98          6           0       -7.121690    0.767896    3.326880
     99          6           0       -6.663539   -2.393272    5.268888
    100          6           0       -6.824922    0.982611    5.936789
    101          8           0       -7.166394    2.215851    6.009918
    102          6           0       -6.422828    0.220499    7.128011
    103          7           0       -7.689920    2.209133    0.689341
    104          6           0       -7.923659    2.713582    1.913603
    105          6           0       -8.386417    4.148772    1.832995
    106          6           0       -8.182238    4.580939    0.306844
    107          6           0       -7.699300    3.234259   -0.275061
    108          6           0       -9.836157    4.404383    2.244448
    109          6           0       -7.325820    5.849688    0.043219
    110          6           0       -5.886848    5.589951    0.426973
    111          7           0       -6.675937    0.810748   -1.667299
    112          6           0       -7.101985    1.994135   -2.309302
    113          6           0       -6.991450    1.764050   -3.764388
    114          6           0       -6.526916    0.444305   -3.869220
    115          6           0       -6.378975   -0.115828   -2.571581
    116          6           0       -7.346931    2.692772   -4.782831
    117          6           0       -6.138188   -0.605879   -4.782838
    118          8           0       -5.977782   -0.682879   -6.000241
    119          6           0       -6.010575   -1.963931   -3.966870
    120          6           0       -4.712960   -2.618520   -4.354476
    121          8           0       -3.626262   -2.082997   -4.073583
    122          8           0       -4.962720   -3.864769   -4.795897
    123          6           0       -3.705228   -4.558641   -5.182006
    124          1           0       -7.261072   -3.445216    2.697298
    125          1           0       -7.865391    2.660390    3.866857
    126          1           0       -7.718938    3.909953   -2.285531
    127          1           0       -6.480275   -4.423881   -2.078350
    128          1           0       -6.396595   -4.855323    0.704440
    129          1           0       -8.632578   -4.257277   -1.188411
    130          1           0       -8.899330   -3.703665    0.477918
    131          1           0       -8.609503   -5.396059    0.210567
    132          1           0       -4.263136   -4.088247   -0.044290
    133          1           0       -3.934702   -3.614604   -1.751030
    134          1           0       -5.043272   -6.237291   -1.760789
    135          1           0       -4.114038   -6.153277   -0.306712
    136          1           0       -6.785349   -3.351014    4.748040
    137          1           0       -7.507197   -2.354196    5.966436
    138          1           0       -5.732292   -2.354015    5.838036
    139          1           0       -7.121408   -0.597723    7.286035
    140          1           0       -6.335568    0.956185    7.929900
    141          1           0       -5.443795   -0.233688    6.938749
    142          1           0       -7.779137    4.786880    2.463186
    143          1           0       -9.139884    4.809766   -0.183442
    144          1           0       -9.934190    5.145491    3.060069
    145          1           0      -10.280643    3.460972    2.532438
    146          1           0      -10.493023    4.733581    1.441104
    147          1           0       -7.669962    6.675898    0.670197
    148          1           0       -7.362946    6.189593   -0.986379
    149          1           0       -5.883509    5.767262    1.506618
    150          1           0       -5.222314    6.280421   -0.088467
    151          1           0       -5.619740    4.539250    0.264643
    152          1           0       -6.560336    2.657372   -5.524803
    153          1           0       -7.470174    3.696129   -4.380521
    154          1           0       -8.296314    2.264178   -5.114879
    155          1           0       -6.872738   -2.581456   -4.221651
    156          1           0       -3.828276   -4.890102   -6.217702
    157          1           0       -3.549749   -5.342725   -4.417291
    158          1           0       -2.805111   -3.959815   -5.257124
 ---------------------------------------------------------------------

 SCF Done:  E(RCAM-B3LYP) =  -4069.81146120     A.U. after   19 cycles

 Excitation energies and oscillator strengths:

 Excited State   1:      Singlet-A      1.6653 eV  744.50 nm  f=0.0088  <S**2>=0.000
     309 -> 315        0.11057
     310 -> 316       -0.13062
     311 -> 313        0.52508
     312 -> 314        0.44243
 This state for optimization and/or second-order correction.
 Total Energy, E(TD-HF/TD-DFT) =  -4069.75026107
 Copying the excited state density for this state as the 1-particle RhoCI density.

 Excited State   2:      Singlet-A      1.6890 eV  734.06 nm  f=0.7358  <S**2>=0.000
     309 -> 315        0.13584
     310 -> 316        0.11392
     311 -> 313       -0.44154
     312 -> 314        0.52388

 Excited State   3:      Singlet-A      2.1846 eV  567.54 nm  f=0.0435  <S**2>=0.000
     309 -> 314        0.21006
     310 -> 313        0.60776
     311 -> 316        0.25714

 Excited State   4:      Singlet-A      2.1923 eV  565.55 nm  f=0.1469  <S**2>=0.000
     309 -> 314        0.60548
     310 -> 313       -0.20857
     312 -> 315       -0.26325

 Excited State   5:      Singlet-A      2.7072 eV  457.98 nm  f=0.0000  <S**2>=0.000
     312 -> 313        0.70710

 The electronic state is 1-A.
 Alpha  occ. eigenvalues --  -46.87672 -46.87562 -19.26243 -19.26125 -19.19037
 Alpha  occ. eigenvalues --  -19.18848 -19.18741 -19.18650 -19.18026 -19.17942
 Alpha  occ. eigenvalues --  -14.42403 -14.42328 -14.41332 -14.41265 -14.39284
 Alpha  occ. eigenvalues --  -14.39258 -14.38498 -14.38455 -10.38970 -10.38913
 Alpha  occ. eigenvalues --  -10.35378 -10.35330 -10.34245 -10.34119 -10.31666
 Alpha  occ. eigenvalues --  -10.31524 -10.31274 -10.31208 -10.30934 -10.30793
 Alpha  occ. eigenvalues --  -10.30439 -10.30385 -10.30301 -10.30258 -10.30103
 Alpha  occ. eigenvalues --  -10.30055 -10.29801 -10.29798 -10.29510 -10.29347
 Alpha  occ. eigenvalues --  -10.29306 -10.29141 -10.28628 -10.28625 -10.28568
 Alpha  occ. eigenvalues --  -10.28410 -10.28309 -10.28242 -10.28051 -10.27997
 Alpha  occ. eigenvalues --  -10.27904 -10.27668 -10.27607 -10.27576 -10.27471
 Alpha  occ. eigenvalues --  -10.27433 -10.27407 -10.27393 -10.27392 -10.27388
 Alpha  occ. eigenvalues --  -10.27376 -10.27362 -10.27296 -10.27279 -10.27017
 Alpha  occ. eigenvalues --  -10.26946 -10.26593 -10.26570 -10.26377 -10.26370
 Alpha  occ. eigenvalues --  -10.26125 -10.26091 -10.26044 -10.25946 -10.25900
 Alpha  occ. eigenvalues --  -10.25838 -10.25733 -10.25688 -10.25365 -10.25333
 Alpha  occ. eigenvalues --  -10.24772 -10.24702 -10.24675 -10.24622 -10.24598
 Alpha  occ. eigenvalues --  -10.24576  -3.16414  -3.16312  -1.91296  -1.91194
 Alpha  occ. eigenvalues --   -1.90882  -1.90783  -1.90724  -1.90619  -1.16533
 Alpha  occ. eigenvalues --   -1.16472  -1.08547  -1.08479  -1.07146  -1.06904
 Alpha  occ. eigenvalues --   -1.06824  -1.06473  -1.04458  -1.04400  -1.03643
 Alpha  occ. eigenvalues --   -1.03569  -1.03112  -1.02943  -1.02289  -1.02015
 Alpha  occ. eigenvalues --   -0.91888  -0.91843  -0.89409  -0.89401  -0.89065
 Alpha  occ. eigenvalues --   -0.89060  -0.88183  -0.88131  -0.87735  -0.87689
 Alpha  occ. eigenvalues --   -0.87590  -0.87553  -0.87176  -0.87042  -0.84909
 Alpha  occ. eigenvalues --   -0.84863  -0.83831  -0.83786  -0.82888  -0.82863
 Alpha  occ. eigenvalues --   -0.82567  -0.82534  -0.81499  -0.81450  -0.80474
 Alpha  occ. eigenvalues --   -0.80350  -0.78686  -0.78547  -0.77102  -0.77053
 Alpha  occ. eigenvalues --   -0.76811  -0.76807  -0.75797  -0.75747  -0.74793
 Alpha  occ. eigenvalues --   -0.74717  -0.72652  -0.72602  -0.71557  -0.71491
 Alpha  occ. eigenvalues --   -0.69803  -0.69665  -0.68756  -0.68738  -0.67525
 Alpha  occ. eigenvalues --   -0.67510  -0.67114  -0.67105  -0.65177  -0.65161
 Alpha  occ. eigenvalues --   -0.64729  -0.64675  -0.64560  -0.64500  -0.64159
 Alpha  occ. eigenvalues --   -0.64112  -0.62179  -0.62159  -0.60341  -0.60257
 Alpha  occ. eigenvalues --   -0.59703  -0.59682  -0.58898  -0.58867  -0.58382
 Alpha  occ. eigenvalues --   -0.58330  -0.57448  -0.57443  -0.57194  -0.57146
 Alpha  occ. eigenvalues --   -0.56190  -0.56110  -0.55839  -0.55791  -0.55414
 Alpha  occ. eigenvalues --   -0.55368  -0.55222  -0.55153  -0.54396  -0.54391
 Alpha  occ. eigenvalues --   -0.53821  -0.53772  -0.53192  -0.53140  -0.53107
 Alpha  occ. eigenvalues --   -0.53052  -0.52805  -0.52788  -0.52660  -0.52597
 Alpha  occ. eigenvalues --   -0.52332  -0.52305  -0.51774  -0.51770  -0.51571
 Alpha  occ. eigenvalues --   -0.51499  -0.51103  -0.51069  -0.50494  -0.50407
 Alpha  occ. eigenvalues --   -0.49932  -0.49896  -0.49823  -0.49783  -0.49407
 Alpha  occ. eigenvalues --   -0.49405  -0.49110  -0.49093  -0.49011  -0.48975
 Alpha  occ. eigenvalues --   -0.48464  -0.48462  -0.48369  -0.48332  -0.48289
 Alpha  occ. eigenvalues --   -0.48261  -0.47584  -0.47508  -0.47189  -0.47034
 Alpha  occ. eigenvalues --   -0.46679  -0.46615  -0.46465  -0.46435  -0.46240
 Alpha  occ. eigenvalues --   -0.46177  -0.46037  -0.45989  -0.45721  -0.45682
 Alpha  occ. eigenvalues --   -0.45123  -0.45099  -0.44449  -0.44421  -0.44403
 Alpha  occ. eigenvalues --   -0.44385  -0.44039  -0.44034  -0.43987  -0.43975
 Alpha  occ. eigenvalues --   -0.43897  -0.43855  -0.43456  -0.43359  -0.43294
 Alpha  occ. eigenvalues --   -0.43272  -0.42906  -0.42833  -0.42800  -0.42578
 Alpha  occ. eigenvalues --   -0.42520  -0.42464  -0.41891  -0.41868  -0.41581
 Alpha  occ. eigenvalues --   -0.41571  -0.41415  -0.41368  -0.41026  -0.40900
 Alpha  occ. eigenvalues --   -0.40761  -0.40734  -0.40648  -0.40612  -0.40463
 Alpha  occ. eigenvalues --   -0.40403  -0.40140  -0.40113  -0.39338  -0.39332
 Alpha  occ. eigenvalues --   -0.38365  -0.38263  -0.37623  -0.37562  -0.37211
 Alpha  occ. eigenvalues --   -0.37174  -0.37138  -0.37105  -0.36663  -0.36570
 Alpha  occ. eigenvalues --   -0.36120  -0.36062  -0.34162  -0.34155  -0.33742
 Alpha  occ. eigenvalues --   -0.33607  -0.33078  -0.33061  -0.31271  -0.31208
 Alpha  occ. eigenvalues --   -0.30916  -0.30880  -0.29883  -0.29845  -0.29336
 Alpha  occ. eigenvalues --   -0.29237  -0.29190  -0.29109  -0.23957  -0.23939
 Alpha  occ. eigenvalues --   -0.21022  -0.21007
 Alpha virt. eigenvalues --   -0.08698  -0.08655  -0.01635  -0.01592   0.00046
 Alpha virt. eigenvalues --    0.00054   0.02308   0.02331   0.03285   0.03354
 Alpha virt. eigenvalues --    0.04821   0.04839   0.05259   0.05282   0.06268

 Mulliken charges:
               1
     1  Mg   0.839517
     2  C   -0.002669
     3  C   -0.094102
     4  C   -0.046075
     5  C   -0.063761
     6  N   -0.256726
     7  C   -0.052298
     8  C   -0.014060
     9  C   -0.087009
    10  C    0.046267
    11  C    0.104893
    12  C    0.053480
    13  C   -0.071752
    14  H    0.036294
    15  N   -0.432976
    16  C    0.168247
    17  C   -0.177375
    18  C   -0.004381
    19  C    0.148650
    20  C    0.110239
    21  C    0.011914
    22  O   -0.250344
    23  C    0.062649
    24  N   -0.341165
    25  C    0.041198
    26  C   -0.027981
    27  C   -0.023980
    28  C    0.075029
    29  C    0.076313
    30  C    0.035123
    31  C   -0.004281
    32  N   -0.310721
    33  C    0.081049
    34  C   -0.168801
    35  C    0.008615
    36  C    0.083631
    37  C    0.127109
    38  C    0.046764
    39  O   -0.187886
    40  C   -0.005596
    41  C    0.212803
    42  O   -0.256108
    43  O   -0.305044
    44  C    0.157617
    45  H   -0.017903
    46  H   -0.017439
    47  H   -0.041367
    48  H    0.000877
    49  H   -0.004145
    50  H    0.025397
    51  H    0.016286
    52  H    0.016414
    53  H    0.011268
    54  H    0.044640
    55  H    0.017649
    56  H    0.017785
    57  H    0.005851
    58  H    0.026408
    59  H    0.039129
    60  H    0.037377
    61  H    0.034765
    62  H    0.031248
    63  H    0.016007
    64  H    0.009277
    65  H    0.022629
    66  H    0.012506
    67  H    0.004589
    68  H    0.005486
    69  H    0.004943
    70  H    0.007713
    71  H    0.018456
    72  H    0.030217
    73  H    0.048691
    74  H    0.009238
    75  H    0.045687
    76  H    0.034913
    77  H    0.042785
    78  H    0.046135
    79  H    0.054180
    80  Mg   0.838390
    81  C   -0.016572
    82  C   -0.087759
    83  C   -0.045624
    84  C   -0.064827
    85  N   -0.254514
    86  C   -0.049742
    87  C   -0.015122
    88  C   -0.090538
    89  C    0.045745
    90  C    0.114428
    91  C    0.062462
    92  C   -0.077644
    93  H    0.034484
    94  N   -0.423382
    95  C    0.162834
    96  C   -0.174798
    97  C   -0.008079
    98  C    0.152087
    99  C    0.099445
   100  C    0.015333
   101  O   -0.253572
   102  C    0.061313
   103  N   -0.350106
   104  C    0.037492
   105  C   -0.019739
   106  C   -0.034855
   107  C    0.089101
   108  C    0.073776
   109  C    0.034738
   110  C   -0.007670
   111  N   -0.324285
   112  C    0.078884
   113  C   -0.162530
   114  C    0.002420
   115  C    0.096696
   116  C    0.131327
   117  C    0.042950
   118  O   -0.187479
   119  C    0.000653
   120  C    0.211204
   121  O   -0.250038
   122  O   -0.305835
   123  C    0.152061
   124  H   -0.019883
   125  H   -0.015919
   126  H   -0.040310
   127  H   -0.000791
   128  H   -0.004339
   129  H    0.022353
   130  H    0.014313
   131  H    0.016074
   132  H    0.014213
   133  H    0.038086
   134  H    0.020524
   135  H    0.019714
   136  H    0.008782
   137  H    0.025796
   138  H    0.039514
   139  H    0.038224
   140  H    0.035816
   141  H    0.033662
   142  H    0.014198
   143  H    0.012257
   144  H    0.024806
   145  H    0.011516
   146  H    0.005530
   147  H    0.005860
   148  H    0.003841
   149  H    0.010426
   150  H    0.018452
   151  H    0.030666
   152  H    0.046830
   153  H    0.008643
   154  H    0.046662
   155  H    0.034774
   156  H    0.043673
   157  H    0.049075
   158  H    0.053852
 Sum of Mulliken charges =  -0.00000

 Dipole moment (field-independent basis, Debye):
    X=              0.5861    Y=             -2.2015    Z=              6.8129  Tot=              7.1837
 Quadrupole moment (field-independent basis, Debye-Ang):
   XX=           -470.7549   YY=           -465.3065   ZZ=           -534.8216
   XY=             19.4980   XZ=             16.7153   YZ=             19.1494

 Normal termination of Gaussian 16 at Sat Sep 11 07:50:43 2021.
