 Gaussian 16, Revision A.03,
 Gaussian 16:  ES64L-G16RevA.03 25-Dec-2016

 -----------------------------------
 #p cam-b3lyp/Def2SVP td=(nstates=5)
 -----------------------------------

 --------------------------------
 TDDFT excited states in gaussian
 --------------------------------
 Symbolic Z-matrix:
 Charge =  0 Multiplicity = 1

                         Standard orientation:
 ---------------------------------------------------------------------
 Center     Atomic      Atomic             Coordinates (Angstroms)
 Number     Number       Type             X           Y           Z
 ---------------------------------------------------------------------
      1         12           0       -5.034612   -1.335647    0.112492
      2          6           0       -6.144575    2.064014    0.262510
      3          6           0       -6.004473   -1.351806   -3.158925
      4          6           0       -4.486094   -4.458879    0.078248
      5          6           0       -5.216691   -1.393835    3.592309
      6          7           0       -5.944168    0.220957   -1.172163
      7          6           0       -6.264086    1.501012   -1.010043
      8          6           0       -6.667272    2.209980   -2.337514
      9          6           0       -7.124683    0.933295   -3.175874
     10          6           0       -6.282059   -0.124977   -2.485969
     11          6           0       -8.598074    0.582198   -2.996007
     12          6           0       -5.456902    2.936570   -3.014865
     13          6           0       -5.825557    3.918291   -4.130961
     14          1           0       -5.038198    5.132369   -4.284025
     15          7           0       -4.758453   -2.571385   -1.403930
     16          6           0       -5.209636   -2.411674   -2.671295
     17          6           0       -4.744870   -3.597946   -3.421915
     18          6           0       -4.149907   -4.550791   -2.444061
     19          6           0       -4.468756   -3.901590   -1.198167
     20          6           0       -4.841677   -3.718818   -4.911804
     21          6           0       -3.420409   -5.846812   -2.606221
     22          8           0       -3.192941   -6.627369   -1.619528
     23          6           0       -3.051945   -6.225538   -3.982390
     24          7           0       -5.082805   -2.802240    1.597220
     25          6           0       -4.746357   -4.068384    1.327657
     26          6           0       -4.581308   -4.869071    2.585274
     27          6           0       -4.638251   -3.820105    3.787847
     28          6           0       -4.923901   -2.537271    2.968694
     29          6           0       -5.624370   -5.970599    2.819083
     30          6           0       -3.442983   -3.814895    4.773608
     31          6           0       -2.197661   -3.327186    4.067627
     32          7           0       -5.407056    0.112169    1.686074
     33          6           0       -5.457787   -0.136020    3.065387
     34          6           0       -5.846499    1.127874    3.717723
     35          6           0       -6.012102    2.025067    2.664411
     36          6           0       -5.769410    1.356767    1.430407
     37          6           0       -6.058888    1.315082    5.112097
     38          6           0       -6.361635    3.386525    2.292772
     39          8           0       -6.574300    4.427942    2.915441
     40          6           0       -6.580238    3.435121    0.716168
     41          6           0       -5.823540    4.623656    0.188815
     42          8           0       -4.576573    4.656068    0.226102
     43          8           0       -6.664423    5.422138   -0.486375
     44          6           0       -5.971232    6.605882   -1.061172
     45          1           0       -6.484679   -1.547160   -4.119748
     46          1           0       -4.193347   -5.510047    0.120456
     47          1           0       -5.211239   -1.314187    4.680922
     48          1           0       -7.496879    2.911072   -2.244532
     49          1           0       -6.845400    1.014710   -4.226157
     50          1           0       -9.060824    1.191158   -2.219507
     51          1           0       -8.614054   -0.470781   -2.714099
     52          1           0       -9.130254    0.646304   -3.945456
     53          1           0       -4.878204    2.212490   -3.588345
     54          1           0       -4.848857    3.450117   -2.269294
     55          1           0       -6.890432    4.152455   -4.120155
     56          1           0       -5.667018    3.422054   -5.088465
     57          1           0       -5.472586   -2.939108   -5.336716
     58          1           0       -5.375914   -4.645152   -5.122054
     59          1           0       -3.860479   -3.744556   -5.386060
     60          1           0       -3.953968   -6.292235   -4.591042
     61          1           0       -2.459602   -7.135711   -3.895415
     62          1           0       -2.446644   -5.429794   -4.417534
     63          1           0       -3.618712   -5.378570    2.600976
     64          1           0       -5.508430   -3.976199    4.425889
     65          1           0       -5.191986   -6.963620    2.944220
     66          1           0       -6.326654   -5.951985    1.986171
     67          1           0       -6.288152   -5.799192    3.666096
     68          1           0       -3.237315   -4.825249    5.125506
     69          1           0       -3.609465   -3.186422    5.648569
     70          1           0       -1.827115   -4.227123    3.578097
     71          1           0       -1.473709   -2.949735    4.790563
     72          1           0       -2.439518   -2.607005    3.285751
     73          1           0       -5.582010    2.260892    5.369002
     74          1           0       -5.641483    0.491073    5.690358
     75          1           0       -7.147841    1.341425    5.148741
     76          1           0       -7.653305    3.526908    0.551172
     77          1           0       -6.488842    7.491433   -0.692236
     78          1           0       -5.937922    6.451929   -2.139872
     79          1           0       -4.959255    6.793929   -0.700783
     80         12           0        5.199655    1.381239   -0.094293
     81          6           0        5.913279   -2.126643   -0.348346
     82          6           0        4.502419    0.848439    3.201854
     83          6           0        4.133289    4.365608    0.060163
     84          6           0        4.840889    1.417740   -3.560657
     85          7           0        5.239835   -0.447079    1.149851
     86          6           0        5.586190   -1.711227    0.959270
     87          6           0        5.659431   -2.560611    2.256478
     88          6           0        4.661760   -1.693454    3.168362
     89          6           0        4.832459   -0.334242    2.493033
     90          6           0        3.207236   -2.113229    3.036037
     91          6           0        7.105447   -2.599923    2.864342
     92          6           0        7.317571   -3.655833    3.951451
     93          1           0        8.615291   -4.320564    4.032340
     94          7           0        4.902673    2.559305    1.474951
     95          6           0        4.655639    2.175936    2.745102
     96          6           0        4.491278    3.418308    3.515593
     97          6           0        4.497945    4.563798    2.565586
     98          6           0        4.490535    3.857077    1.300447
     99          6           0        4.427237    3.443354    5.015161
    100          6           0        4.496619    6.049468    2.763048
    101          8           0        4.262687    6.857099    1.795657
    102          6           0        4.684724    6.527917    4.140430
    103          7           0        4.370094    2.657177   -1.510678
    104          6           0        4.040924    3.921692   -1.193529
    105          6           0        3.723545    4.729109   -2.429541
    106          6           0        4.144296    3.805748   -3.665647
    107          6           0        4.567617    2.533714   -2.898763
    108          6           0        2.264833    5.157426   -2.587915
    109          6           0        5.137761    4.414564   -4.692796
    110          6           0        6.491936    4.607560   -4.049094
    111          7           0        5.522560   -0.020684   -1.706248
    112          6           0        5.284553    0.191648   -3.081869
    113          6           0        5.544015   -1.088879   -3.771339
    114          6           0        5.895490   -1.970405   -2.737962
    115          6           0        5.838154   -1.292758   -1.490164
    116          6           0        5.396861   -1.326974   -5.166963
    117          6           0        6.291663   -3.322907   -2.417835
    118          8           0        6.586440   -4.320366   -3.075047
    119          6           0        6.198192   -3.517560   -0.843115
    120          6           0        7.467316   -4.179420   -0.380755
    121          8           0        8.557678   -3.588205   -0.471171
    122          8           0        7.158722   -5.305721    0.287516
    123          6           0        8.384422   -5.992169    0.775662
    124          1           0        4.042944    0.752342    4.185995
    125          1           0        3.863995    5.424243    0.044393
    126          1           0        4.846187    1.372619   -4.651803
    127          1           0        5.287518   -3.573407    2.157901
    128          1           0        5.003709   -1.652637    4.199265
    129          1           0        3.069692   -2.850085    2.258684
    130          1           0        2.660366   -1.209340    2.801574
    131          1           0        2.824241   -2.455261    4.001776
    132          1           0        7.271358   -1.688402    3.452860
    133          1           0        7.840007   -2.723352    2.092452
    134          1           0        6.505999   -4.393255    3.973782
    135          1           0        7.261545   -3.166018    4.926619
    136          1           0        4.280775    2.437764    5.428381
    137          1           0        3.514479    3.984396    5.287231
    138          1           0        5.284760    3.948294    5.465004
    139          1           0        3.900800    6.120564    4.774450
    140          1           0        4.743733    7.615550    4.066497
    141          1           0        5.633754    6.134101    4.521051
    142          1           0        4.308083    5.640524   -2.456743
    143          1           0        3.275809    3.527532   -4.280592
    144          1           0        2.139478    6.252432   -2.684465
    145          1           0        1.705475    4.783908   -1.740487
    146          1           0        1.739735    4.706465   -3.428223
    147          1           0        4.798982    5.405174   -5.006000
    148          1           0        5.253105    3.815181   -5.589692
    149          1           0        6.384427    5.564865   -3.530358
    150          1           0        7.272597    4.654118   -4.805698
    151          1           0        6.679446    3.840097   -3.289168
    152          1           0        6.258738   -1.902695   -5.477163
    153          1           0        5.319087   -0.395147   -5.723225
    154          1           0        4.458055   -1.887224   -5.171324
    155          1           0        5.319321   -4.130830   -0.640420
    156          1           0        8.354341   -7.014668    0.386710
    157          1           0        8.376806   -5.871082    1.875221
    158          1           0        9.337913   -5.648057    0.392389
 ---------------------------------------------------------------------

 SCF Done:  E(RCAM-B3LYP) =  -4069.81165911     A.U. after   19 cycles

 Excitation energies and oscillator strengths:

 Excited State   1:      Singlet-A      1.6573 eV  748.12 nm  f=0.0042  <S**2>=0.000
     309 -> 315        0.11226
     310 -> 316        0.12693
     311 -> 313        0.45446
     312 -> 314        0.51542
 This state for optimization and/or second-order correction.
 Total Energy, E(TD-HF/TD-DFT) =  -4069.75075513
 Copying the excited state density for this state as the 1-particle RhoCI density.

 Excited State   2:      Singlet-A      1.6975 eV  730.37 nm  f=0.7163  <S**2>=0.000
     309 -> 315        0.13508
     310 -> 316       -0.11869
     311 -> 313        0.51349
     312 -> 314       -0.45281

 Excited State   3:      Singlet-A      2.1840 eV  567.69 nm  f=0.0198  <S**2>=0.000
     309 -> 313        0.28543
     310 -> 314        0.57745
     311 -> 315       -0.11926
     312 -> 316       -0.24264

 Excited State   4:      Singlet-A      2.1956 eV  564.69 nm  f=0.1609  <S**2>=0.000
     309 -> 313        0.57366
     310 -> 314       -0.28233
     311 -> 315       -0.25167
     312 -> 316        0.12481

 Excited State   5:      Singlet-A      2.4873 eV  498.47 nm  f=0.0000  <S**2>=0.000
     312 -> 313        0.70710

 The electronic state is 1-A.
 Alpha  occ. eigenvalues --  -46.87878 -46.87493 -19.26320 -19.26230 -19.19060
 Alpha  occ. eigenvalues --  -19.19038 -19.18844 -19.18510 -19.18235 -19.17909
 Alpha  occ. eigenvalues --  -14.42528 -14.42332 -14.41539 -14.41192 -14.39477
 Alpha  occ. eigenvalues --  -14.39179 -14.38668 -14.38440 -10.39122 -10.38965
 Alpha  occ. eigenvalues --  -10.35473 -10.35185 -10.34455 -10.34087 -10.31702
 Alpha  occ. eigenvalues --  -10.31652 -10.31486 -10.31160 -10.30974 -10.30848
 Alpha  occ. eigenvalues --  -10.30652 -10.30589 -10.30298 -10.30234 -10.30210
 Alpha  occ. eigenvalues --  -10.30019 -10.29966 -10.29731 -10.29705 -10.29329
 Alpha  occ. eigenvalues --  -10.29260 -10.29241 -10.28813 -10.28601 -10.28571
 Alpha  occ. eigenvalues --  -10.28546 -10.28434 -10.28234 -10.28182 -10.27992
 Alpha  occ. eigenvalues --  -10.27867 -10.27839 -10.27804 -10.27650 -10.27641
 Alpha  occ. eigenvalues --  -10.27572 -10.27518 -10.27505 -10.27477 -10.27368
 Alpha  occ. eigenvalues --  -10.27319 -10.27295 -10.27272 -10.27218 -10.27195
 Alpha  occ. eigenvalues --  -10.26903 -10.26770 -10.26565 -10.26390 -10.26385
 Alpha  occ. eigenvalues --  -10.26293 -10.26195 -10.26117 -10.26028 -10.25954
 Alpha  occ. eigenvalues --  -10.25864 -10.25783 -10.25770 -10.25540 -10.25151
 Alpha  occ. eigenvalues --  -10.24953 -10.24907 -10.24871 -10.24715 -10.24624
 Alpha  occ. eigenvalues --  -10.24511  -3.16621  -3.16243  -1.91503  -1.91125
 Alpha  occ. eigenvalues --   -1.91089  -1.90931  -1.90714  -1.90551  -1.16670
 Alpha  occ. eigenvalues --   -1.16523  -1.08691  -1.08521  -1.07243  -1.06823
 Alpha  occ. eigenvalues --   -1.06757  -1.06683  -1.04657  -1.04331  -1.03846
 Alpha  occ. eigenvalues --   -1.03496  -1.03314  -1.02872  -1.02493  -1.01945
 Alpha  occ. eigenvalues --   -0.92045  -0.91829  -0.89642  -0.89341  -0.89257
 Alpha  occ. eigenvalues --   -0.89003  -0.88405  -0.88057  -0.87957  -0.87752
 Alpha  occ. eigenvalues --   -0.87660  -0.87525  -0.87323  -0.86934  -0.85052
 Alpha  occ. eigenvalues --   -0.84848  -0.84070  -0.83717  -0.83018  -0.82743
 Alpha  occ. eigenvalues --   -0.82708  -0.82491  -0.81649  -0.81459  -0.80662
 Alpha  occ. eigenvalues --   -0.80289  -0.78861  -0.78469  -0.77312  -0.77013
 Alpha  occ. eigenvalues --   -0.76994  -0.76751  -0.75990  -0.75690  -0.75000
 Alpha  occ. eigenvalues --   -0.74626  -0.72861  -0.72546  -0.71751  -0.71413
 Alpha  occ. eigenvalues --   -0.70065  -0.69613  -0.68941  -0.68675  -0.67711
 Alpha  occ. eigenvalues --   -0.67440  -0.67277  -0.67044  -0.65361  -0.65124
 Alpha  occ. eigenvalues --   -0.64934  -0.64704  -0.64617  -0.64504  -0.64380
 Alpha  occ. eigenvalues --   -0.64049  -0.62361  -0.62140  -0.60509  -0.60160
 Alpha  occ. eigenvalues --   -0.59874  -0.59645  -0.59071  -0.58833  -0.58583
 Alpha  occ. eigenvalues --   -0.58268  -0.57649  -0.57415  -0.57392  -0.57073
 Alpha  occ. eigenvalues --   -0.56381  -0.56054  -0.56030  -0.55747  -0.55579
 Alpha  occ. eigenvalues --   -0.55443  -0.55290  -0.55097  -0.54616  -0.54343
 Alpha  occ. eigenvalues --   -0.53962  -0.53764  -0.53377  -0.53273  -0.53071
 Alpha  occ. eigenvalues --   -0.52991  -0.52982  -0.52802  -0.52755  -0.52597
 Alpha  occ. eigenvalues --   -0.52481  -0.52272  -0.52009  -0.51776  -0.51672
 Alpha  occ. eigenvalues --   -0.51503  -0.51284  -0.51059  -0.50608  -0.50283
 Alpha  occ. eigenvalues --   -0.50153  -0.49969  -0.49813  -0.49693  -0.49569
 Alpha  occ. eigenvalues --   -0.49319  -0.49279  -0.49163  -0.49047  -0.48958
 Alpha  occ. eigenvalues --   -0.48666  -0.48551  -0.48488  -0.48413  -0.48212
 Alpha  occ. eigenvalues --   -0.48153  -0.47767  -0.47433  -0.47364  -0.46944
 Alpha  occ. eigenvalues --   -0.46894  -0.46619  -0.46559  -0.46444  -0.46402
 Alpha  occ. eigenvalues --   -0.46249  -0.46111  -0.45933  -0.45899  -0.45691
 Alpha  occ. eigenvalues --   -0.45308  -0.45019  -0.44657  -0.44575  -0.44372
 Alpha  occ. eigenvalues --   -0.44326  -0.44246  -0.44154  -0.44073  -0.43975
 Alpha  occ. eigenvalues --   -0.43920  -0.43770  -0.43565  -0.43468  -0.43419
 Alpha  occ. eigenvalues --   -0.43230  -0.43111  -0.42816  -0.42793  -0.42752
 Alpha  occ. eigenvalues --   -0.42728  -0.42393  -0.42126  -0.41823  -0.41782
 Alpha  occ. eigenvalues --   -0.41608  -0.41516  -0.41311  -0.41218  -0.40966
 Alpha  occ. eigenvalues --   -0.40861  -0.40825  -0.40682  -0.40569  -0.40522
 Alpha  occ. eigenvalues --   -0.40337  -0.40295  -0.40076  -0.39614  -0.39286
 Alpha  occ. eigenvalues --   -0.38583  -0.38187  -0.37819  -0.37514  -0.37427
 Alpha  occ. eigenvalues --   -0.37332  -0.37110  -0.37045  -0.36780  -0.36639
 Alpha  occ. eigenvalues --   -0.36272  -0.36062  -0.34368  -0.34093  -0.33817
 Alpha  occ. eigenvalues --   -0.33730  -0.33265  -0.33013  -0.31377  -0.31111
 Alpha  occ. eigenvalues --   -0.31071  -0.30804  -0.30095  -0.29816  -0.29515
 Alpha  occ. eigenvalues --   -0.29397  -0.29153  -0.29054  -0.24161  -0.23870
 Alpha  occ. eigenvalues --   -0.21209  -0.20952
 Alpha virt. eigenvalues --   -0.08848  -0.08624  -0.01830  -0.01512  -0.00110
 Alpha virt. eigenvalues --    0.00152   0.02125   0.02358   0.03014   0.03383
 Alpha virt. eigenvalues --    0.04640   0.04884   0.05052   0.05294   0.06111

 Mulliken charges:
               1
     1  Mg   0.838621
     2  C   -0.002720
     3  C   -0.093962
     4  C   -0.045972
     5  C   -0.064421
     6  N   -0.256732
     7  C   -0.052579
     8  C   -0.013966
     9  C   -0.087044
    10  C    0.046358
    11  C    0.104757
    12  C    0.053473
    13  C   -0.071830
    14  H    0.036035
    15  N   -0.433269
    16  C    0.168553
    17  C   -0.176828
    18  C   -0.003632
    19  C    0.148797
    20  C    0.110116
    21  C    0.012666
    22  O   -0.249457
    23  C    0.062283
    24  N   -0.340993
    25  C    0.041145
    26  C   -0.028277
    27  C   -0.023749
    28  C    0.074407
    29  C    0.076091
    30  C    0.035351
    31  C   -0.004474
    32  N   -0.310372
    33  C    0.080065
    34  C   -0.170361
    35  C    0.008437
    36  C    0.082765
    37  C    0.127440
    38  C    0.046070
    39  O   -0.188386
    40  C   -0.005306
    41  C    0.212848
    42  O   -0.256843
    43  O   -0.304867
    44  C    0.157445
    45  H   -0.017267
    46  H   -0.016714
    47  H   -0.042195
    48  H    0.001105
    49  H   -0.003919
    50  H    0.025566
    51  H    0.016484
    52  H    0.016889
    53  H    0.010971
    54  H    0.044189
    55  H    0.018100
    56  H    0.017879
    57  H    0.005875
    58  H    0.027219
    59  H    0.040187
    60  H    0.037252
    61  H    0.036797
    62  H    0.032157
    63  H    0.016227
    64  H    0.009606
    65  H    0.023342
    66  H    0.012987
    67  H    0.004763
    68  H    0.006238
    69  H    0.004267
    70  H    0.008871
    71  H    0.015185
    72  H    0.029696
    73  H    0.047098
    74  H    0.008311
    75  H    0.046210
    76  H    0.035256
    77  H    0.043151
    78  H    0.046271
    79  H    0.054269
    80  Mg   0.838043
    81  C   -0.016853
    82  C   -0.087465
    83  C   -0.044057
    84  C   -0.065210
    85  N   -0.254575
    86  C   -0.050038
    87  C   -0.015082
    88  C   -0.090635
    89  C    0.045926
    90  C    0.114130
    91  C    0.062598
    92  C   -0.077652
    93  H    0.034414
    94  N   -0.423863
    95  C    0.163326
    96  C   -0.173439
    97  C   -0.006753
    98  C    0.152380
    99  C    0.098860
   100  C    0.016457
   101  O   -0.252596
   102  C    0.061049
   103  N   -0.349977
   104  C    0.038032
   105  C   -0.020148
   106  C   -0.034281
   107  C    0.088748
   108  C    0.072976
   109  C    0.034847
   110  C   -0.007541
   111  N   -0.323891
   112  C    0.078172
   113  C   -0.163893
   114  C    0.001982
   115  C    0.095926
   116  C    0.131607
   117  C    0.041954
   118  O   -0.188775
   119  C    0.000945
   120  C    0.211105
   121  O   -0.251290
   122  O   -0.305455
   123  C    0.152188
   124  H   -0.019497
   125  H   -0.014728
   126  H   -0.041537
   127  H   -0.000605
   128  H   -0.004783
   129  H    0.023148
   130  H    0.015422
   131  H    0.015402
   132  H    0.013792
   133  H    0.037529
   134  H    0.020698
   135  H    0.019346
   136  H    0.008415
   137  H    0.027907
   138  H    0.039470
   139  H    0.039396
   140  H    0.036403
   141  H    0.033152
   142  H    0.014012
   143  H    0.011490
   144  H    0.024716
   145  H    0.015908
   146  H    0.004658
   147  H    0.005794
   148  H    0.002797
   149  H    0.010987
   150  H    0.017333
   151  H    0.030310
   152  H    0.045553
   153  H    0.007900
   154  H    0.045605
   155  H    0.035393
   156  H    0.043727
   157  H    0.049392
   158  H    0.053294
 Sum of Mulliken charges =  -0.00000

 Dipole moment (field-independent basis, Debye):
    X=             -3.9705    Y=             -1.1166    Z=              0.0442  Tot=              4.1248
 Quadrupole moment (field-independent basis, Debye-Ang):
   XX=           -525.3686   YY=           -546.3874   ZZ=           -448.1163
   XY=             21.2789   XZ=             56.9041   YZ=            -40.6192

 Normal termination of Gaussian 16 at Fri Sep 10 13:32:48 2021.
