 Gaussian 16, Revision A.03,
 Gaussian 16:  ES64L-G16RevA.03 25-Dec-2016

 -----------------------------------
 #p cam-b3lyp/Def2SVP td=(nstates=5)
 -----------------------------------

 --------------------------------
 TDDFT excited states in gaussian
 --------------------------------
 Symbolic Z-matrix:
 Charge =  0 Multiplicity = 1

                         Standard orientation:
 ---------------------------------------------------------------------
 Center     Atomic      Atomic             Coordinates (Angstroms)
 Number     Number       Type             X           Y           Z
 ---------------------------------------------------------------------
      1         12           0        3.884294   -0.614357    0.850457
      2          6           0        4.585600    1.998305   -1.493552
      3          6           0        4.218713    1.715467    3.320913
      4          6           0        3.718785   -2.980794    2.955025
      5          6           0        4.720890   -2.886413   -1.656240
      6          7           0        4.343057    1.550607    0.794689
      7          6           0        4.531361    2.444388   -0.171162
      8          6           0        4.590395    3.912092    0.348198
      9          6           0        5.032777    3.628832    1.853542
     10          6           0        4.467877    2.228371    2.013289
     11          6           0        6.545111    3.573108    2.043916
     12          6           0        3.196091    4.621752    0.284714
     13          6           0        3.228264    6.142521    0.462419
     14          1           0        2.285964    6.955737   -0.291304
     15          7           0        3.479535   -0.583477    2.783865
     16          6           0        3.662688    0.456007    3.633109
     17          6           0        3.211612   -0.017021    4.959554
     18          6           0        2.929433   -1.475322    4.850807
     19          6           0        3.395663   -1.747088    3.515086
     20          6           0        3.041334    0.887347    6.141448
     21          6           0        2.343745   -2.468757    5.803796
     22          8           0        2.400769   -3.728533    5.593351
     23          6           0        1.772202   -1.926063    7.049535
     24          7           0        4.385901   -2.638382    0.753775
     25          6           0        4.159675   -3.455548    1.788205
     26          6           0        4.330741   -4.893184    1.395931
     27          6           0        4.485440   -4.902365   -0.193326
     28          6           0        4.456119   -3.374125   -0.442114
     29          6           0        5.523918   -5.622232    2.029041
     30          6           0        3.504277   -5.798331   -0.990184
     31          6           0        2.099265   -5.251203   -0.873186
     32          7           0        4.368125   -0.507606   -1.262729
     33          6           0        4.705904   -1.576485   -2.105391
     34          6           0        5.055082   -0.999292   -3.416494
     35          6           0        4.911234    0.375420   -3.239519
     36          6           0        4.523774    0.641924   -1.895219
     37          6           0        5.500916   -1.726664   -4.555175
     38          6           0        5.018597    1.682775   -3.866539
     39          8           0        5.217346    2.079699   -5.015644
     40          6           0        4.930424    2.793088   -2.728445
     41          6           0        3.950948    3.838368   -3.188145
     42          8           0        2.738377    3.569485   -3.309553
     43          8           0        4.548156    5.039976   -3.183201
     44          6           0        3.622278    6.126362   -3.601135
     45          1           0        4.530310    2.303163    4.186627
     46          1           0        3.567729   -3.835540    3.617618
     47          1           0        4.909992   -3.539471   -2.510177
     48          1           0        5.332273    4.539601   -0.146041
     49          1           0        4.553899    4.312775    2.553984
     50          1           0        7.068509    3.609080    1.088572
     51          1           0        6.740166    2.627143    2.549481
     52          1           0        6.878300    4.353211    2.728899
     53          1           0        2.611547    4.344774    1.162012
     54          1           0        2.681257    4.378263   -0.645332
     55          1           0        4.240265    6.534712    0.357774
     56          1           0        2.953964    6.371939    1.492140
     57          1           0        3.482997    1.866969    5.963065
     58          1           0        3.634176    0.465800    6.952956
     59          1           0        1.998994    0.966868    6.450535
     60          1           0        2.545543   -1.383741    7.593942
     61          1           0        1.320501   -2.771906    7.566609
     62          1           0        1.004845   -1.193937    6.796348
     63          1           0        3.456536   -5.480854    1.673126
     64          1           0        5.472110   -5.244755   -0.506256
     65          1           0        5.245277   -6.518798    2.583327
     66          1           0        6.050251   -4.914612    2.668993
     67          1           0        6.309141   -5.907140    1.329277
     68          1           0        3.491238   -6.806600   -0.577668
     69          1           0        3.754948   -5.876076   -2.048187
     70          1           0        1.754530   -5.666019    0.073343
     71          1           0        1.483562   -5.603807   -1.701311
     72          1           0        2.101911   -4.165775   -0.771572
     73          1           0        4.970393   -1.309042   -5.410807
     74          1           0        5.301461   -2.792570   -4.447166
     75          1           0        6.566228   -1.497244   -4.536935
     76          1           0        5.934592    3.198148   -2.607218
     77          1           0        4.089517    6.640972   -4.440837
     78          1           0        3.406182    6.710596   -2.706496
     79          1           0        2.680625    5.810499   -4.051532
     80         12           0       -3.860289   -0.670083   -0.854744
     81          6           0       -4.694095    1.888470    1.519614
     82          6           0       -4.166782    1.698595   -3.289911
     83          6           0       -3.573408   -2.985797   -3.004772
     84          6           0       -4.732671   -3.013288    1.573024
     85          7           0       -4.368401    1.480980   -0.770999
     86          6           0       -4.604937    2.358302    0.192680
     87          6           0       -4.674730    3.833975   -0.283864
     88          6           0       -5.067724    3.572626   -1.818843
     89          6           0       -4.469171    2.177999   -1.990350
     90          6           0       -6.567031    3.480513   -2.048914
     91          6           0       -3.293107    4.567566   -0.161559
     92          6           0       -3.356805    6.088738   -0.315658
     93          1           0       -2.449814    6.907888    0.483608
     94          7           0       -3.389843   -0.583207   -2.780807
     95          6           0       -3.561257    0.464615   -3.613862
     96          6           0       -3.075635    0.017105   -4.928419
     97          6           0       -2.756494   -1.433870   -4.841520
     98          6           0       -3.258157   -1.735169   -3.515754
     99          6           0       -2.878456    0.953544   -6.084977
    100          6           0       -2.118482   -2.394467   -5.798798
    101          8           0       -2.156289   -3.661208   -5.607047
    102          6           0       -1.529520   -1.814505   -7.014626
    103          7           0       -4.314857   -2.698353   -0.811610
    104          6           0       -4.042103   -3.490478   -1.863312
    105          6           0       -4.198729   -4.948589   -1.503093
    106          6           0       -4.399656   -4.980075    0.083160
    107          6           0       -4.414211   -3.461896    0.366584
    108          6           0       -5.359542   -5.679442   -2.177469
    109          6           0       -3.426182   -5.874857    0.898247
    110          6           0       -2.026274   -5.308041    0.832070
    111          7           0       -4.405906   -0.615038    1.235072
    112          6           0       -4.757147   -1.710457    2.054077
    113          6           0       -5.159732   -1.162132    3.365448
    114          6           0       -5.035809    0.226717    3.209816
    115          6           0       -4.606998    0.524128    1.888009
    116          6           0       -5.616684   -1.921036    4.479623
    117          6           0       -5.180447    1.509379    3.859863
    118          8           0       -5.430406    1.878878    5.006476
    119          6           0       -5.087202    2.648885    2.755683
    120          6           0       -4.142521    3.706160    3.257935
    121          8           0       -2.936501    3.450238    3.421144
    122          8           0       -4.770892    4.895907    3.254968
    123          6           0       -3.871049    5.978466    3.734733
    124          1           0       -4.458235    2.305453   -4.147619
    125          1           0       -3.385263   -3.829284   -3.673058
    126          1           0       -4.924227   -3.683904    2.413408
    127          1           0       -5.438599    4.431610    0.198945
    128          1           0       -4.575895    4.282460   -2.478852
    129          1           0       -7.118339    3.488266   -1.120400
    130          1           0       -6.727052    2.549151   -2.576173
    131          1           0       -6.893281    4.272088   -2.729580
    132          1           0       -2.675741    4.316072   -1.033535
    133          1           0       -2.809705    4.317942    0.762912
    134          1           0       -4.383292    6.467909   -0.241575
    135          1           0       -3.048017    6.347869   -1.331295
    136          1           0       -3.353480    1.925164   -5.901356
    137          1           0       -3.432729    0.536062   -6.932531
    138          1           0       -1.828724    1.059501   -6.366916
    139          1           0       -2.296598   -1.275939   -7.565985
    140          1           0       -1.044202   -2.645931   -7.529496
    141          1           0       -0.776110   -1.075407   -6.720161
    142          1           0       -3.305836   -5.507335   -1.755376
    143          1           0       -5.393526   -5.361068    0.360499
    144          1           0       -5.040451   -6.570666   -2.750154
    145          1           0       -5.876324   -4.979313   -2.820347
    146          1           0       -6.152343   -6.005365   -1.506316
    147          1           0       -3.376737   -6.875659    0.462227
    148          1           0       -3.713714   -5.990399    1.937942
    149          1           0       -1.647129   -5.697160   -0.117632
    150          1           0       -1.429534   -5.662314    1.670176
    151          1           0       -2.047572   -4.214736    0.755366
    152          1           0       -5.128484   -1.513769    5.355004
    153          1           0       -5.396496   -2.979446    4.356936
    154          1           0       -6.689393   -1.716292    4.428312
    155          1           0       -6.093985    3.039119    2.601811
    156          1           0       -4.379241    6.469448    4.570411
    157          1           0       -3.649148    6.598389    2.845793
    158          1           0       -2.936653    5.684780    4.198532
 ---------------------------------------------------------------------

 SCF Done:  E(RCAM-B3LYP) =  -4069.81303871     A.U. after   18 cycles

 Excitation energies and oscillator strengths:

 Excited State   1:      Singlet-A      1.6401 eV  755.98 nm  f=0.0036  <S**2>=0.000
     309 -> 315       -0.11270
     310 -> 316       -0.12030
     311 -> 313        0.50174
     312 -> 314        0.46848
 This state for optimization and/or second-order correction.
 Total Energy, E(TD-HF/TD-DFT) =  -4069.75276788
 Copying the excited state density for this state as the 1-particle RhoCI density.

 Excited State   2:      Singlet-A      1.7104 eV  724.90 nm  f=0.6808  <S**2>=0.000
     309 -> 315       -0.13380
     310 -> 316        0.12445
     311 -> 313       -0.46566
     312 -> 314        0.49865

 Excited State   3:      Singlet-A      2.1828 eV  567.99 nm  f=0.0097  <S**2>=0.000
     309 -> 314        0.35394
     310 -> 313        0.53909
     311 -> 316        0.22445
     312 -> 315        0.14673

 Excited State   4:      Singlet-A      2.1987 eV  563.91 nm  f=0.1611  <S**2>=0.000
     309 -> 314        0.53399
     310 -> 313       -0.34927
     311 -> 316       -0.15441
     312 -> 315        0.23546

 Excited State   5:      Singlet-A      2.3940 eV  517.90 nm  f=0.0000  <S**2>=0.000
     312 -> 313        0.70537

 The electronic state is 1-A.
 Alpha  occ. eigenvalues --  -46.87569 -46.87449 -19.26383 -19.26310 -19.19183
 Alpha  occ. eigenvalues --  -19.19036 -19.18543 -19.18458 -19.18044 -19.17932
 Alpha  occ. eigenvalues --  -14.42284 -14.42224 -14.41225 -14.41157 -14.39160
 Alpha  occ. eigenvalues --  -14.39125 -14.38403 -14.38376 -10.39096 -10.39079
 Alpha  occ. eigenvalues --  -10.35169 -10.35126 -10.34270 -10.34116 -10.31852
 Alpha  occ. eigenvalues --  -10.31767 -10.31203 -10.31120 -10.30800 -10.30677
 Alpha  occ. eigenvalues --  -10.30354 -10.30296 -10.30204 -10.30160 -10.29951
 Alpha  occ. eigenvalues --  -10.29905 -10.29729 -10.29726 -10.29404 -10.29192
 Alpha  occ. eigenvalues --  -10.29185 -10.28997 -10.28563 -10.28559 -10.28542
 Alpha  occ. eigenvalues --  -10.28431 -10.28194 -10.28142 -10.27952 -10.27918
 Alpha  occ. eigenvalues --  -10.27789 -10.27570 -10.27489 -10.27441 -10.27332
 Alpha  occ. eigenvalues --  -10.27330 -10.27291 -10.27282 -10.27259 -10.27228
 Alpha  occ. eigenvalues --  -10.27216 -10.27201 -10.27083 -10.27057 -10.27051
 Alpha  occ. eigenvalues --  -10.26952 -10.26514 -10.26506 -10.26063 -10.26041
 Alpha  occ. eigenvalues --  -10.26032 -10.25946 -10.25941 -10.25868 -10.25783
 Alpha  occ. eigenvalues --  -10.25721 -10.25712 -10.25690 -10.25270 -10.25264
 Alpha  occ. eigenvalues --  -10.24680 -10.24630 -10.24574 -10.24505 -10.24498
 Alpha  occ. eigenvalues --  -10.24414  -3.16312  -3.16199  -1.91194  -1.91081
 Alpha  occ. eigenvalues --   -1.90780  -1.90670  -1.90622  -1.90507  -1.16671
 Alpha  occ. eigenvalues --   -1.16654  -1.08561  -1.08522  -1.06962  -1.06945
 Alpha  occ. eigenvalues --   -1.06711  -1.06655  -1.04360  -1.04285  -1.03537
 Alpha  occ. eigenvalues --   -1.03453  -1.03007  -1.02832  -1.02190  -1.01907
 Alpha  occ. eigenvalues --   -0.91817  -0.91790  -0.89301  -0.89299  -0.88995
 Alpha  occ. eigenvalues --   -0.88968  -0.88075  -0.88035  -0.87675  -0.87615
 Alpha  occ. eigenvalues --   -0.87476  -0.87450  -0.86977  -0.86827  -0.84816
 Alpha  occ. eigenvalues --   -0.84786  -0.83737  -0.83703  -0.82687  -0.82673
 Alpha  occ. eigenvalues --   -0.82439  -0.82437  -0.81499  -0.81477  -0.80412
 Alpha  occ. eigenvalues --   -0.80280  -0.78535  -0.78386  -0.77005  -0.76944
 Alpha  occ. eigenvalues --   -0.76782  -0.76760  -0.75761  -0.75684  -0.74708
 Alpha  occ. eigenvalues --   -0.74636  -0.72560  -0.72499  -0.71480  -0.71406
 Alpha  occ. eigenvalues --   -0.69686  -0.69557  -0.68673  -0.68642  -0.67438
 Alpha  occ. eigenvalues --   -0.67416  -0.67005  -0.66991  -0.65105  -0.65102
 Alpha  occ. eigenvalues --   -0.64683  -0.64609  -0.64490  -0.64437  -0.64059
 Alpha  occ. eigenvalues --   -0.64019  -0.62207  -0.62194  -0.60180  -0.60092
 Alpha  occ. eigenvalues --   -0.59605  -0.59602  -0.58814  -0.58791  -0.58313
 Alpha  occ. eigenvalues --   -0.58258  -0.57480  -0.57462  -0.57106  -0.57043
 Alpha  occ. eigenvalues --   -0.56120  -0.56027  -0.55890  -0.55787  -0.55290
 Alpha  occ. eigenvalues --   -0.55268  -0.55185  -0.55101  -0.54397  -0.54369
 Alpha  occ. eigenvalues --   -0.53733  -0.53706  -0.53090  -0.53039  -0.53005
 Alpha  occ. eigenvalues --   -0.52965  -0.52761  -0.52744  -0.52470  -0.52375
 Alpha  occ. eigenvalues --   -0.52211  -0.52205  -0.51749  -0.51740  -0.51453
 Alpha  occ. eigenvalues --   -0.51404  -0.51048  -0.51023  -0.50229  -0.50155
 Alpha  occ. eigenvalues --   -0.49791  -0.49747  -0.49671  -0.49658  -0.49305
 Alpha  occ. eigenvalues --   -0.49275  -0.49020  -0.49010  -0.48951  -0.48925
 Alpha  occ. eigenvalues --   -0.48450  -0.48420  -0.48300  -0.48233  -0.48193
 Alpha  occ. eigenvalues --   -0.48094  -0.47483  -0.47395  -0.47069  -0.46900
 Alpha  occ. eigenvalues --   -0.46593  -0.46527  -0.46381  -0.46367  -0.46152
 Alpha  occ. eigenvalues --   -0.46078  -0.45987  -0.45928  -0.45710  -0.45699
 Alpha  occ. eigenvalues --   -0.45039  -0.44996  -0.44435  -0.44377  -0.44288
 Alpha  occ. eigenvalues --   -0.44268  -0.43974  -0.43958  -0.43896  -0.43888
 Alpha  occ. eigenvalues --   -0.43793  -0.43700  -0.43469  -0.43379  -0.43217
 Alpha  occ. eigenvalues --   -0.43184  -0.42868  -0.42839  -0.42737  -0.42659
 Alpha  occ. eigenvalues --   -0.42440  -0.42342  -0.41817  -0.41779  -0.41522
 Alpha  occ. eigenvalues --   -0.41510  -0.41346  -0.41282  -0.40948  -0.40814
 Alpha  occ. eigenvalues --   -0.40671  -0.40556  -0.40533  -0.40460  -0.40371
 Alpha  occ. eigenvalues --   -0.40316  -0.40033  -0.40022  -0.39339  -0.39090
 Alpha  occ. eigenvalues --   -0.38264  -0.38171  -0.37580  -0.37499  -0.37113
 Alpha  occ. eigenvalues --   -0.37071  -0.37068  -0.37010  -0.36745  -0.36664
 Alpha  occ. eigenvalues --   -0.36065  -0.36037  -0.34078  -0.34070  -0.33840
 Alpha  occ. eigenvalues --   -0.33747  -0.32974  -0.32974  -0.31080  -0.31025
 Alpha  occ. eigenvalues --   -0.30824  -0.30775  -0.29913  -0.29847  -0.29213
 Alpha  occ. eigenvalues --   -0.29103  -0.29101  -0.29002  -0.23863  -0.23834
 Alpha  occ. eigenvalues --   -0.20901  -0.20899
 Alpha virt. eigenvalues --   -0.08574  -0.08541  -0.01520  -0.01471   0.00191
 Alpha virt. eigenvalues --    0.00210   0.02306   0.02376   0.02454   0.04484
 Alpha virt. eigenvalues --    0.04857   0.04949   0.05119   0.05180   0.06084

 Mulliken charges:
               1
     1  Mg   0.839134
     2  C   -0.003307
     3  C   -0.091255
     4  C   -0.046174
     5  C   -0.063413
     6  N   -0.256869
     7  C   -0.052732
     8  C   -0.014302
     9  C   -0.087509
    10  C    0.047131
    11  C    0.104854
    12  C    0.052537
    13  C   -0.070824
    14  H    0.032656
    15  N   -0.433574
    16  C    0.170329
    17  C   -0.174295
    18  C   -0.002992
    19  C    0.149193
    20  C    0.109885
    21  C    0.013083
    22  O   -0.251067
    23  C    0.061154
    24  N   -0.341203
    25  C    0.041763
    26  C   -0.028153
    27  C   -0.023895
    28  C    0.074294
    29  C    0.076425
    30  C    0.035794
    31  C   -0.007627
    32  N   -0.310147
    33  C    0.079751
    34  C   -0.170758
    35  C    0.007118
    36  C    0.082399
    37  C    0.127798
    38  C    0.044495
    39  O   -0.191110
    40  C   -0.004957
    41  C    0.212683
    42  O   -0.259070
    43  O   -0.304178
    44  C    0.158630
    45  H   -0.017529
    46  H   -0.017380
    47  H   -0.041713
    48  H   -0.000117
    49  H   -0.003117
    50  H    0.024966
    51  H    0.016513
    52  H    0.016392
    53  H    0.015844
    54  H    0.042562
    55  H    0.017255
    56  H    0.018978
    57  H    0.005947
    58  H    0.025713
    59  H    0.045673
    60  H    0.036886
    61  H    0.034698
    62  H    0.036688
    63  H    0.015938
    64  H    0.008942
    65  H    0.022572
    66  H    0.012475
    67  H    0.004516
    68  H    0.004976
    69  H    0.005140
    70  H    0.009110
    71  H    0.022064
    72  H    0.028958
    73  H    0.045286
    74  H    0.009718
    75  H    0.045391
    76  H    0.034853
    77  H    0.042372
    78  H    0.046779
    79  H    0.051005
    80  Mg   0.838082
    81  C   -0.017219
    82  C   -0.084721
    83  C   -0.045839
    84  C   -0.064483
    85  N   -0.254666
    86  C   -0.050149
    87  C   -0.015367
    88  C   -0.091061
    89  C    0.046613
    90  C    0.114426
    91  C    0.061382
    92  C   -0.076836
    93  H    0.031291
    94  N   -0.424017
    95  C    0.165366
    96  C   -0.171764
    97  C   -0.006630
    98  C    0.152543
    99  C    0.099159
   100  C    0.016367
   101  O   -0.254865
   102  C    0.059694
   103  N   -0.350056
   104  C    0.038003
   105  C   -0.019808
   106  C   -0.034640
   107  C    0.088284
   108  C    0.073944
   109  C    0.035366
   110  C   -0.010564
   111  N   -0.323744
   112  C    0.077645
   113  C   -0.164218
   114  C    0.001132
   115  C    0.095521
   116  C    0.131919
   117  C    0.040812
   118  O   -0.190472
   119  C    0.001281
   120  C    0.211132
   121  O   -0.252918
   122  O   -0.305050
   123  C    0.152900
   124  H   -0.019526
   125  H   -0.016205
   126  H   -0.040828
   127  H   -0.001740
   128  H   -0.003306
   129  H    0.021927
   130  H    0.014452
   131  H    0.015993
   132  H    0.018994
   133  H    0.036145
   134  H    0.020099
   135  H    0.020594
   136  H    0.008826
   137  H    0.024848
   138  H    0.046781
   139  H    0.037828
   140  H    0.035245
   141  H    0.039671
   142  H    0.013645
   143  H    0.011867
   144  H    0.024435
   145  H    0.011612
   146  H    0.005421
   147  H    0.004847
   148  H    0.003896
   149  H    0.011345
   150  H    0.021325
   151  H    0.030054
   152  H    0.043950
   153  H    0.008860
   154  H    0.046269
   155  H    0.034671
   156  H    0.043297
   157  H    0.049841
   158  H    0.051045
 Sum of Mulliken charges =  -0.00000

 Dipole moment (field-independent basis, Debye):
    X=              0.1575    Y=              3.1299    Z=              0.1488  Tot=              3.1374
 Quadrupole moment (field-independent basis, Debye-Ang):
   XX=           -502.7816   YY=           -462.3873   ZZ=           -530.9249
   XY=              0.0738   XZ=             38.8911   YZ=              0.9725

 Normal termination of Gaussian 16 at Wed Sep  8 18:24:33 2021.
