 Gaussian 16, Revision A.03,
 Gaussian 16:  ES64L-G16RevA.03 25-Dec-2016

 -----------------------------------
 #p cam-b3lyp/Def2SVP td=(nstates=5)
 -----------------------------------

 --------------------------------
 TDDFT excited states in gaussian
 --------------------------------
 Symbolic Z-matrix:
 Charge =  0 Multiplicity = 1

                         Standard orientation:
 ---------------------------------------------------------------------
 Center     Atomic      Atomic             Coordinates (Angstroms)
 Number     Number       Type             X           Y           Z
 ---------------------------------------------------------------------
      1         12           0       -4.440872   -0.580692    0.239146
      2          6           0       -4.483102    2.998473    0.241851
      3          6           0       -5.431740   -0.441614   -3.023047
      4          6           0       -4.849811   -3.723729    0.342624
      5          6           0       -4.567606   -0.437768    3.718970
      6          7           0       -4.868236    1.122045   -1.109443
      7          6           0       -4.788652    2.444768   -1.003418
      8          6           0       -4.986461    3.186266   -2.359304
      9          6           0       -5.819343    2.071083   -3.136910
     10          6           0       -5.318189    0.838849   -2.404538
     11          6           0       -7.326791    2.184118   -2.933622
     12          6           0       -3.627194    3.489246   -3.075074
     13          6           0       -3.706770    4.489214   -4.232264
     14          1           0       -2.596044    5.405078   -4.443991
     15          7           0       -4.574048   -1.904123   -1.221554
     16          6           0       -4.980407   -1.669457   -2.492416
     17          6           0       -4.904673   -2.970406   -3.191326
     18          6           0       -4.603078   -4.016196   -2.174735
     19          6           0       -4.690626   -3.250406   -0.957657
     20          6           0       -5.060679   -3.118362   -4.673730
     21          6           0       -4.296569   -5.476547   -2.282250
     22          8           0       -4.294108   -6.247885   -1.262640
     23          6           0       -4.083396   -6.004684   -3.641908
     24          7           0       -4.896919   -1.903107    1.788622
     25          6           0       -4.958565   -3.221954    1.574550
     26          6           0       -5.016661   -3.982618    2.866042
     27          6           0       -4.735817   -2.915756    4.020462
     28          6           0       -4.640858   -1.641227    3.145917
     29          6           0       -6.336330   -4.711419    3.154720
     30          6           0       -3.575400   -3.227211    4.998647
     31          6           0       -2.254572   -3.163610    4.264844
     32          7           0       -4.335253    0.976074    1.747910
     33          6           0       -4.432187    0.811685    3.137246
     34          6           0       -4.414005    2.159843    3.734076
     35          6           0       -4.323867    3.021135    2.642336
     36          6           0       -4.314472    2.260388    1.438398
     37          6           0       -4.535037    2.459496    5.119714
     38          6           0       -4.258136    4.408233    2.211644
     39          8           0       -4.138874    5.490441    2.787920
     40          6           0       -4.481416    4.454659    0.635630
     41          6           0       -3.414494    5.339847    0.051311
     42          8           0       -2.214175    4.999630    0.080498
     43          8           0       -3.991218    6.324486   -0.654677
     44          6           0       -2.987207    7.222122   -1.285839
     45          1           0       -5.966049   -0.524109   -3.971545
     46          1           0       -4.883259   -4.811657    0.430557
     47          1           0       -4.518502   -0.318417    4.802850
     48          1           0       -5.567267    4.106466   -2.293583
     49          1           0       -5.547970    2.021782   -4.191257
     50          1           0       -7.572350    2.935125   -2.182882
     51          1           0       -7.650957    1.196646   -2.604519
     52          1           0       -7.833082    2.364995   -3.882162
     53          1           0       -3.301575    2.602232   -3.618434
     54          1           0       -2.879947    3.827995   -2.356606
     55          1           0       -4.652906    5.031156   -4.226371
     56          1           0       -3.721235    3.929101   -5.167285
     57          1           0       -5.437997   -2.204017   -5.129963
     58          1           0       -5.850734   -3.850571   -4.839237
     59          1           0       -4.140789   -3.455759   -5.151535
     60          1           0       -4.975339   -5.823884   -4.242156
     61          1           0       -3.788053   -7.045870   -3.517188
     62          1           0       -3.276424   -5.444923   -4.115630
     63          1           0       -4.249779   -4.755401    2.899567
     64          1           0       -5.600977   -2.778118    4.669483
     65          1           0       -6.217643   -5.782208    3.322139
     66          1           0       -7.016365   -4.518255    2.325545
     67          1           0       -6.902960   -4.314578    3.996661
     68          1           0       -3.674040   -4.237388    5.394575
     69          1           0       -3.530591   -2.542067    5.845300
     70          1           0       -2.178500   -4.152606    3.814365
     71          1           0       -1.437737   -2.990191    4.966212
     72          1           0       -2.284988   -2.437061    3.452633
     73          1           0       -3.793046    3.229346    5.331255
     74          1           0       -4.371841    1.573068    5.732263
     75          1           0       -5.565671    2.811566    5.160900
     76          1           0       -5.481097    4.856033    0.472353
     77          1           0       -3.210143    8.236363   -0.954405
     78          1           0       -3.021305    7.020754   -2.356677
     79          1           0       -1.958726    7.113884   -0.939644
     80         12           0        4.547109   -0.980461   -0.099649
     81          6           0        4.517040    2.579251    0.354913
     82          6           0        3.574380   -0.427198   -3.321810
     83          6           0        4.127858   -4.110626   -0.405817
     84          6           0        4.393771   -1.285149    3.368684
     85          7           0        4.132560    0.880241   -1.221345
     86          6           0        4.214166    2.176651   -0.962519
     87          6           0        4.035609    3.092663   -2.202921
     88          6           0        3.195208    2.084032   -3.127729
     89          6           0        3.685526    0.757524   -2.550985
     90          6           0        1.694295    2.174786   -2.907814
     91          6           0        5.405388    3.474189   -2.866359
     92          6           0        5.330249    4.609677   -3.889475
     93          1           0        6.452034    5.540185   -3.980207
     94          7           0        4.420311   -2.105872   -1.729357
     95          6           0        4.029021   -1.714387   -2.960167
     96          6           0        4.088795   -2.918448   -3.803282
     97          6           0        4.388905   -4.086873   -2.931828
     98          6           0        4.301513   -3.469413   -1.623698
     99          6           0        3.949771   -2.873390   -5.297284
    100          6           0        4.690411   -5.525110   -3.226414
    101          8           0        4.685335   -6.416482   -2.305411
    102          6           0        4.899829   -5.875047   -4.638916
    103          7           0        4.084064   -2.480940    1.262881
    104          6           0        4.012411   -3.767012    0.877116
    105          6           0        3.940501   -4.690942    2.069417
    106          6           0        4.223677   -3.768961    3.345092
    107          6           0        4.326504   -2.395271    2.646685
    108          6           0        2.615914   -5.429636    2.259651
    109          6           0        5.377790   -4.207089    4.287831
    110          6           0        6.705015   -4.069781    3.577198
    111          7           0        4.654280    0.366451    1.586292
    112          6           0        4.541863    0.032119    2.953648
    113          6           0        4.562419    1.298240    3.714540
    114          6           0        4.663014    2.290501    2.727740
    115          6           0        4.682020    1.686581    1.441494
    116          6           0        4.444689    1.421518    5.127715
    117          6           0        4.746732    3.712084    2.481159
    118          8           0        4.859745    4.711486    3.189802
    119          6           0        4.528514    3.969273    0.927904
    120          6           0        5.602206    4.912022    0.457847
    121          8           0        6.796055    4.563767    0.463836
    122          8           0        5.026857    5.981483   -0.121460
    123          6           0        6.051558    6.940332   -0.613800
    124          1           0        3.051991   -0.377214   -4.277577
    125          1           0        4.089346   -5.201567   -0.448600
    126          1           0        4.448939   -1.300535    4.459283
    127          1           0        3.464259    3.995323   -2.022549
    128          1           0        3.481314    2.174602   -4.172377
    129          1           0        1.446938    2.820852   -2.078621
    130          1           0        1.364145    1.163227   -2.710868
    131          1           0        1.195636    2.479974   -3.832228
    132          1           0        5.727597    2.653379   -3.519962
    133          1           0        6.138338    3.708954   -2.119165
    134          1           0        4.381328    5.156398   -3.829525
    135          1           0        5.325746    4.174097   -4.891603
    136          1           0        3.572058   -1.901112   -5.636992
    137          1           0        3.158332   -3.581286   -5.566276
    138          1           0        4.868710   -3.157360   -5.814580
    139          1           0        4.014194   -5.610368   -5.211683
    140          1           0        5.191007   -6.927234   -4.639239
    141          1           0        5.722152   -5.266760   -5.031840
    142          1           0        4.704832   -5.456216    2.012284
    143          1           0        3.350913   -3.717615    4.012522
    144          1           0        2.729960   -6.529731    2.289033
    145          1           0        1.944951   -5.138052    1.462573
    146          1           0        2.054112   -5.148835    3.148876
    147          1           0        5.273328   -5.263056    4.548944
    148          1           0        5.412771   -3.647603    5.216675
    149          1           0        6.773835   -4.997628    3.001481
    150          1           0        7.517993   -3.990088    4.296049
    151          1           0        6.684576   -3.239019    2.862307
    152          1           0        5.181244    2.150237    5.439098
    153          1           0        4.595797    0.465249    5.624183
    154          1           0        3.410447    1.766746    5.207879
    155          1           0        3.530291    4.390509    0.802654
    156          1           0        5.827613    7.909510   -0.157478
    157          1           0        6.009708    6.881617   -1.717680
    158          1           0        7.075658    6.787532   -0.293903
 ---------------------------------------------------------------------

 SCF Done:  E(RCAM-B3LYP) =  -4069.81139499     A.U. after   19 cycles

 Excitation energies and oscillator strengths:

 Excited State   1:      Singlet-A      1.6477 eV  752.48 nm  f=0.0028  <S**2>=0.000
     309 -> 315       -0.11369
     310 -> 316        0.12193
     311 -> 313       -0.46647
     312 -> 314        0.50533
 This state for optimization and/or second-order correction.
 Total Energy, E(TD-HF/TD-DFT) =  -4069.75084378
 Copying the excited state density for this state as the 1-particle RhoCI density.

 Excited State   2:      Singlet-A      1.7041 eV  727.57 nm  f=0.6966  <S**2>=0.000
     309 -> 315        0.13401
     310 -> 316        0.12230
     311 -> 313        0.50264
     312 -> 314        0.46404

 Excited State   3:      Singlet-A      2.1799 eV  568.77 nm  f=0.0164  <S**2>=0.000
     309 -> 313       -0.30437
     310 -> 314        0.56901
     311 -> 315        0.12545
     312 -> 316       -0.23607

 Excited State   4:      Singlet-A      2.1966 eV  564.43 nm  f=0.1573  <S**2>=0.000
     309 -> 313        0.56384
     310 -> 314        0.29963
     311 -> 315       -0.24905
     312 -> 316       -0.13365

 Excited State   5:      Singlet-A      2.3462 eV  528.45 nm  f=0.0000  <S**2>=0.000
     312 -> 313        0.70709

 The electronic state is 1-A.
 Alpha  occ. eigenvalues --  -46.87902 -46.87426 -19.26417 -19.26060 -19.19159
 Alpha  occ. eigenvalues --  -19.18881 -19.18881 -19.18536 -19.18239 -19.17745
 Alpha  occ. eigenvalues --  -14.42567 -14.42257 -14.41554 -14.41127 -14.39505
 Alpha  occ. eigenvalues --  -14.39124 -14.38686 -14.38354 -10.39215 -10.38800
 Alpha  occ. eigenvalues --  -10.35514 -10.35219 -10.34464 -10.33914 -10.31816
 Alpha  occ. eigenvalues --  -10.31524 -10.31512 -10.31049 -10.31036 -10.30781
 Alpha  occ. eigenvalues --  -10.30674 -10.30599 -10.30311 -10.30158 -10.30114
 Alpha  occ. eigenvalues --  -10.30014 -10.29944 -10.29724 -10.29654 -10.29354
 Alpha  occ. eigenvalues --  -10.29226 -10.29172 -10.28926 -10.28822 -10.28486
 Alpha  occ. eigenvalues --  -10.28468 -10.28439 -10.28273 -10.28156 -10.27883
 Alpha  occ. eigenvalues --  -10.27861 -10.27843 -10.27762 -10.27679 -10.27613
 Alpha  occ. eigenvalues --  -10.27603 -10.27540 -10.27514 -10.27445 -10.27355
 Alpha  occ. eigenvalues --  -10.27342 -10.27262 -10.27248 -10.27229 -10.27175
 Alpha  occ. eigenvalues --  -10.26962 -10.26692 -10.26479 -10.26474 -10.26367
 Alpha  occ. eigenvalues --  -10.26304 -10.26303 -10.26122 -10.25992 -10.25891
 Alpha  occ. eigenvalues --  -10.25718 -10.25643 -10.25603 -10.25512 -10.25183
 Alpha  occ. eigenvalues --  -10.24921 -10.24885 -10.24835 -10.24620 -10.24587
 Alpha  occ. eigenvalues --  -10.24453  -3.16645  -3.16176  -1.91527  -1.91113
 Alpha  occ. eigenvalues --   -1.91058  -1.90955  -1.90646  -1.90483  -1.16765
 Alpha  occ. eigenvalues --   -1.16357  -1.08697  -1.08342  -1.07278  -1.06791
 Alpha  occ. eigenvalues --   -1.06776  -1.06664  -1.04699  -1.04249  -1.03866
 Alpha  occ. eigenvalues --   -1.03427  -1.03333  -1.02808  -1.02513  -1.01873
 Alpha  occ. eigenvalues --   -0.92077  -0.91714  -0.89626  -0.89352  -0.89282
 Alpha  occ. eigenvalues --   -0.88885  -0.88391  -0.88014  -0.87953  -0.87799
 Alpha  occ. eigenvalues --   -0.87549  -0.87455  -0.87371  -0.86941  -0.85136
 Alpha  occ. eigenvalues --   -0.84759  -0.84043  -0.83672  -0.83058  -0.82781
 Alpha  occ. eigenvalues --   -0.82769  -0.82420  -0.81704  -0.81344  -0.80709
 Alpha  occ. eigenvalues --   -0.80205  -0.78896  -0.78431  -0.77345  -0.77076
 Alpha  occ. eigenvalues --   -0.76923  -0.76657  -0.76049  -0.75575  -0.75001
 Alpha  occ. eigenvalues --   -0.74579  -0.72875  -0.72466  -0.71783  -0.71329
 Alpha  occ. eigenvalues --   -0.70022  -0.69572  -0.69013  -0.68592  -0.67746
 Alpha  occ. eigenvalues --   -0.67382  -0.67372  -0.66996  -0.65435  -0.65018
 Alpha  occ. eigenvalues --   -0.64966  -0.64745  -0.64535  -0.64413  -0.64376
 Alpha  occ. eigenvalues --   -0.63992  -0.62415  -0.62024  -0.60539  -0.60142
 Alpha  occ. eigenvalues --   -0.59943  -0.59540  -0.59095  -0.58754  -0.58609
 Alpha  occ. eigenvalues --   -0.58182  -0.57691  -0.57410  -0.57260  -0.57007
 Alpha  occ. eigenvalues --   -0.56410  -0.56113  -0.55980  -0.55637  -0.55620
 Alpha  occ. eigenvalues --   -0.55446  -0.55235  -0.55020  -0.54640  -0.54256
 Alpha  occ. eigenvalues --   -0.54058  -0.53659  -0.53400  -0.53349  -0.53039
 Alpha  occ. eigenvalues --   -0.53016  -0.52912  -0.52873  -0.52669  -0.52556
 Alpha  occ. eigenvalues --   -0.52481  -0.52223  -0.51986  -0.51763  -0.51633
 Alpha  occ. eigenvalues --   -0.51433  -0.51304  -0.50956  -0.50674  -0.50324
 Alpha  occ. eigenvalues --   -0.50146  -0.50027  -0.49761  -0.49665  -0.49636
 Alpha  occ. eigenvalues --   -0.49322  -0.49268  -0.49227  -0.48954  -0.48825
 Alpha  occ. eigenvalues --   -0.48706  -0.48554  -0.48533  -0.48306  -0.48170
 Alpha  occ. eigenvalues --   -0.48123  -0.47814  -0.47403  -0.47375  -0.46918
 Alpha  occ. eigenvalues --   -0.46915  -0.46711  -0.46487  -0.46464  -0.46320
 Alpha  occ. eigenvalues --   -0.46263  -0.46058  -0.45925  -0.45847  -0.45562
 Alpha  occ. eigenvalues --   -0.45303  -0.44985  -0.44679  -0.44633  -0.44267
 Alpha  occ. eigenvalues --   -0.44255  -0.44251  -0.44225  -0.44119  -0.43878
 Alpha  occ. eigenvalues --   -0.43874  -0.43710  -0.43606  -0.43515  -0.43306
 Alpha  occ. eigenvalues --   -0.43144  -0.43133  -0.42817  -0.42773  -0.42682
 Alpha  occ. eigenvalues --   -0.42636  -0.42357  -0.42137  -0.41811  -0.41752
 Alpha  occ. eigenvalues --   -0.41687  -0.41402  -0.41255  -0.41231  -0.41019
 Alpha  occ. eigenvalues --   -0.40929  -0.40739  -0.40683  -0.40535  -0.40480
 Alpha  occ. eigenvalues --   -0.40434  -0.40272  -0.40012  -0.39564  -0.39249
 Alpha  occ. eigenvalues --   -0.38589  -0.38141  -0.37941  -0.37439  -0.37432
 Alpha  occ. eigenvalues --   -0.37407  -0.37051  -0.36962  -0.36838  -0.36512
 Alpha  occ. eigenvalues --   -0.36315  -0.35984  -0.34391  -0.34013  -0.33902
 Alpha  occ. eigenvalues --   -0.33588  -0.33292  -0.32940  -0.31413  -0.31142
 Alpha  occ. eigenvalues --   -0.31093  -0.30730  -0.30101  -0.29643  -0.29541
 Alpha  occ. eigenvalues --   -0.29409  -0.29112  -0.28956  -0.24188  -0.23791
 Alpha  occ. eigenvalues --   -0.21232  -0.20883
 Alpha virt. eigenvalues --   -0.08873  -0.08557  -0.01852  -0.01456  -0.00152
 Alpha virt. eigenvalues --    0.00188   0.02116   0.02466   0.02844   0.03502
 Alpha virt. eigenvalues --    0.04567   0.04935   0.04993   0.05454   0.05936

 Mulliken charges:
               1
     1  Mg   0.838632
     2  C   -0.003476
     3  C   -0.095116
     4  C   -0.045409
     5  C   -0.063767
     6  N   -0.256638
     7  C   -0.052957
     8  C   -0.013810
     9  C   -0.086838
    10  C    0.045909
    11  C    0.104780
    12  C    0.053676
    13  C   -0.071242
    14  H    0.034020
    15  N   -0.433192
    16  C    0.168263
    17  C   -0.177645
    18  C   -0.003678
    19  C    0.148828
    20  C    0.110316
    21  C    0.013036
    22  O   -0.248880
    23  C    0.062460
    24  N   -0.341024
    25  C    0.041087
    26  C   -0.028303
    27  C   -0.023977
    28  C    0.074789
    29  C    0.076060
    30  C    0.035133
    31  C   -0.005004
    32  N   -0.310611
    33  C    0.080551
    34  C   -0.169177
    35  C    0.008849
    36  C    0.083098
    37  C    0.127104
    38  C    0.046608
    39  O   -0.187163
    40  C   -0.005658
    41  C    0.213592
    42  O   -0.258146
    43  O   -0.304609
    44  C    0.157380
    45  H   -0.017790
    46  H   -0.016442
    47  H   -0.041220
    48  H    0.001340
    49  H   -0.004834
    50  H    0.025769
    51  H    0.016823
    52  H    0.016643
    53  H    0.009726
    54  H    0.043237
    55  H    0.019087
    56  H    0.017308
    57  H    0.005325
    58  H    0.027193
    59  H    0.038413
    60  H    0.037019
    61  H    0.036658
    62  H    0.030863
    63  H    0.016714
    64  H    0.009778
    65  H    0.023485
    66  H    0.012667
    67  H    0.004902
    68  H    0.006421
    69  H    0.004923
    70  H    0.008878
    71  H    0.016714
    72  H    0.029967
    73  H    0.048723
    74  H    0.009093
    75  H    0.046217
    76  H    0.035370
    77  H    0.043991
    78  H    0.045460
    79  H    0.053776
    80  Mg   0.837646
    81  C   -0.015797
    82  C   -0.088123
    83  C   -0.045618
    84  C   -0.065354
    85  N   -0.254660
    86  C   -0.047975
    87  C   -0.015250
    88  C   -0.091103
    89  C    0.046180
    90  C    0.112530
    91  C    0.062621
    92  C   -0.077159
    93  H    0.033952
    94  N   -0.423355
    95  C    0.162757
    96  C   -0.175799
    97  C   -0.008238
    98  C    0.151797
    99  C    0.100050
   100  C    0.015068
   101  O   -0.253339
   102  C    0.061491
   103  N   -0.350085
   104  C    0.037331
   105  C   -0.019727
   106  C   -0.034606
   107  C    0.089312
   108  C    0.073387
   109  C    0.034834
   110  C   -0.007552
   111  N   -0.324524
   112  C    0.079286
   113  C   -0.162772
   114  C    0.003846
   115  C    0.096022
   116  C    0.131003
   117  C    0.044136
   118  O   -0.186690
   119  C   -0.000215
   120  C    0.210633
   121  O   -0.252054
   122  O   -0.304475
   123  C    0.152371
   124  H   -0.021420
   125  H   -0.015819
   126  H   -0.041139
   127  H    0.001735
   128  H   -0.006201
   129  H    0.032550
   130  H    0.012915
   131  H    0.012823
   132  H    0.013211
   133  H    0.037550
   134  H    0.020661
   135  H    0.018564
   136  H    0.007711
   137  H    0.023950
   138  H    0.039118
   139  H    0.037073
   140  H    0.035901
   141  H    0.033625
   142  H    0.013927
   143  H    0.011556
   144  H    0.024916
   145  H    0.013140
   146  H    0.004956
   147  H    0.005748
   148  H    0.003172
   149  H    0.010806
   150  H    0.017489
   151  H    0.030419
   152  H    0.045800
   153  H    0.007405
   154  H    0.048855
   155  H    0.041745
   156  H    0.043867
   157  H    0.048626
   158  H    0.052932
 Sum of Mulliken charges =  -0.00000

 Dipole moment (field-independent basis, Debye):
    X=             -4.5707    Y=             -1.8731    Z=             -7.1311  Tot=              8.6749
 Quadrupole moment (field-independent basis, Debye-Ang):
   XX=           -518.6360   YY=           -550.3356   ZZ=           -449.2909
   XY=             -5.1091   XZ=              0.1800   YZ=            -47.8123

 Normal termination of Gaussian 16 at Fri Sep 10 07:30:08 2021.
