 Gaussian 16, Revision A.03,
 Gaussian 16:  ES64L-G16RevA.03 25-Dec-2016

 -----------------------------------
 #p cam-b3lyp/Def2SVP td=(nstates=5)
 -----------------------------------

 --------------------------------
 TDDFT excited states in gaussian
 --------------------------------
 Symbolic Z-matrix:
 Charge =  0 Multiplicity = 1

                         Standard orientation:
 ---------------------------------------------------------------------
 Center     Atomic      Atomic             Coordinates (Angstroms)
 Number     Number       Type             X           Y           Z
 ---------------------------------------------------------------------
      1         12           0        4.106554   -1.528656    0.296820
      2          6           0        4.983565    1.905649   -0.201799
      3          6           0        4.817581   -1.075621    3.603218
      4          6           0        3.777514   -4.658814    0.684716
      5          6           0        4.562562   -1.989019   -3.127473
      6          7           0        4.801903    0.237850    1.435502
      7          6           0        5.042870    1.510522    1.136485
      8          6           0        5.290773    2.403217    2.389088
      9          6           0        5.769984    1.276518    3.410315
     10          6           0        5.059945    0.079780    2.802380
     11          6           0        7.273896    1.024191    3.377417
     12          6           0        3.983369    3.107615    2.885322
     13          6           0        4.194247    4.242157    3.892149
     14          1           0        3.314130    5.399629    3.837377
     15          7           0        3.800584   -2.591636    1.933679
     16          6           0        4.139434   -2.245903    3.198959
     17          6           0        3.702030   -3.366682    4.058735
     18          6           0        3.253304   -4.473996    3.169581
     19          6           0        3.621824   -3.955651    1.876952
     20          6           0        3.690821   -3.300008    5.555124
     21          6           0        2.606128   -5.794901    3.442536
     22          8           0        2.511475   -6.703670    2.548247
     23          6           0        2.159151   -6.033889    4.826783
     24          7           0        4.372940   -3.154219   -0.985451
     25          6           0        4.106194   -4.401552   -0.582972
     26          6           0        4.096115   -5.357779   -1.738597
     27          6           0        4.172751   -4.459367   -3.056449
     28          6           0        4.303068   -3.069012   -2.386970
     29          6           0        5.228915   -6.393300   -1.760309
     30          6           0        3.060424   -4.667059   -4.114755
     31          6           0        1.732791   -4.198397   -3.562628
     32          7           0        4.497849   -0.255026   -1.416597
     33          6           0        4.673070   -0.661988   -2.747144
     34          6           0        5.021743    0.541367   -3.524597
     35          6           0        5.041505    1.568647   -2.583242
     36          6           0        4.750988    1.036008   -1.294759
     37          6           0        5.328358    0.576280   -4.913554
     38          6           0        5.264669    2.988216   -2.362156
     39          8           0        5.451562    3.961017   -3.094428
     40          6           0        5.355945    3.242642   -0.792836
     41          6           0        4.478979    4.422139   -0.471856
     42          8           0        3.239506    4.350986   -0.598385
     43          8           0        5.206659    5.359882    0.153972
     44          6           0        4.389495    6.545355    0.526866
     45          1           0        5.234065   -1.115722    4.611620
     46          1           0        3.563413   -5.727320    0.754666
     47          1           0        4.636284   -2.041144   -4.215269
     48          1           0        6.073862    3.151590    2.266070
     49          1           0        5.404778    1.460890    4.420440
     50          1           0        7.751812    1.570385    2.564282
     51          1           0        7.385606   -0.050394    3.231539
     52          1           0        7.724748    1.243611    4.345593
     53          1           0        3.414021    2.413973    3.504002
     54          1           0        3.400672    3.478290    2.041290
     55          1           0        5.237672    4.556932    3.925158
     56          1           0        3.996870    3.853309    4.891169
     57          1           0        4.230480   -2.427478    5.921190
     58          1           0        4.270742   -4.149212    5.916030
     59          1           0        2.679916   -3.346329    5.960412
     60          1           0        3.013513   -5.955482    5.499440
     61          1           0        1.640696   -6.991957    4.814189
     62          1           0        1.467484   -5.242171    5.116143
     63          1           0        3.175787   -5.940110   -1.756297
     64          1           0        5.098752   -4.621419   -3.608659
     65          1           0        4.878321   -7.425262   -1.789309
     66          1           0        5.861198   -6.219400   -0.890097
     67          1           0        5.942943   -6.272650   -2.574572
     68          1           0        2.954164   -5.725406   -4.350457
     69          1           0        3.249998   -4.136822   -5.048116
     70          1           0        1.389322   -5.059652   -2.990701
     71          1           0        1.042612   -3.968873   -4.375144
     72          1           0        1.861932   -3.372795   -2.862493
     73          1           0        4.807745    1.443706   -5.319142
     74          1           0        5.016071   -0.341565   -5.411189
     75          1           0        6.412320    0.684200   -4.878406
     76          1           0        6.403822    3.438244   -0.567415
     77          1           0        4.870842    7.418479    0.086191
     78          1           0        4.283210    6.519688    1.611509
     79          1           0        3.397947    6.608096    0.077161
     80         12           0       -4.721508    0.097782   -0.405994
     81          6           0       -2.870764    3.168879   -0.554951
     82          6           0       -5.092915    0.657689    2.938126
     83          6           0       -5.961921   -2.812035   -0.157481
     84          6           0       -3.254106   -0.772221   -3.445006
     85          7           0       -4.026788    1.737522    0.905828
     86          6           0       -3.384771    2.882130    0.726847
     87          6           0       -3.357843    3.806279    1.973759
     88          6           0       -3.563001    2.687116    3.107011
     89          6           0       -4.305498    1.637593    2.282477
     90          6           0       -2.258927    2.077283    3.593659
     91          6           0       -4.533548    4.845380    1.973116
     92          6           0       -4.393242    5.975846    2.994946
     93          1           0       -4.878531    7.304898    2.633584
     94          7           0       -5.837967   -0.704425    1.025275
     95          6           0       -5.881885   -0.339550    2.323818
     96          6           0       -6.842213   -1.250705    2.965490
     97          6           0       -7.237752   -2.288656    1.975071
     98          6           0       -6.325464   -1.980787    0.892001
     99          6           0       -7.354218   -1.042010    4.361096
    100          6           0       -8.258293   -3.385862    2.003625
    101          8           0       -8.268028   -4.319422    1.125439
    102          6           0       -9.187660   -3.387282    3.142824
    103          7           0       -4.464729   -1.643624   -1.512303
    104          6           0       -5.164180   -2.755206   -1.224109
    105          6           0       -5.020450   -3.788537   -2.315885
    106          6           0       -4.270842   -3.043781   -3.516311
    107          6           0       -4.020529   -1.674321   -2.847511
    108          6           0       -4.246694   -5.051625   -1.938677
    109          6           0       -4.965571   -3.072080   -4.905277
    110          6           0       -6.240383   -2.260724   -4.861337
    111          7           0       -3.464073    1.079026   -1.863416
    112          6           0       -2.943345    0.523495   -3.052676
    113          6           0       -2.052359    1.537419   -3.653127
    114          6           0       -2.098927    2.612249   -2.752544
    115          6           0       -2.942399    2.283098   -1.657229
    116          6           0       -1.298007    1.377998   -4.849643
    117          6           0       -1.617964    3.946351   -2.474080
    118          8           0       -0.943659    4.772411   -3.087822
    119          6           0       -1.996485    4.317480   -0.975617
    120          6           0       -2.601431    5.694638   -0.976826
    121          8           0       -3.687707    5.907309   -1.543730
    122          8           0       -1.911736    6.479618   -0.129180
    123          6           0       -2.480738    7.853044   -0.087376
    124          1           0       -5.073415    0.620370    4.027674
    125          1           0       -6.450570   -3.788939   -0.176240
    126          1           0       -2.836280   -0.929313   -4.441709
    127          1           0       -2.421878    4.328480    2.132013
    128          1           0       -4.192254    3.053035    3.914171
    129          1           0       -1.414462    2.414130    3.010935
    130          1           0       -2.381370    1.006322    3.498293
    131          1           0       -2.127427    2.271649    4.661958
    132          1           0       -5.441076    4.359469    2.353934
    133          1           0       -4.675805    5.259144    0.993735
    134          1           0       -3.378300    6.036024    3.406295
    135          1           0       -5.019359    5.741916    3.859393
    136          1           0       -6.760112   -0.293516    4.899788
    137          1           0       -7.178261   -1.974063    4.908963
    138          1           0       -8.421514   -0.812208    4.388228
    139          1           0       -8.622711   -3.452097    4.069691
    140          1           0       -9.896916   -4.192169    2.940347
    141          1           0       -9.717258   -2.428268    3.163466
    142          1           0       -5.990745   -4.123527   -2.661449
    143          1           0       -3.281738   -3.482582   -3.713715
    144          1           0       -4.827312   -5.981002   -2.091048
    145          1           0       -3.932705   -4.964245   -0.907029
    146          1           0       -3.299242   -5.185174   -2.458015
    147          1           0       -5.256487   -4.093531   -5.162476
    148          1           0       -4.337804   -2.703775   -5.709800
    149          1           0       -6.966382   -2.964273   -4.442982
    150          1           0       -6.528205   -1.944994   -5.862102
    151          1           0       -6.150169   -1.423709   -4.159259
    152          1           0       -1.403513    2.297980   -5.409116
    153          1           0       -1.641154    0.520497   -5.424711
    154          1           0       -0.300382    1.219224   -4.431554
    155          1           0       -1.080152    4.273377   -0.385726
    156          1           0       -1.666275    8.543723   -0.326753
    157          1           0       -2.948609    7.952338    0.910112
    158          1           0       -3.210610    8.116409   -0.843933
 ---------------------------------------------------------------------

 SCF Done:  E(RCAM-B3LYP) =  -4069.81029135     A.U. after   19 cycles

 Excitation energies and oscillator strengths:

 Excited State   1:      Singlet-A      1.6459 eV  753.30 nm  f=0.0466  <S**2>=0.000
     309 -> 315       -0.11542
     310 -> 316       -0.11978
     311 -> 313       -0.47564
     312 -> 314        0.49676
 This state for optimization and/or second-order correction.
 Total Energy, E(TD-HF/TD-DFT) =  -4069.74980596
 Copying the excited state density for this state as the 1-particle RhoCI density.

 Excited State   2:      Singlet-A      1.7074 eV  726.17 nm  f=0.6601  <S**2>=0.000
     309 -> 315        0.13196
     310 -> 316       -0.12527
     311 -> 313        0.49396
     312 -> 314        0.47310

 Excited State   3:      Singlet-A      2.1808 eV  568.51 nm  f=0.0072  <S**2>=0.000
     309 -> 313        0.35970
     310 -> 314        0.53515
     311 -> 315       -0.14923
     312 -> 316        0.22379

 Excited State   4:      Singlet-A      2.1972 eV  564.28 nm  f=0.1644  <S**2>=0.000
     309 -> 313        0.53011
     310 -> 314       -0.35472
     311 -> 315       -0.23528
     312 -> 316       -0.15815

 Excited State   5:      Singlet-A      2.3461 eV  528.46 nm  f=0.0000  <S**2>=0.000
     312 -> 313        0.70697

 The electronic state is 1-A.
 Alpha  occ. eigenvalues --  -46.87799 -46.87369 -19.26094 -19.25971 -19.18817
 Alpha  occ. eigenvalues --  -19.18803 -19.18773 -19.18458 -19.18044 -19.17496
 Alpha  occ. eigenvalues --  -14.42461 -14.42224 -14.41458 -14.41067 -14.39404
 Alpha  occ. eigenvalues --  -14.39058 -14.38575 -14.38279 -10.38881 -10.38688
 Alpha  occ. eigenvalues --  -10.35453 -10.35142 -10.34266 -10.33670 -10.31481
 Alpha  occ. eigenvalues --  -10.31478 -10.31401 -10.31000 -10.30916 -10.30746
 Alpha  occ. eigenvalues --  -10.30557 -10.30497 -10.30236 -10.30076 -10.30026
 Alpha  occ. eigenvalues --  -10.29920 -10.29901 -10.29620 -10.29582 -10.29263
 Alpha  occ. eigenvalues --  -10.29168 -10.29079 -10.28781 -10.28640 -10.28503
 Alpha  occ. eigenvalues --  -10.28476 -10.28346 -10.28144 -10.28073 -10.27922
 Alpha  occ. eigenvalues --  -10.27766 -10.27738 -10.27654 -10.27579 -10.27557
 Alpha  occ. eigenvalues --  -10.27520 -10.27488 -10.27402 -10.27389 -10.27302
 Alpha  occ. eigenvalues --  -10.27255 -10.27165 -10.27158 -10.27131 -10.27054
 Alpha  occ. eigenvalues --  -10.26790 -10.26507 -10.26486 -10.26430 -10.26294
 Alpha  occ. eigenvalues --  -10.26251 -10.26220 -10.26036 -10.25963 -10.25860
 Alpha  occ. eigenvalues --  -10.25783 -10.25661 -10.25463 -10.25449 -10.25149
 Alpha  occ. eigenvalues --  -10.24856 -10.24795 -10.24788 -10.24553 -10.24505
 Alpha  occ. eigenvalues --  -10.24385  -3.16542  -3.16120  -1.91423  -1.91010
 Alpha  occ. eigenvalues --   -1.91002  -1.90852  -1.90591  -1.90427  -1.16438
 Alpha  occ. eigenvalues --   -1.16262  -1.08485  -1.08078  -1.07219  -1.06715
 Alpha  occ. eigenvalues --   -1.06549  -1.06428  -1.04585  -1.04207  -1.03768
 Alpha  occ. eigenvalues --   -1.03369  -1.03229  -1.02739  -1.02408  -1.01803
 Alpha  occ. eigenvalues --   -0.91934  -0.91617  -0.89552  -0.89220  -0.89218
 Alpha  occ. eigenvalues --   -0.88919  -0.88319  -0.87962  -0.87840  -0.87689
 Alpha  occ. eigenvalues --   -0.87445  -0.87403  -0.87282  -0.86854  -0.85007
 Alpha  occ. eigenvalues --   -0.84752  -0.83973  -0.83618  -0.82987  -0.82692
 Alpha  occ. eigenvalues --   -0.82652  -0.82396  -0.81513  -0.81268  -0.80565
 Alpha  occ. eigenvalues --   -0.80141  -0.78795  -0.78342  -0.77241  -0.76936
 Alpha  occ. eigenvalues --   -0.76891  -0.76631  -0.75894  -0.75550  -0.74908
 Alpha  occ. eigenvalues --   -0.74527  -0.72771  -0.72393  -0.71668  -0.71295
 Alpha  occ. eigenvalues --   -0.69976  -0.69533  -0.68888  -0.68570  -0.67625
 Alpha  occ. eigenvalues --   -0.67290  -0.67257  -0.66961  -0.65298  -0.64998
 Alpha  occ. eigenvalues --   -0.64837  -0.64606  -0.64482  -0.64364  -0.64291
 Alpha  occ. eigenvalues --   -0.63935  -0.62198  -0.61945  -0.60452  -0.60065
 Alpha  occ. eigenvalues --   -0.59817  -0.59532  -0.58978  -0.58687  -0.58481
 Alpha  occ. eigenvalues --   -0.58101  -0.57498  -0.57278  -0.57128  -0.56915
 Alpha  occ. eigenvalues --   -0.56294  -0.55900  -0.55885  -0.55571  -0.55512
 Alpha  occ. eigenvalues --   -0.55323  -0.55168  -0.54950  -0.54468  -0.54188
 Alpha  occ. eigenvalues --   -0.53918  -0.53673  -0.53297  -0.53223  -0.52947
 Alpha  occ. eigenvalues --   -0.52867  -0.52864  -0.52774  -0.52611  -0.52492
 Alpha  occ. eigenvalues --   -0.52438  -0.52170  -0.51865  -0.51629  -0.51502
 Alpha  occ. eigenvalues --   -0.51410  -0.51167  -0.50857  -0.50601  -0.50250
 Alpha  occ. eigenvalues --   -0.50082  -0.49932  -0.49742  -0.49615  -0.49518
 Alpha  occ. eigenvalues --   -0.49232  -0.49176  -0.49093  -0.48906  -0.48783
 Alpha  occ. eigenvalues --   -0.48551  -0.48460  -0.48396  -0.48249  -0.48105
 Alpha  occ. eigenvalues --   -0.48003  -0.47694  -0.47323  -0.47289  -0.46855
 Alpha  occ. eigenvalues --   -0.46811  -0.46573  -0.46442  -0.46356  -0.46314
 Alpha  occ. eigenvalues --   -0.46128  -0.45989  -0.45767  -0.45755  -0.45477
 Alpha  occ. eigenvalues --   -0.45223  -0.44933  -0.44543  -0.44516  -0.44264
 Alpha  occ. eigenvalues --   -0.44170  -0.44156  -0.44106  -0.43963  -0.43849
 Alpha  occ. eigenvalues --   -0.43808  -0.43593  -0.43438  -0.43394  -0.43258
 Alpha  occ. eigenvalues --   -0.43094  -0.43010  -0.42734  -0.42614  -0.42536
 Alpha  occ. eigenvalues --   -0.42520  -0.42304  -0.42037  -0.41712  -0.41670
 Alpha  occ. eigenvalues --   -0.41560  -0.41280  -0.41214  -0.41137  -0.40909
 Alpha  occ. eigenvalues --   -0.40846  -0.40702  -0.40598  -0.40486  -0.40471
 Alpha  occ. eigenvalues --   -0.40296  -0.40230  -0.40013  -0.39529  -0.39208
 Alpha  occ. eigenvalues --   -0.38511  -0.38110  -0.37793  -0.37430  -0.37348
 Alpha  occ. eigenvalues --   -0.37277  -0.37005  -0.36928  -0.36613  -0.36432
 Alpha  occ. eigenvalues --   -0.36117  -0.35928  -0.34280  -0.33950  -0.33593
 Alpha  occ. eigenvalues --   -0.33485  -0.33158  -0.32871  -0.31347  -0.31027
 Alpha  occ. eigenvalues --   -0.31018  -0.30670  -0.29901  -0.29441  -0.29397
 Alpha  occ. eigenvalues --   -0.29286  -0.29027  -0.28830  -0.24077  -0.23728
 Alpha  occ. eigenvalues --   -0.21130  -0.20821
 Alpha virt. eigenvalues --   -0.08765  -0.08473  -0.01757  -0.01401  -0.00050
 Alpha virt. eigenvalues --    0.00267   0.02256   0.02598   0.02966   0.03562
 Alpha virt. eigenvalues --    0.04691   0.04986   0.05270   0.05570   0.06119

 Mulliken charges:
               1
     1  Mg   0.838404
     2  C   -0.002753
     3  C   -0.094740
     4  C   -0.045874
     5  C   -0.064765
     6  N   -0.256483
     7  C   -0.053043
     8  C   -0.013538
     9  C   -0.086838
    10  C    0.045735
    11  C    0.104833
    12  C    0.053603
    13  C   -0.071213
    14  H    0.035030
    15  N   -0.433082
    16  C    0.168024
    17  C   -0.177631
    18  C   -0.004138
    19  C    0.148667
    20  C    0.110304
    21  C    0.012362
    22  O   -0.249649
    23  C    0.062571
    24  N   -0.341050
    25  C    0.041010
    26  C   -0.028196
    27  C   -0.023856
    28  C    0.074940
    29  C    0.076140
    30  C    0.035273
    31  C   -0.004846
    32  N   -0.310666
    33  C    0.080209
    34  C   -0.169966
    35  C    0.009695
    36  C    0.083089
    37  C    0.126713
    38  C    0.048707
    39  O   -0.185365
    40  C   -0.006282
    41  C    0.213801
    42  O   -0.253937
    43  O   -0.305739
    44  C    0.156208
    45  H   -0.017925
    46  H   -0.017008
    47  H   -0.041692
    48  H    0.001513
    49  H   -0.004817
    50  H    0.025768
    51  H    0.016544
    52  H    0.016416
    53  H    0.009499
    54  H    0.043971
    55  H    0.018699
    56  H    0.016930
    57  H    0.005383
    58  H    0.026817
    59  H    0.038502
    60  H    0.037171
    61  H    0.035833
    62  H    0.030946
    63  H    0.016160
    64  H    0.009748
    65  H    0.023162
    66  H    0.012772
    67  H    0.004771
    68  H    0.006336
    69  H    0.004672
    70  H    0.008710
    71  H    0.015289
    72  H    0.030239
    73  H    0.049765
    74  H    0.008284
    75  H    0.046151
    76  H    0.034852
    77  H    0.043069
    78  H    0.044284
    79  H    0.057854
    80  Mg   0.836500
    81  C   -0.016085
    82  C   -0.088221
    83  C   -0.045807
    84  C   -0.065834
    85  N   -0.254140
    86  C   -0.049860
    87  C   -0.014763
    88  C   -0.090567
    89  C    0.045120
    90  C    0.113890
    91  C    0.062727
    92  C   -0.077071
    93  H    0.034236
    94  N   -0.423285
    95  C    0.162156
    96  C   -0.175693
    97  C   -0.008483
    98  C    0.151577
    99  C    0.099828
   100  C    0.015006
   101  O   -0.253920
   102  C    0.061461
   103  N   -0.350191
   104  C    0.037230
   105  C   -0.019645
   106  C   -0.034831
   107  C    0.089709
   108  C    0.073615
   109  C    0.034863
   110  C   -0.007497
   111  N   -0.324646
   112  C    0.078921
   113  C   -0.163237
   114  C    0.005039
   115  C    0.094882
   116  C    0.130910
   117  C    0.049009
   118  O   -0.181345
   119  C   -0.001580
   120  C    0.210501
   121  O   -0.252517
   122  O   -0.304385
   123  C    0.152562
   124  H   -0.021473
   125  H   -0.016250
   126  H   -0.041329
   127  H    0.000084
   128  H   -0.005493
   129  H    0.024514
   130  H    0.013586
   131  H    0.013407
   132  H    0.013565
   133  H    0.038034
   134  H    0.019770
   135  H    0.018768
   136  H    0.007620
   137  H    0.024755
   138  H    0.038905
   139  H    0.037603
   140  H    0.035639
   141  H    0.033510
   142  H    0.013771
   143  H    0.011798
   144  H    0.024456
   145  H    0.012581
   146  H    0.005354
   147  H    0.005574
   148  H    0.002839
   149  H    0.010787
   150  H    0.017406
   151  H    0.030609
   152  H    0.046397
   153  H    0.005876
   154  H    0.051433
   155  H    0.045672
   156  H    0.042783
   157  H    0.047836
   158  H    0.053141
 Sum of Mulliken charges =  -0.00000

 Dipole moment (field-independent basis, Debye):
    X=              1.7747    Y=             -1.6544    Z=              7.8864  Tot=              8.2512
 Quadrupole moment (field-independent basis, Debye-Ang):
   XX=           -509.7557   YY=           -535.2400   ZZ=           -460.2776
   XY=            -17.4145   XZ=              1.0244   YZ=             54.2216

 Normal termination of Gaussian 16 at Fri Sep 10 03:15:30 2021.
