 Gaussian 16, Revision A.03,
 Gaussian 16:  ES64L-G16RevA.03 25-Dec-2016

 -----------------------------------
 #p cam-b3lyp/Def2SVP td=(nstates=5)
 -----------------------------------

 --------------------------------
 TDDFT excited states in gaussian
 --------------------------------
 Symbolic Z-matrix:
 Charge =  0 Multiplicity = 1

                         Standard orientation:
 ---------------------------------------------------------------------
 Center     Atomic      Atomic             Coordinates (Angstroms)
 Number     Number       Type             X           Y           Z
 ---------------------------------------------------------------------
      1         12           0        4.701140   -0.345468    0.362157
      2          6           0        4.776620    2.764701   -1.407975
      3          6           0        5.287505    1.434037    3.213929
      4          6           0        5.090449   -3.105390    1.874734
      5          6           0        5.253160   -1.928541   -2.693136
      6          7           0        4.976428    1.820361    0.728285
      7          6           0        4.922673    2.913039   -0.026921
      8          6           0        4.960315    4.235371    0.796119
      9          6           0        5.681621    3.693278    2.110596
     10          6           0        5.262223    2.235812    2.034290
     11          6           0        7.203596    3.770443    2.046246
     12          6           0        3.526692    4.779790    1.112448
     13          6           0        3.473653    6.222593    1.623190
     14          1           0        2.353939    7.064224    1.229177
     15          7           0        4.642662   -0.768744    2.290956
     16          6           0        4.892960    0.082361    3.314801
     17          6           0        4.720373   -0.707544    4.552922
     18          6           0        4.535470   -2.132557    4.161458
     19          6           0        4.778084   -2.062142    2.743163
     20          6           0        4.692819   -0.097777    5.920831
     21          6           0        4.204578   -3.364318    4.943382
     22          8           0        4.319474   -4.536701    4.446501
     23          6           0        3.822080   -3.164646    6.352946
     24          7           0        5.330676   -2.233493   -0.267667
     25          6           0        5.353472   -3.270530    0.576738
     26          6           0        5.561767   -4.564371   -0.153007
     27          6           0        5.433907   -4.220879   -1.707169
     28          6           0        5.244710   -2.687924   -1.595259
     29          6           0        6.899985   -5.270432    0.105181
     30          6           0        4.398775   -5.034106   -2.524225
     31          6           0        2.998877   -4.686743   -2.069559
     32          7           0        4.795004    0.258285   -1.720562
     33          6           0        5.059330   -0.563713   -2.825607
     34          6           0        5.126681    0.312552   -4.009538
     35          6           0        4.911911    1.593747   -3.505297
     36          6           0        4.748513    1.525342   -2.092175
     37          6           0        5.418782   -0.103239   -5.338533
     38          6           0        4.806965    3.007419   -3.828364
     39          8           0        4.769018    3.657468   -4.874064
     40          6           0        4.836553    3.835684   -2.468610
     41          6           0        3.714532    4.836473   -2.521524
     42          8           0        2.523651    4.463567   -2.511009
     43          8           0        4.209853    6.069819   -2.336978
     44          6           0        3.144665    7.107793   -2.348732
     45          1           0        5.701208    1.857560    4.131218
     46          1           0        5.124280   -4.092046    2.341427
     47          1           0        5.337883   -2.361267   -3.691646
     48          1           0        5.553320    5.032872    0.348053
     49          1           0        5.283089    4.155498    3.013506
     50          1           0        7.545951    4.065986    1.054597
     51          1           0        7.556338    2.767527    2.287546
     52          1           0        7.591932    4.421314    2.830044
     53          1           0        3.128938    4.259756    1.983893
     54          1           0        2.875945    4.681001    0.242910
     55          1           0        4.418420    6.740128    1.454422
     56          1           0        3.368635    6.197290    2.707870
     57          1           0        5.020079    0.941032    5.902913
     58          1           0        5.449918   -0.610892    6.513472
     59          1           0        3.718376   -0.203816    6.397852
     60          1           0        4.635695   -2.665150    6.879333
     61          1           0        3.534521   -4.146066    6.728411
     62          1           0        2.968536   -2.487394    6.394652
     63          1           0        4.797574   -5.292449    0.115947
     64          1           0        6.373084   -4.375573   -2.238855
     65          1           0        6.792691   -6.289331    0.478060
     66          1           0        7.475447   -4.658562    0.799262
     67          1           0        7.568843   -5.310632   -0.754139
     68          1           0        4.535638   -6.101492   -2.354219
     69          1           0        4.464049   -4.858253   -3.598034
     70          1           0        2.859186   -5.328023   -1.200032
     71          1           0        2.275442   -4.924386   -2.850187
     72          1           0        2.936634   -3.653950   -1.726119
     73          1           0        4.715355    0.422425   -5.984163
     74          1           0        5.323379   -1.183549   -5.445443
     75          1           0        6.449958    0.236401   -5.434335
     76          1           0        5.812500    4.317233   -2.416069
     77          1           0        3.415813    7.837341   -3.111931
     78          1           0        3.045880    7.462059   -1.322505
     79          1           0        2.165193    6.789294   -2.707246
     80         12           0       -4.253456   -0.998133   -0.137615
     81          6           0       -6.934140    1.367137    0.176202
     82          6           0       -2.128253    1.662498   -0.335490
     83          6           0       -1.931217   -3.034009   -0.865496
     84          6           0       -6.637954   -3.369202   -1.053009
     85          7           0       -4.605443    1.184612   -0.074628
     86          6           0       -5.658857    1.966055    0.109810
     87          6           0       -5.318834    3.467304    0.310258
     88          6           0       -3.896401    3.493227   -0.434660
     89          6           0       -3.493872    2.032326   -0.243780
     90          6           0       -4.002653    3.768524   -1.925376
     91          6           0       -5.180952    3.851835    1.825228
     92          6           0       -5.156210    5.355684    2.107322
     93          1           0       -5.788941    5.845189    3.329004
     94          7           0       -2.282519   -0.780426   -0.056642
     95          6           0       -1.587717    0.374249   -0.129150
     96          6           0       -0.168706   -0.003922   -0.042263
     97          6           0       -0.075922   -1.488778   -0.078356
     98          6           0       -1.454917   -1.832244   -0.362047
     99          6           0        0.931291    1.000698    0.142535
    100          6           0        1.067443   -2.441422    0.098812
    101          8           0        0.964822   -3.681271   -0.209548
    102          6           0        2.338940   -1.861779    0.555750
    103          7           0       -4.249792   -2.862332   -1.058004
    104          6           0       -3.108916   -3.558589   -1.204840
    105          6           0       -3.388002   -4.977723   -1.639057
    106          6           0       -4.972275   -5.160063   -1.519017
    107          6           0       -5.361445   -3.724419   -1.103230
    108          6           0       -2.940044   -5.340535   -3.054713
    109          6           0       -5.480700   -6.344207   -0.651857
    110          6           0       -5.143418   -6.101597    0.801676
    111          7           0       -6.410731   -1.082133   -0.222170
    112          6           0       -7.205727   -2.164033   -0.659854
    113          6           0       -8.610342   -1.706605   -0.643887
    114          6           0       -8.532367   -0.372489   -0.216635
    115          6           0       -7.173286   -0.016963   -0.002201
    116          6           0       -9.740397   -2.476176   -1.039973
    117          6           0       -9.289873    0.819108    0.091526
    118          8           0      -10.487118    1.089944    0.175285
    119          6           0       -8.278883    2.036808    0.238114
    120          6           0       -8.631855    2.784925    1.494405
    121          8           0       -8.501119    2.247181    2.608115
    122          8           0       -8.856605    4.076102    1.189936
    123          6           0       -9.199628    4.861495    2.405389
    124          1           0       -1.404358    2.420867   -0.635047
    125          1           0       -1.178185   -3.808564   -1.028254
    126          1           0       -7.448801   -4.078876   -1.230675
    127          1           0       -6.002972    4.156161   -0.170588
    128          1           0       -3.196292    4.151165    0.073600
    129          1           0       -5.029263    3.784233   -2.260010
    130          1           0       -3.458420    2.969499   -2.411605
    131          1           0       -3.472047    4.691254   -2.177074
    132          1           0       -4.176718    3.578701    2.174006
    133          1           0       -5.952646    3.387527    2.407918
    134          1           0       -5.486212    5.942913    1.241755
    135          1           0       -4.118809    5.663100    2.259972
    136          1           0        0.575524    2.023519   -0.032602
    137          1           0        1.660885    0.826480   -0.655715
    138          1           0        1.433190    0.903024    1.107538
    139          1           0        2.663346   -1.100930   -0.150171
    140          1           0        3.008710   -2.710253    0.708603
    141          1           0        2.168105   -1.352599    1.510828
    142          1           0       -2.901753   -5.686499   -0.980036
    143          1           0       -5.437131   -5.340193   -2.499470
    144          1           0       -2.247038   -6.202421   -3.085807
    145          1           0       -2.482277   -4.468209   -3.501968
    146          1           0       -3.746465   -5.561346   -3.751936
    147          1           0       -4.973062   -7.268599   -0.938158
    148          1           0       -6.547178   -6.520551   -0.744267
    149          1           0       -4.107113   -6.444764    0.875154
    150          1           0       -5.798132   -6.681727    1.448852
    151          1           0       -5.153233   -5.030448    1.034486
    152          1           0      -10.511114   -2.300479   -0.301309
    153          1           0       -9.494721   -3.533383   -1.115598
    154          1           0       -9.946212   -2.031643   -2.017358
    155          1           0       -8.383746    2.658612   -0.651795
    156          1           0      -10.161517    5.346187    2.211656
    157          1           0       -8.331102    5.521404    2.589626
    158          1           0       -9.419218    4.310758    3.312539
 ---------------------------------------------------------------------

 SCF Done:  E(RCAM-B3LYP) =  -4069.80669032     A.U. after   19 cycles

 Excitation energies and oscillator strengths:

 Excited State   1:      Singlet-A      1.6590 eV  747.33 nm  f=0.4400  <S**2>=0.000
     310 -> 316       -0.14631
     311 -> 313        0.24469
     312 -> 314        0.63130
 This state for optimization and/or second-order correction.
 Total Energy, E(TD-HF/TD-DFT) =  -4069.74572223
 Copying the excited state density for this state as the 1-particle RhoCI density.

 Excited State   2:      Singlet-A      1.6647 eV  744.76 nm  f=0.3717  <S**2>=0.000
     309 -> 315       -0.15793
     311 -> 313        0.63475
     312 -> 314       -0.25571

 Excited State   3:      Singlet-A      2.1654 eV  572.57 nm  f=0.0027  <S**2>=0.000
     309 -> 313        0.49983
     310 -> 314       -0.40471
     311 -> 315        0.19686
     312 -> 316       -0.15146

 Excited State   4:      Singlet-A      2.1852 eV  567.39 nm  f=0.1675  <S**2>=0.000
     309 -> 313        0.40004
     310 -> 314        0.49684
     311 -> 315        0.17725
     312 -> 316        0.20245

 Excited State   5:      Singlet-A      2.2999 eV  539.09 nm  f=0.0001  <S**2>=0.000
     312 -> 313        0.69798

 The electronic state is 1-A.
 Alpha  occ. eigenvalues --  -46.87905 -46.87593 -19.26772 -19.26313 -19.19573
 Alpha  occ. eigenvalues --  -19.19224 -19.19125 -19.18887 -19.18472 -19.18001
 Alpha  occ. eigenvalues --  -14.42654 -14.42414 -14.41321 -14.41276 -14.39408
 Alpha  occ. eigenvalues --  -14.39316 -14.38809 -14.38537 -10.39590 -10.39052
 Alpha  occ. eigenvalues --  -10.35907 -10.35517 -10.34697 -10.34176 -10.32165
 Alpha  occ. eigenvalues --  -10.31733 -10.31639 -10.31201 -10.31160 -10.30937
 Alpha  occ. eigenvalues --  -10.30752 -10.30581 -10.30390 -10.30252 -10.30249
 Alpha  occ. eigenvalues --  -10.30087 -10.29864 -10.29851 -10.29764 -10.29491
 Alpha  occ. eigenvalues --  -10.29412 -10.29382 -10.29102 -10.29014 -10.28655
 Alpha  occ. eigenvalues --  -10.28615 -10.28592 -10.28399 -10.28337 -10.28043
 Alpha  occ. eigenvalues --  -10.27937 -10.27935 -10.27905 -10.27749 -10.27640
 Alpha  occ. eigenvalues --  -10.27613 -10.27495 -10.27487 -10.27479 -10.27471
 Alpha  occ. eigenvalues --  -10.27430 -10.27348 -10.27221 -10.27217 -10.27141
 Alpha  occ. eigenvalues --  -10.27129 -10.27122 -10.26995 -10.26624 -10.26461
 Alpha  occ. eigenvalues --  -10.26460 -10.26122 -10.26104 -10.26001 -10.25859
 Alpha  occ. eigenvalues --  -10.25797 -10.25701 -10.25387 -10.25257 -10.25219
 Alpha  occ. eigenvalues --  -10.25110 -10.24890 -10.24817 -10.24695 -10.24639
 Alpha  occ. eigenvalues --  -10.23013  -3.16630  -3.16342  -1.91526  -1.91224
 Alpha  occ. eigenvalues --   -1.91095  -1.90941  -1.90813  -1.90651  -1.17125
 Alpha  occ. eigenvalues --   -1.16607  -1.08942  -1.08608  -1.07498  -1.07279
 Alpha  occ. eigenvalues --   -1.07168  -1.06909  -1.04809  -1.04411  -1.03873
 Alpha  occ. eigenvalues --   -1.03606  -1.03402  -1.02980  -1.02552  -1.02047
 Alpha  occ. eigenvalues --   -0.92235  -0.91919  -0.89549  -0.89440  -0.89395
 Alpha  occ. eigenvalues --   -0.89001  -0.88171  -0.88114  -0.88026  -0.87829
 Alpha  occ. eigenvalues --   -0.87736  -0.87579  -0.87426  -0.87296  -0.85253
 Alpha  occ. eigenvalues --   -0.84937  -0.83871  -0.83740  -0.83471  -0.82944
 Alpha  occ. eigenvalues --   -0.82688  -0.82609  -0.81855  -0.81555  -0.80793
 Alpha  occ. eigenvalues --   -0.80452  -0.78952  -0.78632  -0.77394  -0.77070
 Alpha  occ. eigenvalues --   -0.77012  -0.76820  -0.76126  -0.75718  -0.74751
 Alpha  occ. eigenvalues --   -0.74732  -0.72912  -0.72617  -0.71813  -0.71495
 Alpha  occ. eigenvalues --   -0.69710  -0.69403  -0.69040  -0.68830  -0.67839
 Alpha  occ. eigenvalues --   -0.67710  -0.67481  -0.67279  -0.65568  -0.65187
 Alpha  occ. eigenvalues --   -0.65071  -0.64760  -0.64710  -0.64612  -0.64156
 Alpha  occ. eigenvalues --   -0.63987  -0.62527  -0.62225  -0.60936  -0.60326
 Alpha  occ. eigenvalues --   -0.60017  -0.59691  -0.59126  -0.58926  -0.58640
 Alpha  occ. eigenvalues --   -0.58370  -0.57925  -0.57533  -0.57437  -0.57283
 Alpha  occ. eigenvalues --   -0.56547  -0.56307  -0.56276  -0.55944  -0.55734
 Alpha  occ. eigenvalues --   -0.55633  -0.55422  -0.55207  -0.54559  -0.54460
 Alpha  occ. eigenvalues --   -0.54193  -0.53914  -0.53710  -0.53444  -0.53399
 Alpha  occ. eigenvalues --   -0.53318  -0.53139  -0.53080  -0.52820  -0.52804
 Alpha  occ. eigenvalues --   -0.52388  -0.52120  -0.51900  -0.51870  -0.51791
 Alpha  occ. eigenvalues --   -0.51688  -0.51316  -0.51148  -0.50925  -0.50627
 Alpha  occ. eigenvalues --   -0.50398  -0.50123  -0.49866  -0.49750  -0.49636
 Alpha  occ. eigenvalues --   -0.49497  -0.49448  -0.49255  -0.49143  -0.49033
 Alpha  occ. eigenvalues --   -0.48861  -0.48754  -0.48526  -0.48468  -0.48365
 Alpha  occ. eigenvalues --   -0.48149  -0.47801  -0.47605  -0.47301  -0.47061
 Alpha  occ. eigenvalues --   -0.46913  -0.46744  -0.46617  -0.46560  -0.46513
 Alpha  occ. eigenvalues --   -0.46211  -0.46109  -0.46038  -0.45934  -0.45762
 Alpha  occ. eigenvalues --   -0.45269  -0.45107  -0.44875  -0.44627  -0.44452
 Alpha  occ. eigenvalues --   -0.44376  -0.44289  -0.44219  -0.44083  -0.43998
 Alpha  occ. eigenvalues --   -0.43981  -0.43806  -0.43727  -0.43504  -0.43441
 Alpha  occ. eigenvalues --   -0.43309  -0.43126  -0.42978  -0.42875  -0.42819
 Alpha  occ. eigenvalues --   -0.42526  -0.42487  -0.41991  -0.41906  -0.41824
 Alpha  occ. eigenvalues --   -0.41762  -0.41497  -0.41309  -0.41259  -0.41054
 Alpha  occ. eigenvalues --   -0.40934  -0.40879  -0.40856  -0.40615  -0.40530
 Alpha  occ. eigenvalues --   -0.40421  -0.40246  -0.39767  -0.39380  -0.38608
 Alpha  occ. eigenvalues --   -0.38296  -0.38284  -0.38005  -0.37581  -0.37507
 Alpha  occ. eigenvalues --   -0.37197  -0.37150  -0.37109  -0.37004  -0.36732
 Alpha  occ. eigenvalues --   -0.36189  -0.36153  -0.34465  -0.34243  -0.34183
 Alpha  occ. eigenvalues --   -0.33820  -0.33377  -0.33099  -0.31685  -0.31395
 Alpha  occ. eigenvalues --   -0.31198  -0.30907  -0.30330  -0.29904  -0.29631
 Alpha  occ. eigenvalues --   -0.29525  -0.29276  -0.29153  -0.24256  -0.23954
 Alpha  occ. eigenvalues --   -0.21317  -0.21040
 Alpha virt. eigenvalues --   -0.08992  -0.08751  -0.01989  -0.01717  -0.00310
 Alpha virt. eigenvalues --   -0.00202   0.01959   0.02187   0.03270   0.04395
 Alpha virt. eigenvalues --    0.04555   0.04824   0.05124   0.05201   0.06253

 Mulliken charges:
               1
     1  Mg   0.589802
     2  C   -0.001748
     3  C   -0.093227
     4  C   -0.035046
     5  C   -0.057044
     6  N   -0.247717
     7  C   -0.056623
     8  C   -0.012443
     9  C   -0.085513
    10  C    0.045293
    11  C    0.104738
    12  C    0.050084
    13  C   -0.071354
    14  H    0.033678
    15  N   -0.418065
    16  C    0.166765
    17  C   -0.178643
    18  C   -0.004686
    19  C    0.131377
    20  C    0.111044
    21  C    0.011862
    22  O   -0.246621
    23  C    0.062881
    24  N   -0.314689
    25  C    0.019460
    26  C   -0.017012
    27  C   -0.024986
    28  C    0.080811
    29  C    0.078313
    30  C    0.042339
    31  C    0.007055
    32  N   -0.307499
    33  C    0.079707
    34  C   -0.169248
    35  C    0.008188
    36  C    0.076543
    37  C    0.127515
    38  C    0.045790
    39  O   -0.187860
    40  C   -0.007630
    41  C    0.213535
    42  O   -0.262570
    43  O   -0.303424
    44  C    0.157615
    45  H   -0.018631
    46  H   -0.014165
    47  H   -0.041026
    48  H    0.001150
    49  H   -0.004603
    50  H    0.025660
    51  H    0.018032
    52  H    0.017007
    53  H    0.010694
    54  H    0.041627
    55  H    0.019770
    56  H    0.019108
    57  H    0.005534
    58  H    0.027257
    59  H    0.039131
    60  H    0.037315
    61  H    0.036944
    62  H    0.030799
    63  H    0.019371
    64  H    0.007349
    65  H    0.023326
    66  H    0.010727
    67  H    0.004255
    68  H    0.001701
    69  H   -0.003331
    70  H    0.016783
    71  H    0.009096
    72  H    0.020110
    73  H    0.047081
    74  H    0.011327
    75  H    0.046363
    76  H    0.036117
    77  H    0.044566
    78  H    0.046604
    79  H    0.051438
    80  Mg   0.838663
    81  C   -0.016626
    82  C   -0.090076
    83  C   -0.045735
    84  C   -0.065280
    85  N   -0.254359
    86  C   -0.049534
    87  C   -0.015280
    88  C   -0.089669
    89  C    0.043730
    90  C    0.113960
    91  C    0.062626
    92  C   -0.077348
    93  H    0.033527
    94  N   -0.423835
    95  C    0.162178
    96  C   -0.178112
    97  C    0.006114
    98  C    0.152449
    99  C    0.072684
   100  C    0.045494
   101  O   -0.242072
   102  C   -0.005931
   103  N   -0.350439
   104  C    0.037295
   105  C   -0.020003
   106  C   -0.034879
   107  C    0.089449
   108  C    0.073385
   109  C    0.034780
   110  C   -0.007654
   111  N   -0.324065
   112  C    0.078678
   113  C   -0.163391
   114  C    0.002453
   115  C    0.096079
   116  C    0.131514
   117  C    0.042273
   118  O   -0.188070
   119  C    0.000971
   120  C    0.211287
   121  O   -0.251365
   122  O   -0.305412
   123  C    0.152170
   124  H   -0.007876
   125  H   -0.015984
   126  H   -0.040722
   127  H   -0.000674
   128  H   -0.003685
   129  H    0.021060
   130  H    0.017761
   131  H    0.018829
   132  H    0.013433
   133  H    0.037046
   134  H    0.021173
   135  H    0.019204
   136  H    0.019996
   137  H    0.057210
   138  H    0.056078
   139  H    0.108410
   140  H    0.091133
   141  H    0.099148
   142  H    0.014135
   143  H    0.012503
   144  H    0.023913
   145  H    0.012328
   146  H    0.005952
   147  H    0.006002
   148  H    0.003620
   149  H    0.011093
   150  H    0.017806
   151  H    0.030115
   152  H    0.045751
   153  H    0.008361
   154  H    0.047053
   155  H    0.035469
   156  H    0.043815
   157  H    0.049427
   158  H    0.053258
 Sum of Mulliken charges =  -0.00000

 Dipole moment (field-independent basis, Debye):
    X=              4.6752    Y=              2.6487    Z=              2.7186  Tot=              6.0220
 Quadrupole moment (field-independent basis, Debye-Ang):
   XX=           -553.3714   YY=           -472.2863   ZZ=           -510.2678
   XY=             15.5893   XZ=             30.5522   YZ=             42.7009

 Normal termination of Gaussian 16 at Fri Sep 10 08:14:30 2021.
