 Gaussian 16, Revision A.03,
 Gaussian 16:  ES64L-G16RevA.03 25-Dec-2016

 -----------------------------------
 #p cam-b3lyp/Def2SVP td=(nstates=5)
 -----------------------------------

 --------------------------------
 TDDFT excited states in gaussian
 --------------------------------
 Symbolic Z-matrix:
 Charge =  0 Multiplicity = 1

                         Standard orientation:
 ---------------------------------------------------------------------
 Center     Atomic      Atomic             Coordinates (Angstroms)
 Number     Number       Type             X           Y           Z
 ---------------------------------------------------------------------
      1         12           0       15.787066   -0.627463    0.415039
      2          6           0       16.088992    2.154891   -1.816454
      3          6           0       16.746450    1.473574    2.926670
      4          6           0       15.968009   -3.158957    2.316464
      5          6           0       15.965321   -2.700129   -2.381020
      6          7           0       16.320779    1.520935    0.428469
      7          6           0       16.338679    2.488143   -0.483321
      8          6           0       16.573603    3.904139    0.122598
      9          6           0       17.314018    3.481726    1.469948
     10          6           0       16.733517    2.088840    1.639692
     11          6           0       18.828010    3.368375    1.323386
     12          6           0       15.231475    4.654756    0.417549
     13          6           0       15.369616    6.153421    0.700878
     14          1           0       14.325848    7.053470    0.234179
     15          7           0       15.806411   -0.750094    2.386697
     16          6           0       16.213548    0.207908    3.253737
     17          6           0       16.035264   -0.363683    4.605838
     18          6           0       15.670703   -1.799114    4.448587
     19          6           0       15.828106   -1.968959    3.026703
     20          6           0       16.162433    0.441168    5.862736
     21          6           0       15.257750   -2.853538    5.426234
     22          8           0       15.211468   -4.091925    5.111863
     23          6           0       14.990610   -2.403292    6.804260
     24          7           0       16.164372   -2.648962    0.056124
     25          6           0       16.127576   -3.544653    1.048780
     26          6           0       16.145704   -4.947854    0.519030
     27          6           0       15.956818   -4.826011   -1.061865
     28          6           0       15.944194   -3.281918   -1.179711
     29          6           0       17.412344   -5.760718    0.820507
     30          6           0       14.788602   -5.623552   -1.694019
     31          6           0       13.467219   -5.049880   -1.233643
     32          7           0       15.812713   -0.354630   -1.738087
     33          6           0       15.914018   -1.356815   -2.713811
     34          6           0       16.000852   -0.679976   -4.020875
     35          6           0       15.960454    0.678126   -3.711406
     36          6           0       15.881515    0.839831   -2.298639
     37          6           0       16.159826   -1.319808   -5.281738
     38          6           0       15.990442    2.030644   -4.243998
     39          8           0       15.956921    2.518293   -5.374735
     40          6           0       16.197696    3.042082   -3.031617
     41          6           0       15.190944    4.149268   -3.186211
     42          8           0       13.969531    3.925188   -3.062501
     43          8           0       15.829154    5.329191   -3.218017
     44          6           0       14.885488    6.472288   -3.340400
     45          1           0       17.262015    1.976661    3.747058
     46          1           0       15.923453   -4.062504    2.928065
     47          1           0       15.937936   -3.283106   -3.303430
     48          1           0       17.220408    4.550763   -0.470652
     49          1           0       17.027231    4.116508    2.308117
     50          1           0       19.136363    3.471090    0.283055
     51          1           0       19.083552    2.377806    1.700168
     52          1           0       19.334749    4.077882    1.978057
     53          1           0       14.835879    4.320327    1.376571
     54          1           0       14.519405    4.505569   -0.394870
     55          1           0       16.352593    6.525074    0.410124
     56          1           0       15.332240    6.301843    1.780124
     57          1           0       16.599653    1.419881    5.669072
     58          1           0       16.895231   -0.064076    6.491580
     59          1           0       15.214850    0.522773    6.395426
     60          1           0       15.886103   -1.930772    7.208445
     61          1           0       14.621984   -3.277309    7.340040
     62          1           0       14.220803   -1.631421    6.780543
     63          1           0       15.325210   -5.532682    0.932783
     64          1           0       16.837363   -5.167571   -1.606523
     65          1           0       17.218256   -6.693186    1.351108
     66          1           0       18.094670   -5.124889    1.383929
     67          1           0       18.016280   -6.006558   -0.052557
     68          1           0       14.818377   -6.662526   -1.367533
     69          1           0       14.803737   -5.617852   -2.783968
     70          1           0       13.314200   -5.534090   -0.269819
     71          1           0       12.673545   -5.313641   -1.933446
     72          1           0       13.540601   -3.977523   -1.051565
     73          1           0       15.478243   -0.816434   -5.967324
     74          1           0       15.940038   -2.385140   -5.215676
     75          1           0       17.213713   -1.122198   -5.477004
     76          1           0       17.221854    3.407547   -3.099860
     77          1           0       15.185386    7.043427   -4.219089
     78          1           0       14.892111    6.983997   -2.377843
     79          1           0       13.856065    6.221953   -3.599165
     80         12           0      -15.932966    0.551102    0.483179
     81          6           0      -15.658894   -1.767072   -2.242621
     82          6           0      -16.364438   -2.140734    2.533167
     83          6           0      -16.626082    2.573246    2.827945
     84          6           0      -16.619401    3.025851   -1.872687
     85          7           0      -15.984625   -1.622976    0.079486
     86          6           0      -15.807307   -2.389833   -0.985805
     87          6           0      -15.707634   -3.907663   -0.676300
     88          6           0      -16.504909   -3.921702    0.717630
     89          6           0      -16.244034   -2.484216    1.162897
     90          6           0      -18.004221   -4.105635    0.551562
     91          6           0      -14.223863   -4.384383   -0.494185
     92          6           0      -14.031224   -5.902478   -0.496822
     93          1           0      -12.817647   -6.449046   -1.097633
     94          7           0      -15.937823    0.284241    2.449728
     95          6           0      -16.103336   -0.879602    3.112566
     96          6           0      -16.047065   -0.539605    4.542738
     97          6           0      -15.999748    0.942295    4.671084
     98          6           0      -16.211671    1.333231    3.291829
     99          6           0      -15.962112   -1.578161    5.623298
    100          6           0      -15.809657    1.856520    5.843366
    101          8           0      -16.041034    3.114473    5.760697
    102          6           0      -15.434717    1.222052    7.115520
    103          7           0      -16.742356    2.466024    0.500434
    104          6           0      -16.890381    3.143648    1.652317
    105          6           0      -17.230320    4.592011    1.393340
    106          6           0      -17.041287    4.802868   -0.180633
    107          6           0      -16.695978    3.354325   -0.590344
    108          6           0      -18.637969    5.027840    1.799504
    109          6           0      -16.088213    5.944777   -0.628269
    110          6           0      -14.664814    5.608799   -0.245589
    111          7           0      -15.932580    0.688982   -1.672985
    112          6           0      -16.276586    1.812712   -2.455910
    113          6           0      -16.235412    1.387193   -3.870005
    114          6           0      -15.890015    0.028664   -3.810066
    115          6           0      -15.747158   -0.369759   -2.453473
    116          6           0      -16.543772    2.204370   -4.993950
    117          6           0      -15.624179   -1.161580   -4.585525
    118          8           0      -15.512151   -1.409620   -5.785386
    119          6           0      -15.586501   -2.408500   -3.600555
    120          6           0      -14.363876   -3.221568   -3.927066
    121          8           0      -13.226244   -2.753908   -3.743439
    122          8           0      -14.734729   -4.486983   -4.194554
    123          6           0      -13.555384   -5.335055   -4.513520
    124          1           0      -16.734383   -2.896260    3.226853
    125          1           0      -16.771051    3.338765    3.593740
    126          1           0      -16.725178    3.763055   -2.671446
    127          1           0      -16.202262   -4.551071   -1.394040
    128          1           0      -16.062213   -4.624358    1.418802
    129          1           0      -18.300974   -4.078142   -0.486378
    130          1           0      -18.462731   -3.291762    1.097839
    131          1           0      -18.328855   -5.023644    1.049758
    132          1           0      -13.897115   -4.155300    0.528313
    133          1           0      -13.586882   -3.938012   -1.232858
    134          1           0      -14.916815   -6.429712   -0.871930
    135          1           0      -13.935284   -6.241904    0.537395
    136          1           0      -16.183424   -2.580442    5.236193
    137          1           0      -16.775269   -1.373536    6.328120
    138          1           0      -15.012278   -1.549311    6.161506
    139          1           0      -16.195404    0.497214    7.395559
    140          1           0      -15.257453    2.044525    7.811195
    141          1           0      -14.505359    0.661155    6.966180
    142          1           0      -16.549460    5.249228    1.920213
    143          1           0      -17.991667    5.051341   -0.675477
    144          1           0      -18.644271    5.874083    2.512176
    145          1           0      -19.152052    4.173387    2.219220
    146          1           0      -19.290773    5.307885    0.974505
    147          1           0      -16.338604    6.872728   -0.108303
    148          1           0      -16.130641    6.150477   -1.692638
    149          1           0      -14.609815    5.923365    0.800888
    150          1           0      -13.961072    6.164272   -0.862224
    151          1           0      -14.494779    4.526233   -0.273749
    152          1           0      -15.788625    2.002760   -5.742011
    153          1           0      -16.566545    3.258353   -4.724908
    154          1           0      -17.537181    1.823368   -5.245421
    155          1           0      -16.506726   -2.973898   -3.752458
    156          1           0      -13.741370   -5.785422   -5.493447
    157          1           0      -13.442273   -6.024297   -3.655672
    158          1           0      -12.610103   -4.834234   -4.686917
 ---------------------------------------------------------------------

 SCF Done:  E(RCAM-B3LYP) =  -4069.81175423     A.U. after   19 cycles

 Excitation energies and oscillator strengths:

 Excited State   1:      Singlet-A      1.6753 eV  740.06 nm  f=0.2128  <S**2>=0.000
     310 -> 316       -0.16856
     311 -> 313        0.66641
     312 -> 314        0.16298
     310 <- 316       -0.10162
 This state for optimization and/or second-order correction.
 Total Energy, E(TD-HF/TD-DFT) =  -4069.75018702
 Copying the excited state density for this state as the 1-particle RhoCI density.

 Excited State   2:      Singlet-A      1.6801 eV  737.95 nm  f=0.5646  <S**2>=0.000
     309 -> 315        0.17056
     311 -> 313       -0.16293
     312 -> 314        0.66605
     309 <- 315        0.10212

 Excited State   3:      Singlet-A      2.1861 eV  567.16 nm  f=0.0957  <S**2>=0.000
     310 -> 313        0.64213
     311 -> 316        0.27295

 Excited State   4:      Singlet-A      2.1925 eV  565.50 nm  f=0.1045  <S**2>=0.000
     309 -> 314        0.64036
     312 -> 315       -0.27812

 Excited State   5:      Singlet-A      3.0599 eV  405.19 nm  f=0.0000  <S**2>=0.000
     312 -> 313        0.70711

 The electronic state is 1-A.
 Alpha  occ. eigenvalues --  -46.87758 -46.87661 -19.26342 -19.26240 -19.19154
 Alpha  occ. eigenvalues --  -19.18976 -19.18780 -19.18716 -19.18130 -19.18049
 Alpha  occ. eigenvalues --  -14.42497 -14.42412 -14.41412 -14.41360 -14.39365
 Alpha  occ. eigenvalues --  -14.39352 -14.38600 -14.38548 -10.39084 -10.39036
 Alpha  occ. eigenvalues --  -10.35414 -10.35393 -10.34349 -10.34226 -10.31746
 Alpha  occ. eigenvalues --  -10.31633 -10.31366 -10.31308 -10.31023 -10.30871
 Alpha  occ. eigenvalues --  -10.30531 -10.30470 -10.30398 -10.30360 -10.30170
 Alpha  occ. eigenvalues --  -10.30142 -10.29895 -10.29883 -10.29593 -10.29437
 Alpha  occ. eigenvalues --  -10.29401 -10.29217 -10.28717 -10.28709 -10.28648
 Alpha  occ. eigenvalues --  -10.28495 -10.28405 -10.28327 -10.28139 -10.28078
 Alpha  occ. eigenvalues --  -10.28001 -10.27755 -10.27689 -10.27669 -10.27547
 Alpha  occ. eigenvalues --  -10.27520 -10.27483 -10.27468 -10.27465 -10.27465
 Alpha  occ. eigenvalues --  -10.27445 -10.27414 -10.27378 -10.27365 -10.27118
 Alpha  occ. eigenvalues --  -10.27048 -10.26688 -10.26662 -10.26417 -10.26377
 Alpha  occ. eigenvalues --  -10.26198 -10.26147 -10.26138 -10.26026 -10.25982
 Alpha  occ. eigenvalues --  -10.25935 -10.25850 -10.25804 -10.25403 -10.25402
 Alpha  occ. eigenvalues --  -10.24872 -10.24794 -10.24750 -10.24730 -10.24690
 Alpha  occ. eigenvalues --  -10.24648  -3.16501  -3.16410  -1.91383  -1.91293
 Alpha  occ. eigenvalues --   -1.90969  -1.90881  -1.90811  -1.90718  -1.16636
 Alpha  occ. eigenvalues --   -1.16589  -1.08656  -1.08587  -1.07181  -1.06969
 Alpha  occ. eigenvalues --   -1.06938  -1.06598  -1.04543  -1.04495  -1.03723
 Alpha  occ. eigenvalues --   -1.03663  -1.03196  -1.03039  -1.02373  -1.02112
 Alpha  occ. eigenvalues --   -0.91986  -0.91933  -0.89495  -0.89482  -0.89150
 Alpha  occ. eigenvalues --   -0.89149  -0.88250  -0.88221  -0.87832  -0.87793
 Alpha  occ. eigenvalues --   -0.87684  -0.87635  -0.87237  -0.87121  -0.84998
 Alpha  occ. eigenvalues --   -0.84943  -0.83899  -0.83877  -0.82933  -0.82932
 Alpha  occ. eigenvalues --   -0.82652  -0.82610  -0.81593  -0.81545  -0.80557
 Alpha  occ. eigenvalues --   -0.80441  -0.78760  -0.78636  -0.77180  -0.77144
 Alpha  occ. eigenvalues --   -0.76897  -0.76895  -0.75884  -0.75837  -0.74861
 Alpha  occ. eigenvalues --   -0.74804  -0.72736  -0.72699  -0.71635  -0.71581
 Alpha  occ. eigenvalues --   -0.69870  -0.69758  -0.68834  -0.68826  -0.67603
 Alpha  occ. eigenvalues --   -0.67601  -0.67198  -0.67180  -0.65270  -0.65247
 Alpha  occ. eigenvalues --   -0.64815  -0.64770  -0.64652  -0.64582  -0.64232
 Alpha  occ. eigenvalues --   -0.64204  -0.62275  -0.62256  -0.60405  -0.60341
 Alpha  occ. eigenvalues --   -0.59796  -0.59765  -0.58993  -0.58949  -0.58465
 Alpha  occ. eigenvalues --   -0.58425  -0.57551  -0.57544  -0.57271  -0.57237
 Alpha  occ. eigenvalues --   -0.56272  -0.56204  -0.55937  -0.55882  -0.55483
 Alpha  occ. eigenvalues --   -0.55451  -0.55301  -0.55247  -0.54486  -0.54484
 Alpha  occ. eigenvalues --   -0.53911  -0.53856  -0.53261  -0.53228  -0.53183
 Alpha  occ. eigenvalues --   -0.53140  -0.52900  -0.52875  -0.52719  -0.52669
 Alpha  occ. eigenvalues --   -0.52401  -0.52401  -0.51884  -0.51876  -0.51657
 Alpha  occ. eigenvalues --   -0.51577  -0.51200  -0.51157  -0.50537  -0.50477
 Alpha  occ. eigenvalues --   -0.49995  -0.49980  -0.49882  -0.49869  -0.49488
 Alpha  occ. eigenvalues --   -0.49477  -0.49201  -0.49176  -0.49103  -0.49057
 Alpha  occ. eigenvalues --   -0.48557  -0.48554  -0.48425  -0.48408  -0.48377
 Alpha  occ. eigenvalues --   -0.48339  -0.47657  -0.47594  -0.47260  -0.47119
 Alpha  occ. eigenvalues --   -0.46759  -0.46709  -0.46553  -0.46516  -0.46321
 Alpha  occ. eigenvalues --   -0.46270  -0.46124  -0.46085  -0.45820  -0.45782
 Alpha  occ. eigenvalues --   -0.45210  -0.45165  -0.44538  -0.44513  -0.44475
 Alpha  occ. eigenvalues --   -0.44469  -0.44127  -0.44107  -0.44078  -0.44050
 Alpha  occ. eigenvalues --   -0.43981  -0.43939  -0.43550  -0.43454  -0.43385
 Alpha  occ. eigenvalues --   -0.43348  -0.42989  -0.42927  -0.42899  -0.42658
 Alpha  occ. eigenvalues --   -0.42615  -0.42554  -0.41971  -0.41963  -0.41668
 Alpha  occ. eigenvalues --   -0.41665  -0.41494  -0.41457  -0.41103  -0.40990
 Alpha  occ. eigenvalues --   -0.40831  -0.40787  -0.40722  -0.40698  -0.40534
 Alpha  occ. eigenvalues --   -0.40494  -0.40224  -0.40193  -0.39426  -0.39404
 Alpha  occ. eigenvalues --   -0.38432  -0.38351  -0.37708  -0.37651  -0.37283
 Alpha  occ. eigenvalues --   -0.37266  -0.37224  -0.37198  -0.36766  -0.36671
 Alpha  occ. eigenvalues --   -0.36216  -0.36153  -0.34253  -0.34248  -0.33856
 Alpha  occ. eigenvalues --   -0.33727  -0.33175  -0.33148  -0.31310  -0.31275
 Alpha  occ. eigenvalues --   -0.30997  -0.30973  -0.29989  -0.29953  -0.29412
 Alpha  occ. eigenvalues --   -0.29328  -0.29283  -0.29211  -0.24042  -0.24036
 Alpha  occ. eigenvalues --   -0.21117  -0.21090
 Alpha virt. eigenvalues --   -0.08792  -0.08736  -0.01712  -0.01684  -0.00029
 Alpha virt. eigenvalues --   -0.00021   0.02208   0.02239   0.03163   0.03228
 Alpha virt. eigenvalues --    0.04731   0.04756   0.05141   0.05171   0.06187

 Mulliken charges:
               1
     1  Mg   0.838757
     2  C   -0.002941
     3  C   -0.094125
     4  C   -0.045873
     5  C   -0.063953
     6  N   -0.256775
     7  C   -0.052440
     8  C   -0.014032
     9  C   -0.086992
    10  C    0.046330
    11  C    0.104825
    12  C    0.053459
    13  C   -0.071833
    14  H    0.036228
    15  N   -0.433126
    16  C    0.168431
    17  C   -0.177169
    18  C   -0.004020
    19  C    0.148709
    20  C    0.110193
    21  C    0.012271
    22  O   -0.249670
    23  C    0.062481
    24  N   -0.341144
    25  C    0.041246
    26  C   -0.028169
    27  C   -0.023988
    28  C    0.074847
    29  C    0.076201
    30  C    0.035142
    31  C   -0.004509
    32  N   -0.310476
    33  C    0.080431
    34  C   -0.169690
    35  C    0.008381
    36  C    0.083020
    37  C    0.127302
    38  C    0.046144
    39  O   -0.188397
    40  C   -0.005344
    41  C    0.212883
    42  O   -0.257028
    43  O   -0.304829
    44  C    0.157666
    45  H   -0.017633
    46  H   -0.016886
    47  H   -0.041495
    48  H    0.000930
    49  H   -0.004025
    50  H    0.025460
    51  H    0.016417
    52  H    0.016630
    53  H    0.011228
    54  H    0.044178
    55  H    0.017834
    56  H    0.017944
    57  H    0.005871
    58  H    0.026766
    59  H    0.039559
    60  H    0.037316
    61  H    0.035592
    62  H    0.031537
    63  H    0.016540
    64  H    0.009427
    65  H    0.023157
    66  H    0.012523
    67  H    0.004718
    68  H    0.006313
    69  H    0.004742
    70  H    0.008752
    71  H    0.018198
    72  H    0.029027
    73  H    0.047632
    74  H    0.009114
    75  H    0.045976
    76  H    0.035124
    77  H    0.042946
    78  H    0.046398
    79  H    0.053768
    80  Mg   0.837905
    81  C   -0.016808
    82  C   -0.087799
    83  C   -0.045520
    84  C   -0.064894
    85  N   -0.254599
    86  C   -0.049809
    87  C   -0.015090
    88  C   -0.090515
    89  C    0.045785
    90  C    0.114379
    91  C    0.062527
    92  C   -0.077938
    93  H    0.035014
    94  N   -0.423500
    95  C    0.162937
    96  C   -0.174632
    97  C   -0.007797
    98  C    0.152114
    99  C    0.099369
   100  C    0.015545
   101  O   -0.253195
   102  C    0.061208
   103  N   -0.350069
   104  C    0.037529
   105  C   -0.019837
   106  C   -0.034821
   107  C    0.088925
   108  C    0.073676
   109  C    0.034734
   110  C   -0.007686
   111  N   -0.324133
   112  C    0.078472
   113  C   -0.163111
   114  C    0.002257
   115  C    0.096231
   116  C    0.131482
   117  C    0.042417
   118  O   -0.187809
   119  C    0.000894
   120  C    0.211279
   121  O   -0.250959
   122  O   -0.305658
   123  C    0.152003
   124  H   -0.019667
   125  H   -0.015593
   126  H   -0.040446
   127  H   -0.000641
   128  H   -0.004304
   129  H    0.022450
   130  H    0.014396
   131  H    0.016280
   132  H    0.013933
   133  H    0.037728
   134  H    0.020764
   135  H    0.019592
   136  H    0.008769
   137  H    0.026118
   138  H    0.039815
   139  H    0.038236
   140  H    0.036370
   141  H    0.033921
   142  H    0.014407
   143  H    0.012397
   144  H    0.025123
   145  H    0.011616
   146  H    0.005652
   147  H    0.006245
   148  H    0.003672
   149  H    0.010921
   150  H    0.017995
   151  H    0.030129
   152  H    0.046078
   153  H    0.008526
   154  H    0.046915
   155  H    0.035006
   156  H    0.043934
   157  H    0.049493
   158  H    0.053664
 Sum of Mulliken charges =  -0.00000

 Dipole moment (field-independent basis, Debye):
    X=              0.4426    Y=             -1.1654    Z=              7.3997  Tot=              7.5040
 Quadrupole moment (field-independent basis, Debye-Ang):
   XX=           -399.8423   YY=           -460.2813   ZZ=           -538.7229
   XY=             54.2548   XZ=             14.6211   YZ=              8.4442

 Normal termination of Gaussian 16 at Sun Sep 12 13:15:51 2021.
