 Gaussian 16, Revision A.03,
 Gaussian 16:  ES64L-G16RevA.03 25-Dec-2016

 -----------------------------------
 #p cam-b3lyp/Def2SVP td=(nstates=5)
 -----------------------------------

 --------------------------------
 TDDFT excited states in gaussian
 --------------------------------
 Symbolic Z-matrix:
 Charge =  0 Multiplicity = 1

                         Standard orientation:
 ---------------------------------------------------------------------
 Center     Atomic      Atomic             Coordinates (Angstroms)
 Number     Number       Type             X           Y           Z
 ---------------------------------------------------------------------
      1         12           0        3.191513    2.041497    0.651369
      2          6           0        4.691525   -1.207062    0.556315
      3          6           0        4.423315    2.538846   -2.491619
      4          6           0        2.270769    5.066958    0.886822
      5          6           0        3.072379    1.722986    4.119801
      6          7           0        4.388837    0.753240   -0.693046
      7          6           0        4.847832   -0.492946   -0.633749
      8          6           0        5.444522   -0.996377   -1.982041
      9          6           0        5.811459    0.410683   -2.635906
     10          6           0        4.791068    1.282268   -1.925226
     11          6           0        7.210652    0.902008   -2.279032
     12          6           0        4.393033   -1.772205   -2.844707
     13          6           0        4.971116   -2.572831   -4.015250
     14          1           0        4.353453   -3.842161   -4.368298
     15          7           0        2.894886    3.403106   -0.748947
     16          6           0        3.466969    3.440406   -1.976390
     17          6           0        2.925568    4.644805   -2.641965
     18          6           0        2.138802    5.407293   -1.633152
     19          6           0        2.428778    4.660282   -0.435961
     20          6           0        3.131622    4.944686   -4.095018
     21          6           0        1.272800    6.623312   -1.730473
     22          8           0        0.869759    7.255934   -0.695137
     23          6           0        0.977701    7.112601   -3.089353
     24          7           0        2.935564    3.325518    2.277228
     25          6           0        2.470938    4.568357    2.108532
     26          6           0        2.104429    5.196989    3.420184
     27          6           0        2.187810    4.030917    4.507877
     28          6           0        2.695624    2.889918    3.592172
     29          6           0        2.981931    6.374695    3.866289
     30          6           0        0.923615    3.779449    5.367525
     31          6           0       -0.189190    3.238770    4.497796
     32          7           0        3.604447    0.474825    2.095692
     33          6           0        3.508547    0.568400    3.491658
     34          6           0        3.992455   -0.709956    4.044566
     35          6           0        4.354140   -1.457063    2.925253
     36          6           0        4.136152   -0.684012    1.749172
     37          6           0        4.108301   -1.029766    5.426136
     38          6           0        4.897163   -2.719485    2.450624
     39          8           0        5.182305   -3.794588    2.980095
     40          6           0        5.251628   -2.563357    0.906018
     41          6           0        4.692590   -3.761400    0.188051
     42          8           0        3.460203   -3.937482    0.100955
     43          8           0        5.678320   -4.378408   -0.481411
     44          6           0        5.185485   -5.559196   -1.239705
     45          1           0        4.955037    2.894983   -3.376141
     46          1           0        1.849427    6.066974    1.008796
     47          1           0        2.985327    1.519751    5.188712
     48          1           0        6.342733   -1.606010   -1.882096
     49          1           0        5.633355    0.418627   -3.711051
     50          1           0        7.677432    0.264325   -1.528433
     51          1           0        7.074288    1.911130   -1.889709
     52          1           0        7.824483    1.006555   -3.174050
     53          1           0        3.780493   -1.057011   -3.393663
     54          1           0        3.791782   -2.432263   -2.218490
     55          1           0        6.051915   -2.685797   -3.925686
     56          1           0        4.834142   -1.991689   -4.927232
     57          1           0        3.886393    4.294153   -4.535100
     58          1           0        3.564567    5.942969   -4.155828
     59          1           0        2.197915    4.914078   -4.656790
     60          1           0        1.912725    7.348926   -3.597712
     61          1           0        0.273515    7.934737   -2.966608
     62          1           0        0.512714    6.308774   -3.660840
     63          1           0        1.088955    5.590199    3.395182
     64          1           0        2.975782    4.209912    5.239816
     65          1           0        2.422626    7.292204    4.050843
     66          1           0        3.748657    6.529950    3.107791
     67          1           0        3.588209    6.183451    4.751314
     68          1           0        0.567376    4.713664    5.800285
     69          1           0        1.091512    3.078063    6.184911
     70          1           0       -0.624382    4.141342    4.070241
     71          1           0       -0.919778    2.702639    5.104439
     72          1           0        0.203521    2.644033    3.672840
     73          1           0        3.730542   -2.046157    5.536670
     74          1           0        3.546399   -0.329029    6.043256
     75          1           0        5.185381   -0.937825    5.565062
     76          1           0        6.337911   -2.514832    0.837040
     77          1           0        5.774487   -6.417338   -0.915816
     78          1           0        5.224303   -5.288088   -2.294882
     79          1           0        4.177368   -5.899362   -1.000278
     80         12           0       -4.132790   -0.817007   -0.469452
     81          6           0       -1.847271   -3.574972   -0.247802
     82          6           0       -2.319079    0.277517   -3.142855
     83          6           0       -5.848926    1.851200   -0.415102
     84          6           0       -5.041492   -1.485085    2.828061
     85          7           0       -2.336606   -1.630323   -1.471707
     86          6           0       -1.591670   -2.717301   -1.337993
     87          6           0       -0.563903   -2.937214   -2.480316
     88          6           0       -0.423579   -1.415477   -2.973775
     89          6           0       -1.789659   -0.890056   -2.537392
     90          6           0        0.647867   -0.637400   -2.228176
     91          6           0       -1.123819   -3.860836   -3.618485
     92          6           0       -0.074103   -4.368371   -4.609582
     93          1           0       -0.227245   -5.713154   -5.157818
     94          7           0       -4.409958    0.560456   -1.871006
     95          6           0       -3.583201    0.856530   -2.895742
     96          6           0       -4.229537    1.955639   -3.629484
     97          6           0       -5.424851    2.394713   -2.859318
     98          6           0       -5.258851    1.616080   -1.648425
     99          6           0       -3.750324    2.431590   -4.970103
    100          6           0       -6.527088    3.365515   -3.157360
    101          8           0       -7.333437    3.769149   -2.246474
    102          6           0       -6.576795    3.901112   -4.525623
    103          7           0       -5.124259    0.190923    1.054808
    104          6           0       -5.839557    1.300331    0.798880
    105          6           0       -6.683965    1.691379    1.988182
    106          6           0       -6.569880    0.471347    3.015848
    107          6           0       -5.563742   -0.413431    2.247565
    108          6           0       -6.282841    2.987934    2.691337
    109          6           0       -7.900129   -0.169610    3.497804
    110          6           0       -8.581489   -0.872466    2.345788
    111          7           0       -3.707389   -2.363291    0.978329
    112          6           0       -4.171521   -2.435959    2.310021
    113          6           0       -3.521426   -3.606407    2.934401
    114          6           0       -2.700048   -4.124119    1.921573
    115          6           0       -2.813752   -3.320401    0.755125
    116          6           0       -3.687756   -4.029149    4.283368
    117          6           0       -1.754580   -5.161566    1.577344
    118          8           0       -1.335321   -6.174768    2.135354
    119          6           0       -1.064099   -4.778558    0.197871
    120          6           0       -1.085969   -5.995356   -0.686118
    121          8           0       -2.164568   -6.460500   -1.094622
    122          8           0        0.169698   -6.277475   -1.078622
    123          6           0        0.198465   -7.470275   -1.966449
    124          1           0       -1.691537    0.828538   -3.843886
    125          1           0       -6.538240    2.697836   -0.375944
    126          1           0       -5.346861   -1.817503    3.822512
    127          1           0        0.399470   -3.314010   -2.158295
    128          1           0       -0.320544   -1.358537   -4.054288
    129          1           0        1.058616   -1.204157   -1.405852
    130          1           0        0.161611    0.258419   -1.864712
    131          1           0        1.421212   -0.299413   -2.923891
    132          1           0       -1.745174   -3.259428   -4.294487
    133          1           0       -1.661804   -4.691599   -3.204928
    134          1           0        0.947795   -4.217777   -4.240798
    135          1           0       -0.125751   -3.756488   -5.513434
    136          1           0       -2.755552    2.033924   -5.206105
    137          1           0       -3.598330    3.513393   -4.889750
    138          1           0       -4.468600    2.233974   -5.768657
    139          1           0       -5.639007    4.403253   -4.751168
    140          1           0       -7.483680    4.507344   -4.569372
    141          1           0       -6.661581    3.063123   -5.226483
    142          1           0       -7.721403    1.814165    1.702256
    143          1           0       -6.074474    0.771253    3.950975
    144          1           0       -7.103209    3.728509    2.742555
    145          1           0       -5.426453    3.404040    2.177535
    146          1           0       -5.906846    2.865930    3.705708
    147          1           0       -8.590813    0.604400    3.841355
    148          1           0       -7.770341   -0.871203    4.315054
    149          1           0       -9.113044   -0.060328    1.840842
    150          1           0       -9.272774   -1.628286    2.713082
    151          1           0       -7.845834   -1.274271    1.639368
    152          1           0       -3.796969   -5.105292    4.261186
    153          1           0       -4.548234   -3.550913    4.746666
    154          1           0       -2.744410   -3.682867    4.714012
    155          1           0       -0.047392   -4.452107    0.419947
    156          1           0        0.895396   -8.185295   -1.518435
    157          1           0        0.448157   -7.087027   -2.973684
    158          1           0       -0.703464   -8.067392   -2.033001
 ---------------------------------------------------------------------

 SCF Done:  E(RCAM-B3LYP) =  -4069.81273220     A.U. after   19 cycles

 Excitation energies and oscillator strengths:

 Excited State   1:      Singlet-A      1.6354 eV  758.14 nm  f=0.0007  <S**2>=0.000
     309 -> 315        0.11581
     310 -> 316       -0.11558
     311 -> 313        0.48367
     312 -> 314        0.48991
 This state for optimization and/or second-order correction.
 Total Energy, E(TD-HF/TD-DFT) =  -4069.75263370
 Copying the excited state density for this state as the 1-particle RhoCI density.

 Excited State   2:      Singlet-A      1.7121 eV  724.18 nm  f=0.6738  <S**2>=0.000
     309 -> 315        0.13149
     310 -> 316        0.12786
     311 -> 313        0.48641
     312 -> 314       -0.48024

 Excited State   3:      Singlet-A      2.1622 eV  573.41 nm  f=0.0001  <S**2>=0.000
     312 -> 313        0.70590

 Excited State   4:      Singlet-A      2.1761 eV  569.76 nm  f=0.0261  <S**2>=0.000
     309 -> 313        0.30871
     310 -> 314        0.56743
     311 -> 315       -0.12542
     312 -> 316        0.23296

 Excited State   5:      Singlet-A      2.1976 eV  564.17 nm  f=0.1478  <S**2>=0.000
     309 -> 313        0.56104
     310 -> 314       -0.30323
     311 -> 315       -0.24880
     312 -> 316       -0.13666

 The electronic state is 1-A.
 Alpha  occ. eigenvalues --  -46.88049 -46.87316 -19.26567 -19.25762 -19.19400
 Alpha  occ. eigenvalues --  -19.19030 -19.18623 -19.18432 -19.18348 -19.17516
 Alpha  occ. eigenvalues --  -14.42733 -14.42151 -14.41693 -14.41014 -14.39656
 Alpha  occ. eigenvalues --  -14.39011 -14.38835 -14.38235 -10.39417 -10.38519
 Alpha  occ. eigenvalues --  -10.35666 -10.35118 -10.34579 -10.33665 -10.31894
 Alpha  occ. eigenvalues --  -10.31694 -10.31378 -10.31229 -10.30926 -10.30826
 Alpha  occ. eigenvalues --  -10.30734 -10.30636 -10.30444 -10.30131 -10.30037
 Alpha  occ. eigenvalues --  -10.29985 -10.29865 -10.29858 -10.29543 -10.29503
 Alpha  occ. eigenvalues --  -10.29141 -10.29130 -10.29068 -10.29052 -10.28633
 Alpha  occ. eigenvalues --  -10.28463 -10.28449 -10.28225 -10.28024 -10.28011
 Alpha  occ. eigenvalues --  -10.28010 -10.27829 -10.27794 -10.27781 -10.27685
 Alpha  occ. eigenvalues --  -10.27677 -10.27639 -10.27617 -10.27411 -10.27351
 Alpha  occ. eigenvalues --  -10.27299 -10.27277 -10.27268 -10.27127 -10.27113
 Alpha  occ. eigenvalues --  -10.27075 -10.26660 -10.26518 -10.26366 -10.26328
 Alpha  occ. eigenvalues --  -10.26286 -10.26253 -10.26218 -10.25971 -10.25931
 Alpha  occ. eigenvalues --  -10.25617 -10.25614 -10.25583 -10.25522 -10.25161
 Alpha  occ. eigenvalues --  -10.25060 -10.25020 -10.24811 -10.24526 -10.24483
 Alpha  occ. eigenvalues --  -10.24335  -3.16789  -3.16067  -1.91670  -1.91258
 Alpha  occ. eigenvalues --   -1.91099  -1.90950  -1.90538  -1.90374  -1.16920
 Alpha  occ. eigenvalues --   -1.16068  -1.08805  -1.08096  -1.07427  -1.06967
 Alpha  occ. eigenvalues --   -1.06688  -1.06402  -1.04863  -1.04129  -1.04008
 Alpha  occ. eigenvalues --   -1.03477  -1.03312  -1.02696  -1.02656  -1.01757
 Alpha  occ. eigenvalues --   -0.92231  -0.91526  -0.89729  -0.89550  -0.89172
 Alpha  occ. eigenvalues --   -0.88773  -0.88489  -0.88081  -0.87962  -0.87924
 Alpha  occ. eigenvalues --   -0.87531  -0.87440  -0.87346  -0.86841  -0.85323
 Alpha  occ. eigenvalues --   -0.84658  -0.84124  -0.83579  -0.83202  -0.82945
 Alpha  occ. eigenvalues --   -0.82678  -0.82308  -0.81835  -0.81178  -0.80856
 Alpha  occ. eigenvalues --   -0.80065  -0.79047  -0.78326  -0.77494  -0.77210
 Alpha  occ. eigenvalues --   -0.76829  -0.76538  -0.76194  -0.75452  -0.75101
 Alpha  occ. eigenvalues --   -0.74485  -0.73011  -0.72355  -0.71922  -0.71221
 Alpha  occ. eigenvalues --   -0.70085  -0.69498  -0.69186  -0.68495  -0.67891
 Alpha  occ. eigenvalues --   -0.67585  -0.67247  -0.66896  -0.65620  -0.65104
 Alpha  occ. eigenvalues --   -0.64891  -0.64866  -0.64479  -0.64414  -0.64267
 Alpha  occ. eigenvalues --   -0.63888  -0.62542  -0.61826  -0.60681  -0.60124
 Alpha  occ. eigenvalues --   -0.60041  -0.59412  -0.59232  -0.58747  -0.58623
 Alpha  occ. eigenvalues --   -0.58034  -0.57833  -0.57534  -0.57051  -0.56823
 Alpha  occ. eigenvalues --   -0.56552  -0.56264  -0.55866  -0.55770  -0.55551
 Alpha  occ. eigenvalues --   -0.55446  -0.55112  -0.54889  -0.54750  -0.54275
 Alpha  occ. eigenvalues --   -0.54092  -0.53576  -0.53538  -0.53494  -0.53189
 Alpha  occ. eigenvalues --   -0.53049  -0.52910  -0.52787  -0.52609  -0.52522
 Alpha  occ. eigenvalues --   -0.52386  -0.52131  -0.52099  -0.51952  -0.51532
 Alpha  occ. eigenvalues --   -0.51429  -0.51329  -0.50844  -0.50813  -0.50275
 Alpha  occ. eigenvalues --   -0.50243  -0.50161  -0.49818  -0.49683  -0.49579
 Alpha  occ. eigenvalues --   -0.49481  -0.49375  -0.49169  -0.48859  -0.48801
 Alpha  occ. eigenvalues --   -0.48718  -0.48682  -0.48648  -0.48188  -0.48088
 Alpha  occ. eigenvalues --   -0.47988  -0.47957  -0.47542  -0.47267  -0.47051
 Alpha  occ. eigenvalues --   -0.46897  -0.46813  -0.46592  -0.46388  -0.46380
 Alpha  occ. eigenvalues --   -0.46232  -0.46050  -0.45960  -0.45720  -0.45418
 Alpha  occ. eigenvalues --   -0.45402  -0.44895  -0.44829  -0.44769  -0.44397
 Alpha  occ. eigenvalues --   -0.44361  -0.44257  -0.44165  -0.44128  -0.43804
 Alpha  occ. eigenvalues --   -0.43778  -0.43723  -0.43657  -0.43558  -0.43263
 Alpha  occ. eigenvalues --   -0.43176  -0.43032  -0.42938  -0.42852  -0.42569
 Alpha  occ. eigenvalues --   -0.42392  -0.42269  -0.42249  -0.41950  -0.41846
 Alpha  occ. eigenvalues --   -0.41649  -0.41394  -0.41269  -0.41183  -0.41119
 Alpha  occ. eigenvalues --   -0.41103  -0.40827  -0.40767  -0.40477  -0.40416
 Alpha  occ. eigenvalues --   -0.40375  -0.40096  -0.39883  -0.39614  -0.39175
 Alpha  occ. eigenvalues --   -0.38702  -0.38150  -0.38060  -0.37583  -0.37550
 Alpha  occ. eigenvalues --   -0.37346  -0.36988  -0.36948  -0.36846  -0.36453
 Alpha  occ. eigenvalues --   -0.36311  -0.35835  -0.34537  -0.34088  -0.33894
 Alpha  occ. eigenvalues --   -0.33442  -0.33353  -0.32814  -0.31562  -0.31295
 Alpha  occ. eigenvalues --   -0.30989  -0.30594  -0.30211  -0.29690  -0.29544
 Alpha  occ. eigenvalues --   -0.29397  -0.28998  -0.28826  -0.24342  -0.23659
 Alpha  occ. eigenvalues --   -0.21380  -0.20773
 Alpha virt. eigenvalues --   -0.09021  -0.08435  -0.01999  -0.01345  -0.00312
 Alpha virt. eigenvalues --    0.00300   0.01992   0.02519   0.02737   0.03634
 Alpha virt. eigenvalues --    0.04242   0.04671   0.04945   0.05316   0.05732

 Mulliken charges:
               1
     1  Mg   0.834133
     2  C   -0.005540
     3  C   -0.095886
     4  C   -0.044428
     5  C   -0.063041
     6  N   -0.256611
     7  C   -0.055322
     8  C   -0.011735
     9  C   -0.087660
    10  C    0.044418
    11  C    0.104960
    12  C    0.042037
    13  C   -0.071839
    14  H    0.037458
    15  N   -0.433276
    16  C    0.167139
    17  C   -0.178833
    18  C   -0.004117
    19  C    0.149155
    20  C    0.110420
    21  C    0.012969
    22  O   -0.248192
    23  C    0.062828
    24  N   -0.340236
    25  C    0.040709
    26  C   -0.028293
    27  C   -0.024194
    28  C    0.075304
    29  C    0.075932
    30  C    0.034891
    31  C   -0.004670
    32  N   -0.310818
    33  C    0.081437
    34  C   -0.168562
    35  C    0.009886
    36  C    0.082030
    37  C    0.126765
    38  C    0.047105
    39  O   -0.185212
    40  C   -0.005992
    41  C    0.215119
    42  O   -0.257680
    43  O   -0.304472
    44  C    0.154814
    45  H   -0.018161
    46  H   -0.016100
    47  H   -0.040518
    48  H    0.001844
    49  H   -0.005129
    50  H    0.026186
    51  H    0.017758
    52  H    0.016864
    53  H    0.014480
    54  H    0.045447
    55  H    0.019768
    56  H    0.016979
    57  H    0.005314
    58  H    0.027748
    59  H    0.036905
    60  H    0.037519
    61  H    0.036787
    62  H    0.028966
    63  H    0.017372
    64  H    0.009955
    65  H    0.023816
    66  H    0.012550
    67  H    0.005118
    68  H    0.006753
    69  H    0.004957
    70  H    0.009360
    71  H    0.017947
    72  H    0.029749
    73  H    0.049951
    74  H    0.009467
    75  H    0.046486
    76  H    0.035893
    77  H    0.044490
    78  H    0.044570
    79  H    0.057782
    80  Mg   0.836067
    81  C   -0.017029
    82  C   -0.087837
    83  C   -0.045594
    84  C   -0.066540
    85  N   -0.254519
    86  C   -0.049117
    87  C   -0.017395
    88  C   -0.089641
    89  C    0.044227
    90  C    0.090438
    91  C    0.063000
    92  C   -0.076829
    93  H    0.032367
    94  N   -0.423435
    95  C    0.162688
    96  C   -0.175529
    97  C   -0.008259
    98  C    0.151817
    99  C    0.100200
   100  C    0.015241
   101  O   -0.253792
   102  C    0.061477
   103  N   -0.350352
   104  C    0.037118
   105  C   -0.019496
   106  C   -0.034671
   107  C    0.089595
   108  C    0.073851
   109  C    0.034959
   110  C   -0.007540
   111  N   -0.324533
   112  C    0.079374
   113  C   -0.163902
   114  C    0.003973
   115  C    0.094867
   116  C    0.131398
   117  C    0.044053
   118  O   -0.185659
   119  C   -0.000862
   120  C    0.207943
   121  O   -0.253971
   122  O   -0.298555
   123  C    0.152708
   124  H   -0.022093
   125  H   -0.016361
   126  H   -0.041497
   127  H    0.013226
   128  H   -0.008226
   129  H    0.043929
   130  H    0.016005
   131  H    0.018560
   132  H    0.012234
   133  H    0.037601
   134  H    0.020211
   135  H    0.017161
   136  H    0.006239
   137  H    0.023544
   138  H    0.038672
   139  H    0.037255
   140  H    0.035627
   141  H    0.033221
   142  H    0.013781
   143  H    0.011185
   144  H    0.024471
   145  H    0.012627
   146  H    0.004082
   147  H    0.005526
   148  H    0.003166
   149  H    0.010684
   150  H    0.017349
   151  H    0.030627
   152  H    0.045950
   153  H    0.007193
   154  H    0.047632
   155  H    0.055801
   156  H    0.041843
   157  H    0.046508
   158  H    0.052194
 Sum of Mulliken charges =  -0.00000

 Dipole moment (field-independent basis, Debye):
    X=              4.3159    Y=              4.8705    Z=             -5.3063  Tot=              8.3967
 Quadrupole moment (field-independent basis, Debye-Ang):
   XX=           -510.5861   YY=           -560.1869   ZZ=           -451.2578
   XY=              9.2813   XZ=            -36.6096   YZ=             21.7394

 Normal termination of Gaussian 16 at Thu Sep  9 06:28:51 2021.
