 Gaussian 16, Revision A.03,
 Gaussian 16:  ES64L-G16RevA.03 25-Dec-2016

 -----------------------------------
 #p cam-b3lyp/Def2SVP td=(nstates=5)
 -----------------------------------

 --------------------------------
 TDDFT excited states in gaussian
 --------------------------------
 Symbolic Z-matrix:
 Charge =  0 Multiplicity = 1

                         Standard orientation:
 ---------------------------------------------------------------------
 Center     Atomic      Atomic             Coordinates (Angstroms)
 Number     Number       Type             X           Y           Z
 ---------------------------------------------------------------------
      1         12           0       16.148235    0.506508    0.501260
      2          6           0       16.374709   -2.591245   -1.277743
      3          6           0       17.073856    2.063508   -2.390460
      4          6           0       16.396984    3.198883    2.158324
      5          6           0       16.357716   -1.340900    3.448947
      6          7           0       16.633293   -0.273253   -1.513023
      7          6           0       16.624229   -1.475578   -2.080036
      8          6           0       16.830448   -1.432225   -3.623723
      9          6           0       17.587731   -0.033794   -3.737346
     10          6           0       17.039833    0.641002   -2.492202
     11          6           0       19.103058   -0.149162   -3.607059
     12          6           0       15.473354   -1.413931   -4.404551
     13          6           0       15.579147   -1.699734   -5.905377
     14          1           0       14.512704   -2.448962   -6.552451
     15          7           0       16.181347    2.386169   -0.105889
     16          6           0       16.571546    2.837603   -1.322129
     17          6           0       16.413779    4.307336   -1.281206
     18          6           0       16.080901    4.690424    0.118984
     19          6           0       16.234170    3.426961    0.793927
     20          6           0       16.529724    5.181361   -2.492150
     21          6           0       15.697358    5.991233    0.750587
     22          8           0       15.677341    6.151795    2.018812
     23          6           0       15.427796    7.112887   -0.167165
     24          7           0       16.569151    0.906078    2.506455
     25          6           0       16.558159    2.157790    2.977709
     26          6           0       16.605059    2.177249    4.476829
     27          6           0       16.404649    0.663859    4.945060
     28          6           0       16.356453   -0.009905    3.551507
     29          6           0       17.891419    2.737839    5.098945
     30          6           0       15.251259    0.382651    5.940566
     31          6           0       13.919830    0.619294    5.263518
     32          7           0       16.155694   -1.597544    1.034131
     33          6           0       16.274192   -2.140833    2.321558
     34          6           0       16.338404   -3.605877    2.167966
     35          6           0       16.269031   -3.813582    0.791779
     36          6           0       16.194338   -2.556686    0.126252
     37          6           0       16.504771   -4.547747    3.221359
     38          6           0       16.265453   -4.803935   -0.272667
     39          8           0       16.214606   -6.034110   -0.312388
     40          6           0       16.456542   -4.047914   -1.661099
     41          6           0       15.424162   -4.582844   -2.615747
     42          8           0       14.208838   -4.369378   -2.429239
     43          8           0       16.035338   -5.052210   -3.714246
     44          6           0       15.065395   -5.571132   -4.715288
     45          1           0       17.582481    2.636300   -3.168375
     46          1           0       16.376286    4.098905    2.776362
     47          1           0       16.338376   -1.986025    4.329227
     48          1           0       17.459145   -2.229387   -4.020834
     49          1           0       17.291342    0.518222   -4.629060
     50          1           0       19.403201   -1.159128   -3.328126
     51          1           0       19.383033    0.560064   -2.827889
     52          1           0       19.597266    0.194076   -4.516302
     53          1           0       15.090779   -0.393795   -4.436470
     54          1           0       14.760319   -2.105985   -3.955141
     55          1           0       16.551831   -2.119393   -6.163603
     56          1           0       15.544446   -0.748966   -6.437388
     57          1           0       16.943612    4.637578   -3.340409
     58          1           0       17.277257    5.941419   -2.265842
     59          1           0       15.583524    5.660092   -2.744843
     60          1           0       16.314616    7.304355   -0.771682
     61          1           0       15.082025    7.935909    0.457275
     62          1           0       14.640611    6.819113   -0.862137
     63          1           0       15.800321    2.787101    4.885367
     64          1           0       17.289641    0.269884    5.445308
     65          1           0       17.721431    3.575052    5.776354
     66          1           0       18.562325    3.020708    4.288290
     67          1           0       18.495881    2.006947    5.635453
     68          1           0       15.306343    1.065791    6.787461
     69          1           0       15.260182   -0.634099    6.333492
     70          1           0       13.783179    1.695369    5.364613
     71          1           0       13.128433    0.075025    5.779921
     72          1           0       13.969958    0.395908    4.197651
     73          1           0       15.808165   -5.360623    3.016564
     74          1           0       16.309503   -4.094003    4.192745
     75          1           0       17.552814   -4.815886    3.088831
     76          1           0       17.471776   -4.258766   -1.995706
     77          1           0       15.347394   -6.601712   -4.931196
     78          1           0       15.065814   -4.862319   -5.543532
     79          1           0       14.040469   -5.706642   -4.368153
     80         12           0      -15.605253    0.566727   -0.015896
     81          6           0      -18.176242   -1.915509    0.312030
     82          6           0      -17.894087    2.508143   -1.636613
     83          6           0      -13.254465    2.579135   -0.716924
     84          6           0      -13.281708   -1.960924    0.582286
     85          7           0      -17.729099    0.230106   -0.533801
     86          6           0      -18.616910   -0.725493   -0.303679
     87          6           0      -20.074833   -0.354657   -0.686459
     88          6           0      -19.755810    0.775884   -1.781442
     89          6           0      -18.389602    1.230725   -1.272250
     90          6           0      -19.581862    0.221600   -3.185659
     91          6           0      -20.880570    0.231013    0.525890
     92          6           0      -22.392227    0.325971    0.307682
     93          1           0      -23.276048    0.087492    1.445422
     94          7           0      -15.668102    2.467908   -0.581707
     95          6           0      -16.684832    3.097623   -1.206999
     96          6           0      -16.230104    4.479976   -1.422573
     97          6           0      -14.799859    4.571214   -1.021602
     98          6           0      -14.506433    3.174189   -0.771983
     99          6           0      -17.146365    5.575079   -1.885873
    100          6           0      -13.849476    5.723407   -0.897320
    101          8           0      -12.587609    5.543842   -0.762181
    102          6           0      -14.428283    7.068130   -1.032157
    103          7           0      -13.558192    0.309295   -0.272038
    104          6           0      -12.755092    1.358840   -0.519891
    105          6           0      -11.300296    0.974702   -0.391914
    106          6           0      -11.298024   -0.497480    0.232783
    107          6           0      -12.820061   -0.756049    0.276799
    108          6           0      -10.494824    0.977269   -1.690994
    109          6           0      -10.474425   -0.709166    1.532606
    110          6           0      -11.109904    0.049329    2.675525
    111          7           0      -15.684340   -1.514382    0.559243
    112          6           0      -14.593149   -2.394450    0.729112
    113          6           0      -15.152667   -3.732740    1.009042
    114          6           0      -16.541738   -3.541610    0.959450
    115          6           0      -16.827663   -2.184601    0.649171
    116          6           0      -14.399402   -4.922497    1.216869
    117          6           0      -17.831124   -4.181546    1.088548
    118          8           0      -18.215786   -5.299957    1.427588
    119          6           0      -18.946129   -3.184796    0.550375
    120          6           0      -20.062233   -3.148534    1.558106
    121          8           0      -19.872125   -2.682423    2.695292
    122          8           0      -21.218038   -3.466680    0.947146
    123          6           0      -22.356551   -3.433619    1.903462
    124          1           0      -18.463849    3.100658   -2.352982
    125          1           0      -12.405306    3.254896   -0.842428
    126          1           0      -12.623286   -2.780976    0.876713
    127          1           0      -20.644646   -1.158432   -1.137042
    128          1           0      -20.473134    1.590738   -1.728384
    129          1           0      -19.584616   -0.858239   -3.195762
    130          1           0      -18.630762    0.600811   -3.535884
    131          1           0      -20.338663    0.642803   -3.853622
    132          1           0      -20.639237    1.296171    0.635148
    133          1           0      -20.678886   -0.324206    1.421262
    134          1           0      -22.720422   -0.255573   -0.562411
    135          1           0      -22.641441    1.358123    0.049675
    136          1           0      -18.096819    5.173600   -2.258496
    137          1           0      -16.680316    6.030928   -2.766137
    138          1           0      -17.298552    6.345997   -1.127458
    139          1           0      -14.913282    7.157023   -2.001347
    140          1           0      -13.610104    7.760583   -0.824843
    141          1           0      -15.211837    7.189205   -0.275846
    142          1           0      -10.781596    1.643874    0.283556
    143          1           0      -10.873978   -1.235205   -0.464204
    144          1           0       -9.607036    1.636395   -1.652793
    145          1           0      -11.151580    1.270413   -2.499251
    146          1           0      -10.145751   -0.000072   -2.019865
    147          1           0       -9.466925   -0.303267    1.412895
    148          1           0      -10.370266   -1.752024    1.812928
    149          1           0      -10.717116    1.062499    2.547937
    150          1           0      -10.807367   -0.373842    3.631263
    151          1           0      -12.198463    0.100436    2.556922
    152          1           0      -14.852589   -5.435567    2.054648
    153          1           0      -13.350841   -4.701417    1.405052
    154          1           0      -14.547981   -5.418128    0.253775
    155          1           0      -19.280709   -3.559402   -0.417765
    156          1           0      -22.841643   -4.413508    1.856698
    157          1           0      -22.964693   -2.556147    1.613705
    158          1           0      -22.122371   -3.363733    2.959266
 ---------------------------------------------------------------------

 SCF Done:  E(RCAM-B3LYP) =  -4069.81177447     A.U. after   19 cycles

 Excitation energies and oscillator strengths:

 Excited State   1:      Singlet-A      1.6753 eV  740.08 nm  f=0.2132  <S**2>=0.000
     310 -> 316        0.16864
     311 -> 313        0.66670
     312 -> 314       -0.16181
     310 <- 316        0.10167
 This state for optimization and/or second-order correction.
 Total Energy, E(TD-HF/TD-DFT) =  -4069.75020914
 Copying the excited state density for this state as the 1-particle RhoCI density.

 Excited State   2:      Singlet-A      1.6801 eV  737.95 nm  f=0.5642  <S**2>=0.000
     309 -> 315        0.17067
     311 -> 313        0.16176
     312 -> 314        0.66633
     309 <- 315        0.10218

 Excited State   3:      Singlet-A      2.1861 eV  567.15 nm  f=0.1031  <S**2>=0.000
     310 -> 313        0.64248
     311 -> 316       -0.27312

 Excited State   4:      Singlet-A      2.1926 eV  565.48 nm  f=0.0985  <S**2>=0.000
     309 -> 314        0.64070
     312 -> 315       -0.27831

 Excited State   5:      Singlet-A      3.0621 eV  404.90 nm  f=0.0000  <S**2>=0.000
     312 -> 313        0.70710

 The electronic state is 1-A.
 Alpha  occ. eigenvalues --  -46.87774 -46.87660 -19.26350 -19.26263 -19.19161
 Alpha  occ. eigenvalues --  -19.18998 -19.18791 -19.18714 -19.18147 -19.18051
 Alpha  occ. eigenvalues --  -14.42497 -14.42427 -14.41427 -14.41358 -14.39380
 Alpha  occ. eigenvalues --  -14.39351 -14.38599 -14.38564 -10.39091 -10.39058
 Alpha  occ. eigenvalues --  -10.35425 -10.35392 -10.34367 -10.34228 -10.31757
 Alpha  occ. eigenvalues --  -10.31658 -10.31382 -10.31309 -10.31024 -10.30886
 Alpha  occ. eigenvalues --  -10.30547 -10.30484 -10.30397 -10.30360 -10.30184
 Alpha  occ. eigenvalues --  -10.30139 -10.29898 -10.29892 -10.29608 -10.29436
 Alpha  occ. eigenvalues --  -10.29400 -10.29231 -10.28727 -10.28721 -10.28656
 Alpha  occ. eigenvalues --  -10.28516 -10.28405 -10.28342 -10.28142 -10.28094
 Alpha  occ. eigenvalues --  -10.28001 -10.27770 -10.27704 -10.27669 -10.27561
 Alpha  occ. eigenvalues --  -10.27512 -10.27483 -10.27478 -10.27468 -10.27465
 Alpha  occ. eigenvalues --  -10.27458 -10.27426 -10.27381 -10.27371 -10.27136
 Alpha  occ. eigenvalues --  -10.27051 -10.26694 -10.26682 -10.26416 -10.26386
 Alpha  occ. eigenvalues --  -10.26213 -10.26160 -10.26128 -10.26028 -10.25996
 Alpha  occ. eigenvalues --  -10.25932 -10.25847 -10.25821 -10.25413 -10.25393
 Alpha  occ. eigenvalues --  -10.24872 -10.24810 -10.24765 -10.24721 -10.24689
 Alpha  occ. eigenvalues --  -10.24662  -3.16516  -3.16410  -1.91398  -1.91292
 Alpha  occ. eigenvalues --   -1.90985  -1.90880  -1.90827  -1.90717  -1.16644
 Alpha  occ. eigenvalues --   -1.16611  -1.08658  -1.08605  -1.07192  -1.06967
 Alpha  occ. eigenvalues --   -1.06946  -1.06620  -1.04558  -1.04495  -1.03738
 Alpha  occ. eigenvalues --   -1.03663  -1.03211  -1.03038  -1.02388  -1.02111
 Alpha  occ. eigenvalues --   -0.91987  -0.91949  -0.89496  -0.89491  -0.89166
 Alpha  occ. eigenvalues --   -0.89152  -0.88264  -0.88216  -0.87848  -0.87792
 Alpha  occ. eigenvalues --   -0.87684  -0.87650  -0.87251  -0.87120  -0.85000
 Alpha  occ. eigenvalues --   -0.84960  -0.83913  -0.83872  -0.82943  -0.82931
 Alpha  occ. eigenvalues --   -0.82653  -0.82626  -0.81596  -0.81563  -0.80574
 Alpha  occ. eigenvalues --   -0.80442  -0.78774  -0.78635  -0.77196  -0.77144
 Alpha  occ. eigenvalues --   -0.76912  -0.76897  -0.75901  -0.75839  -0.74875
 Alpha  occ. eigenvalues --   -0.74800  -0.72751  -0.72698  -0.71650  -0.71580
 Alpha  occ. eigenvalues --   -0.69883  -0.69752  -0.68850  -0.68827  -0.67618
 Alpha  occ. eigenvalues --   -0.67601  -0.67201  -0.67197  -0.65272  -0.65264
 Alpha  occ. eigenvalues --   -0.64831  -0.64769  -0.64653  -0.64598  -0.64246
 Alpha  occ. eigenvalues --   -0.64200  -0.62278  -0.62275  -0.60419  -0.60339
 Alpha  occ. eigenvalues --   -0.59797  -0.59782  -0.58992  -0.58965  -0.58481
 Alpha  occ. eigenvalues --   -0.58425  -0.57562  -0.57554  -0.57286  -0.57235
 Alpha  occ. eigenvalues --   -0.56287  -0.56204  -0.55956  -0.55887  -0.55497
 Alpha  occ. eigenvalues --   -0.55452  -0.55317  -0.55245  -0.54501  -0.54485
 Alpha  occ. eigenvalues --   -0.53914  -0.53873  -0.53276  -0.53227  -0.53199
 Alpha  occ. eigenvalues --   -0.53142  -0.52902  -0.52892  -0.52733  -0.52669
 Alpha  occ. eigenvalues --   -0.52414  -0.52395  -0.51892  -0.51883  -0.51659
 Alpha  occ. eigenvalues --   -0.51594  -0.51200  -0.51173  -0.50549  -0.50475
 Alpha  occ. eigenvalues --   -0.50008  -0.49980  -0.49895  -0.49864  -0.49492
 Alpha  occ. eigenvalues --   -0.49488  -0.49203  -0.49192  -0.49105  -0.49074
 Alpha  occ. eigenvalues --   -0.48571  -0.48559  -0.48438  -0.48422  -0.48373
 Alpha  occ. eigenvalues --   -0.48339  -0.47672  -0.47594  -0.47274  -0.47118
 Alpha  occ. eigenvalues --   -0.46774  -0.46708  -0.46554  -0.46533  -0.46336
 Alpha  occ. eigenvalues --   -0.46269  -0.46140  -0.46084  -0.45821  -0.45800
 Alpha  occ. eigenvalues --   -0.45206  -0.45178  -0.44555  -0.44514  -0.44484
 Alpha  occ. eigenvalues --   -0.44476  -0.44127  -0.44121  -0.44076  -0.44066
 Alpha  occ. eigenvalues --   -0.43997  -0.43939  -0.43552  -0.43472  -0.43386
 Alpha  occ. eigenvalues --   -0.43363  -0.43004  -0.42930  -0.42900  -0.42677
 Alpha  occ. eigenvalues --   -0.42632  -0.42550  -0.41986  -0.41961  -0.41681
 Alpha  occ. eigenvalues --   -0.41669  -0.41511  -0.41458  -0.41118  -0.40989
 Alpha  occ. eigenvalues --   -0.40846  -0.40800  -0.40722  -0.40698  -0.40548
 Alpha  occ. eigenvalues --   -0.40490  -0.40228  -0.40211  -0.39420  -0.39417
 Alpha  occ. eigenvalues --   -0.38446  -0.38347  -0.37726  -0.37654  -0.37297
 Alpha  occ. eigenvalues --   -0.37264  -0.37241  -0.37200  -0.36771  -0.36691
 Alpha  occ. eigenvalues --   -0.36215  -0.36170  -0.34263  -0.34253  -0.33862
 Alpha  occ. eigenvalues --   -0.33748  -0.33175  -0.33163  -0.31321  -0.31273
 Alpha  occ. eigenvalues --   -0.31013  -0.30972  -0.30007  -0.29955  -0.29426
 Alpha  occ. eigenvalues --   -0.29327  -0.29299  -0.29211  -0.24058  -0.24036
 Alpha  occ. eigenvalues --   -0.21116  -0.21105
 Alpha virt. eigenvalues --   -0.08792  -0.08751  -0.01727  -0.01683  -0.00035
 Alpha virt. eigenvalues --   -0.00029   0.02208   0.02223   0.03144   0.03227
 Alpha virt. eigenvalues --    0.04729   0.04740   0.05120   0.05165   0.06181

 Mulliken charges:
               1
     1  Mg   0.838727
     2  C   -0.002956
     3  C   -0.094125
     4  C   -0.045894
     5  C   -0.063948
     6  N   -0.256783
     7  C   -0.052479
     8  C   -0.014009
     9  C   -0.086987
    10  C    0.046330
    11  C    0.104812
    12  C    0.053464
    13  C   -0.071805
    14  H    0.036131
    15  N   -0.433148
    16  C    0.168434
    17  C   -0.177148
    18  C   -0.003995
    19  C    0.148733
    20  C    0.110181
    21  C    0.012297
    22  O   -0.249613
    23  C    0.062471
    24  N   -0.341123
    25  C    0.041254
    26  C   -0.028174
    27  C   -0.023954
    28  C    0.074812
    29  C    0.076171
    30  C    0.035128
    31  C   -0.004507
    32  N   -0.310457
    33  C    0.080407
    34  C   -0.169722
    35  C    0.008359
    36  C    0.082985
    37  C    0.127311
    38  C    0.046114
    39  O   -0.188457
    40  C   -0.005351
    41  C    0.212885
    42  O   -0.257099
    43  O   -0.304802
    44  C    0.157691
    45  H   -0.017612
    46  H   -0.016829
    47  H   -0.041494
    48  H    0.000924
    49  H   -0.004031
    50  H    0.025464
    51  H    0.016443
    52  H    0.016644
    53  H    0.011221
    54  H    0.044129
    55  H    0.017855
    56  H    0.017955
    57  H    0.005867
    58  H    0.026814
    59  H    0.039581
    60  H    0.037329
    61  H    0.035670
    62  H    0.031530
    63  H    0.016572
    64  H    0.009447
    65  H    0.023217
    66  H    0.012534
    67  H    0.004741
    68  H    0.006369
    69  H    0.004725
    70  H    0.008796
    71  H    0.018160
    72  H    0.028981
    73  H    0.047568
    74  H    0.009116
    75  H    0.045992
    76  H    0.035136
    77  H    0.042933
    78  H    0.046402
    79  H    0.053691
    80  Mg   0.837824
    81  C   -0.016828
    82  C   -0.087774
    83  C   -0.045495
    84  C   -0.064882
    85  N   -0.254538
    86  C   -0.049874
    87  C   -0.015071
    88  C   -0.090519
    89  C    0.045727
    90  C    0.114377
    91  C    0.062523
    92  C   -0.077909
    93  H    0.034915
    94  N   -0.423466
    95  C    0.162905
    96  C   -0.174647
    97  C   -0.007808
    98  C    0.152103
    99  C    0.099372
   100  C    0.015578
   101  O   -0.253153
   102  C    0.061188
   103  N   -0.350075
   104  C    0.037527
   105  C   -0.019832
   106  C   -0.034848
   107  C    0.088928
   108  C    0.073639
   109  C    0.034717
   110  C   -0.007692
   111  N   -0.324121
   112  C    0.078467
   113  C   -0.163103
   114  C    0.002239
   115  C    0.096217
   116  C    0.131483
   117  C    0.042397
   118  O   -0.187866
   119  C    0.000920
   120  C    0.211252
   121  O   -0.250994
   122  O   -0.305643
   123  C    0.152027
   124  H   -0.019688
   125  H   -0.015551
   126  H   -0.040366
   127  H   -0.000658
   128  H   -0.004333
   129  H    0.022457
   130  H    0.014421
   131  H    0.016262
   132  H    0.013925
   133  H    0.037691
   134  H    0.020777
   135  H    0.019589
   136  H    0.008747
   137  H    0.026118
   138  H    0.039794
   139  H    0.038228
   140  H    0.036400
   141  H    0.033906
   142  H    0.014441
   143  H    0.012478
   144  H    0.025188
   145  H    0.011582
   146  H    0.005730
   147  H    0.006368
   148  H    0.003727
   149  H    0.010941
   150  H    0.018009
   151  H    0.030040
   152  H    0.046040
   153  H    0.008594
   154  H    0.046952
   155  H    0.035007
   156  H    0.043915
   157  H    0.049484
   158  H    0.053595
 Sum of Mulliken charges =  -0.00000

 Dipole moment (field-independent basis, Debye):
    X=              0.6120    Y=              6.2094    Z=             -5.5282  Tot=              8.3362
 Quadrupole moment (field-independent basis, Debye-Ang):
   XX=           -374.5517   YY=           -550.9446   ZZ=           -476.6166
   XY=            -25.6642   XZ=             17.0722   YZ=            -11.4275

 Normal termination of Gaussian 16 at Sun Sep 12 22:23:16 2021.
