 Gaussian 16, Revision A.03,
 Gaussian 16:  ES64L-G16RevA.03 25-Dec-2016

 -----------------------------------
 #p cam-b3lyp/Def2SVP td=(nstates=5)
 -----------------------------------

 --------------------------------
 TDDFT excited states in gaussian
 --------------------------------
 Symbolic Z-matrix:
 Charge =  0 Multiplicity = 1

                         Standard orientation:
 ---------------------------------------------------------------------
 Center     Atomic      Atomic             Coordinates (Angstroms)
 Number     Number       Type             X           Y           Z
 ---------------------------------------------------------------------
      1         12           0        3.571363    1.525106    0.481297
      2          6           0        4.997829   -1.174819   -1.386272
      3          6           0        3.733775    3.388399   -2.372618
      4          6           0        2.741085    4.049571    2.211712
      5          6           0        4.565366   -0.145468    3.373839
      6          7           0        4.292426    1.054129   -1.558040
      7          6           0        4.759732   -0.035826   -2.158703
      8          6           0        4.901783    0.122143   -3.702154
      9          6           0        5.026549    1.709596   -3.782299
     10          6           0        4.276038    2.076557   -2.514231
     11          6           0        6.461241    2.214552   -3.667491
     12          6           0        3.638823   -0.392810   -4.471235
     13          6           0        3.822966   -0.577353   -5.980337
     14          1           0        3.138681   -1.679302   -6.639740
     15          7           0        2.830079    3.270493   -0.072753
     16          6           0        2.981471    3.868578   -1.278847
     17          6           0        2.243597    5.147335   -1.195153
     18          6           0        1.810578    5.331166    0.217927
     19          6           0        2.474359    4.222980    0.855655
     20          6           0        1.973414    6.020597   -2.381813
     21          6           0        0.945663    6.350774    0.889087
     22          8           0        0.886234    6.460803    2.161461
     23          6           0        0.228337    7.287739    0.005582
     24          7           0        3.832292    2.015453    2.493537
     25          6           0        3.324877    3.144598    3.000039
     26          6           0        3.388035    3.147510    4.498685
     27          6           0        3.825612    1.672366    4.925567
     28          6           0        4.027861    1.068419    3.513967
     29          6           0        4.349228    4.166598    5.126045
     30          6           0        2.903385    0.925959    5.921957
     31          6           0        1.577537    0.618651    5.262573
     32          7           0        4.439098   -0.407307    0.954436
     33          6           0        4.791334   -0.885062    2.225008
     34          6           0        5.439651   -2.194856    2.029577
     35          6           0        5.434382   -2.381724    0.648672
     36          6           0        4.845282   -1.247948    0.019541
     37          6           0        5.992456   -3.012307    3.054572
     38          6           0        5.811641   -3.264451   -0.443264
     39          8           0        6.261903   -4.408686   -0.517314
     40          6           0        5.654558   -2.464635   -1.811273
     41          6           0        4.908980   -3.349951   -2.772334
     42          8           0        3.714881   -3.650954   -2.570121
     43          8           0        5.637026   -3.506820   -3.888526
     44          6           0        4.941194   -4.351182   -4.896011
     45          1           0        3.952603    4.135457   -3.138097
     46          1           0        2.369778    4.849978    2.855077
     47          1           0        4.825105   -0.762912    4.235669
     48          1           0        5.791582   -0.343126   -4.126662
     49          1           0        4.515552    2.114386   -4.655655
     50          1           0        7.149368    1.406492   -3.419621
     51          1           0        6.445050    2.958610   -2.870867
     52          1           0        6.757256    2.748897   -4.570612
     53          1           0        2.875845    0.385602   -4.471250
     54          1           0        3.275149   -1.324210   -4.035848
     55          1           0        4.877241   -0.561433   -6.258116
     56          1           0        3.396744    0.289751   -6.484981
     57          1           0        2.555855    5.710193   -3.248391
     58          1           0        2.353814    7.012864   -2.140130
     59          1           0        0.909874    6.080937   -2.613277
     60          1           0        0.950449    7.835380   -0.600383
     61          1           0       -0.408950    7.886034    0.655780
     62          1           0       -0.385691    6.716256   -0.691071
     63          1           0        2.413232    3.370038    4.930735
     64          1           0        4.803553    1.659139    5.407365
     65          1           0        3.867929    4.847820    5.828179
     66          1           0        4.833077    4.715053    4.318346
     67          1           0        5.207592    3.731012    5.636821
     68          1           0        2.693379    1.553612    6.787344
     69          1           0        3.330109   -0.008755    6.285917
     70          1           0        1.019302    1.544738    5.395122
     71          1           0        1.083702   -0.210885    5.769730
     72          1           0        1.693704    0.458810    4.190453
     73          1           0        5.680386   -4.032730    2.832492
     74          1           0        5.648641   -2.698502    4.039925
     75          1           0        7.056720   -2.830213    2.906113
     76          1           0        6.661861   -2.238888   -2.159841
     77          1           0        5.611778   -5.174253   -5.143204
     78          1           0        4.639374   -3.684351   -5.703876
     79          1           0        4.065338   -4.897757   -4.544627
     80         12           0       -3.702985   -1.668851    0.418856
     81          6           0       -4.612876    0.957907   -1.850790
     82          6           0       -3.791307    0.657724    2.911617
     83          6           0       -2.468722   -3.850891    2.363777
     84          6           0       -2.588789   -3.479766   -2.342460
     85          7           0       -4.157404    0.495779    0.407088
     86          6           0       -4.550247    1.372988   -0.504232
     87          6           0       -4.972634    2.751807    0.070247
     88          6           0       -4.135861    2.708075    1.440202
     89          6           0       -4.047976    1.194497    1.624721
     90          6           0       -2.724870    3.255027    1.301273
     91          6           0       -6.515536    2.838795    0.342109
     92          6           0       -7.042769    4.250191    0.609951
     93          1           0       -8.373994    4.600110    0.122250
     94          7           0       -3.668075   -1.749362    2.401492
     95          6           0       -3.736958   -0.709902    3.259432
     96          6           0       -3.650334   -1.293957    4.606857
     97          6           0       -3.359092   -2.746978    4.470450
     98          6           0       -3.128347   -2.836663    3.042580
     99          6           0       -3.915981   -0.503394    5.855006
    100          6           0       -3.286106   -3.867647    5.462907
    101          8           0       -2.783247   -5.006248    5.157064
    102          6           0       -3.734919   -3.563402    6.829470
    103          7           0       -2.485854   -3.322300    0.091642
    104          6           0       -2.137546   -4.135553    1.104169
    105          6           0       -1.494462   -5.401606    0.590446
    106          6           0       -1.703254   -5.376807   -0.994918
    107          6           0       -2.382166   -3.997076   -1.139194
    108          6           0       -0.007937   -5.567716    0.905182
    109          6           0       -2.396213   -6.611901   -1.632908
    110          6           0       -3.839682   -6.680422   -1.188973
    111          7           0       -3.771033   -1.431176   -1.727518
    112          6           0       -3.220550   -2.295305   -2.699283
    113          6           0       -3.420430   -1.654299   -4.015188
    114          6           0       -4.057836   -0.441431   -3.713251
    115          6           0       -4.224039   -0.324929   -2.306735
    116          6           0       -2.988790   -2.174265   -5.267958
    117          6           0       -4.618303    0.771635   -4.263737
    118          8           0       -4.837684    1.189627   -5.399913
    119          6           0       -4.888882    1.789060   -3.072928
    120          6           0       -6.276004    2.345271   -3.243352
    121          8           0       -7.270591    1.605939   -3.139462
    122          8           0       -6.210198    3.688537   -3.284047
    123          6           0       -7.562669    4.286866   -3.441048
    124          1           0       -3.568428    1.347222    3.726357
    125          1           0       -2.121357   -4.682842    2.980772
    126          1           0       -2.357423   -4.025108   -3.259929
    127          1           0       -4.667781    3.604447   -0.524595
    128          1           0       -4.691990    3.160160    2.257330
    129          1           0       -2.477230    3.474466    0.273334
    130          1           0       -2.071463    2.485961    1.691975
    131          1           0       -2.591378    4.123450    1.952703
    132          1           0       -6.735686    2.369260    1.309484
    133          1           0       -7.069610    2.392347   -0.460589
    134          1           0       -6.315629    5.021936    0.329560
    135          1           0       -7.164835    4.376160    1.688495
    136          1           0       -3.942373    0.574088    5.650716
    137          1           0       -3.046310   -0.634831    6.507908
    138          1           0       -4.809669   -0.840152    6.384689
    139          1           0       -3.143649   -2.743174    7.229570
    140          1           0       -3.691757   -4.511458    7.369110
    141          1           0       -4.772021   -3.212341    6.787075
    142          1           0       -1.986259   -6.277247    0.996015
    143          1           0       -0.745009   -5.313131   -1.531149
    144          1           0        0.220046   -6.499555    1.456328
    145          1           0        0.320639   -4.703501    1.467071
    146          1           0        0.652567   -5.545576    0.040051
    147          1           0       -1.921114   -7.533289   -1.287245
    148          1           0       -2.357530   -6.616764   -2.717105
    149          1           0       -3.775044   -7.173981   -0.214653
    150          1           0       -4.428771   -7.267597   -1.890567
    151          1           0       -4.248648   -5.676896   -1.023651
    152          1           0       -3.803277   -2.025060   -5.964265
    153          1           0       -2.718584   -3.225338   -5.190344
    154          1           0       -2.118326   -1.539259   -5.453215
    155          1           0       -4.126358    2.567012   -3.127073
    156          1           0       -7.527101    4.929047   -4.326494
    157          1           0       -7.787749    4.774435   -2.473905
    158          1           0       -8.378887    3.620896   -3.695439
 ---------------------------------------------------------------------

 SCF Done:  E(RCAM-B3LYP) =  -4069.81300073     A.U. after   19 cycles

 Excitation energies and oscillator strengths:

 Excited State   1:      Singlet-A      1.6586 eV  747.53 nm  f=0.2097  <S**2>=0.000
     309 -> 315        0.10386
     310 -> 316        0.13403
     311 -> 313       -0.42279
     312 -> 314        0.54113
 This state for optimization and/or second-order correction.
 Total Energy, E(TD-HF/TD-DFT) =  -4069.75204857
 Copying the excited state density for this state as the 1-particle RhoCI density.

 Excited State   2:      Singlet-A      1.6809 eV  737.61 nm  f=0.4408  <S**2>=0.000
     309 -> 315       -0.13791
     310 -> 316        0.10728
     311 -> 313        0.53953
     312 -> 314        0.42165

 Excited State   3:      Singlet-A      2.1806 eV  568.57 nm  f=0.0786  <S**2>=0.000
     309 -> 313        0.26053
     310 -> 314        0.58919
     311 -> 315        0.10848
     312 -> 316       -0.24512

 Excited State   4:      Singlet-A      2.1925 eV  565.50 nm  f=0.1150  <S**2>=0.000
     309 -> 313        0.58549
     310 -> 314       -0.25812
     311 -> 315        0.25419
     312 -> 316        0.11312

 Excited State   5:      Singlet-A      2.2245 eV  557.36 nm  f=0.0000  <S**2>=0.000
     312 -> 313        0.70698

 The electronic state is 1-A.
 Alpha  occ. eigenvalues --  -46.87948 -46.87392 -19.26491 -19.26301 -19.19261
 Alpha  occ. eigenvalues --  -19.19077 -19.19071 -19.18515 -19.18341 -19.17911
 Alpha  occ. eigenvalues --  -14.42591 -14.42233 -14.41611 -14.41041 -14.39563
 Alpha  occ. eigenvalues --  -14.39097 -14.38738 -14.38348 -10.39307 -10.39003
 Alpha  occ. eigenvalues --  -10.35702 -10.35197 -10.34560 -10.34091 -10.31879
 Alpha  occ. eigenvalues --  -10.31738 -10.31533 -10.31061 -10.31056 -10.30787
 Alpha  occ. eigenvalues --  -10.30712 -10.30681 -10.30377 -10.30141 -10.30123
 Alpha  occ. eigenvalues --  -10.30094 -10.29796 -10.29783 -10.29555 -10.29413
 Alpha  occ. eigenvalues --  -10.29175 -10.29165 -10.28854 -10.28592 -10.28530
 Alpha  occ. eigenvalues --  -10.28524 -10.28524 -10.28210 -10.28176 -10.27949
 Alpha  occ. eigenvalues --  -10.27878 -10.27860 -10.27777 -10.27757 -10.27695
 Alpha  occ. eigenvalues --  -10.27661 -10.27588 -10.27561 -10.27399 -10.27332
 Alpha  occ. eigenvalues --  -10.27288 -10.27244 -10.27241 -10.26960 -10.26928
 Alpha  occ. eigenvalues --  -10.26824 -10.26788 -10.26665 -10.26530 -10.26402
 Alpha  occ. eigenvalues --  -10.26319 -10.26272 -10.26171 -10.25956 -10.25694
 Alpha  occ. eigenvalues --  -10.25683 -10.25680 -10.25632 -10.25610 -10.24991
 Alpha  occ. eigenvalues --  -10.24967 -10.24943 -10.24661 -10.24563 -10.24391
 Alpha  occ. eigenvalues --  -10.24368  -3.16690  -3.16142  -1.91571  -1.91158
 Alpha  occ. eigenvalues --   -1.91025  -1.91001  -1.90612  -1.90451  -1.16843
 Alpha  occ. eigenvalues --   -1.16586  -1.08802  -1.08533  -1.07476  -1.06872
 Alpha  occ. eigenvalues --   -1.06864  -1.06769  -1.04725  -1.04243  -1.03921
 Alpha  occ. eigenvalues --   -1.03394  -1.03391  -1.02743  -1.02570  -1.01831
 Alpha  occ. eigenvalues --   -0.92132  -0.91768  -0.89703  -0.89293  -0.89154
 Alpha  occ. eigenvalues --   -0.88903  -0.88474  -0.88010  -0.87811  -0.87804
 Alpha  occ. eigenvalues --   -0.87578  -0.87446  -0.87397  -0.86914  -0.85110
 Alpha  occ. eigenvalues --   -0.84759  -0.84135  -0.83474  -0.83175  -0.82803
 Alpha  occ. eigenvalues --   -0.82685  -0.82408  -0.81755  -0.81427  -0.80764
 Alpha  occ. eigenvalues --   -0.80237  -0.78952  -0.78415  -0.77373  -0.77075
 Alpha  occ. eigenvalues --   -0.76895  -0.76627  -0.76064  -0.75615  -0.75076
 Alpha  occ. eigenvalues --   -0.74356  -0.72926  -0.72437  -0.71826  -0.71248
 Alpha  occ. eigenvalues --   -0.70108  -0.69327  -0.69012  -0.68594  -0.67812
 Alpha  occ. eigenvalues --   -0.67352  -0.67350  -0.67010  -0.65418  -0.65059
 Alpha  occ. eigenvalues --   -0.65018  -0.64783  -0.64528  -0.64449  -0.64411
 Alpha  occ. eigenvalues --   -0.63826  -0.62483  -0.62092  -0.60619  -0.60076
 Alpha  occ. eigenvalues --   -0.59927  -0.59566  -0.59150  -0.58716  -0.58670
 Alpha  occ. eigenvalues --   -0.58173  -0.57762  -0.57494  -0.57408  -0.56941
 Alpha  occ. eigenvalues --   -0.56465  -0.56153  -0.55993  -0.55727  -0.55695
 Alpha  occ. eigenvalues --   -0.55533  -0.55277  -0.54937  -0.54722  -0.54160
 Alpha  occ. eigenvalues --   -0.54009  -0.53675  -0.53475  -0.53379  -0.53097
 Alpha  occ. eigenvalues --   -0.52989  -0.52926  -0.52911  -0.52694  -0.52650
 Alpha  occ. eigenvalues --   -0.52474  -0.52054  -0.52018  -0.51753  -0.51693
 Alpha  occ. eigenvalues --   -0.51467  -0.51358  -0.50972  -0.50750  -0.50267
 Alpha  occ. eigenvalues --   -0.50213  -0.50095  -0.49742  -0.49673  -0.49448
 Alpha  occ. eigenvalues --   -0.49378  -0.49271  -0.49223  -0.49003  -0.48881
 Alpha  occ. eigenvalues --   -0.48751  -0.48659  -0.48635  -0.48358  -0.48151
 Alpha  occ. eigenvalues --   -0.47957  -0.47855  -0.47459  -0.47337  -0.46952
 Alpha  occ. eigenvalues --   -0.46827  -0.46681  -0.46521  -0.46427  -0.46331
 Alpha  occ. eigenvalues --   -0.46280  -0.46013  -0.45974  -0.45762  -0.45605
 Alpha  occ. eigenvalues --   -0.45384  -0.44759  -0.44742  -0.44676  -0.44323
 Alpha  occ. eigenvalues --   -0.44300  -0.44224  -0.44219  -0.44186  -0.43908
 Alpha  occ. eigenvalues --   -0.43782  -0.43755  -0.43666  -0.43532  -0.43375
 Alpha  occ. eigenvalues --   -0.43186  -0.43103  -0.42898  -0.42858  -0.42800
 Alpha  occ. eigenvalues --   -0.42619  -0.42191  -0.42183  -0.41871  -0.41667
 Alpha  occ. eigenvalues --   -0.41659  -0.41419  -0.41292  -0.41195  -0.41050
 Alpha  occ. eigenvalues --   -0.41002  -0.40744  -0.40684  -0.40521  -0.40439
 Alpha  occ. eigenvalues --   -0.40335  -0.40081  -0.40051  -0.39654  -0.39004
 Alpha  occ. eigenvalues --   -0.38644  -0.37940  -0.37864  -0.37492  -0.37440
 Alpha  occ. eigenvalues --   -0.37392  -0.36993  -0.36918  -0.36892  -0.36619
 Alpha  occ. eigenvalues --   -0.36375  -0.35872  -0.34441  -0.33998  -0.33990
 Alpha  occ. eigenvalues --   -0.33740  -0.33350  -0.32905  -0.31593  -0.31200
 Alpha  occ. eigenvalues --   -0.31066  -0.30705  -0.30199  -0.29821  -0.29622
 Alpha  occ. eigenvalues --   -0.29479  -0.29108  -0.28996  -0.24236  -0.23766
 Alpha  occ. eigenvalues --   -0.21282  -0.20843
 Alpha virt. eigenvalues --   -0.08937  -0.08547  -0.01918  -0.01394  -0.00246
 Alpha virt. eigenvalues --    0.00180   0.02023   0.02332   0.02545   0.03607
 Alpha virt. eigenvalues --    0.04587   0.04885   0.05028   0.05267   0.06049

 Mulliken charges:
               1
     1  Mg   0.839057
     2  C   -0.003019
     3  C   -0.092769
     4  C   -0.047201
     5  C   -0.063430
     6  N   -0.256806
     7  C   -0.051905
     8  C   -0.014282
     9  C   -0.087235
    10  C    0.046407
    11  C    0.104668
    12  C    0.053114
    13  C   -0.072212
    14  H    0.035675
    15  N   -0.433224
    16  C    0.168461
    17  C   -0.176937
    18  C   -0.004967
    19  C    0.148867
    20  C    0.109946
    21  C    0.011121
    22  O   -0.251758
    23  C    0.062685
    24  N   -0.341153
    25  C    0.041730
    26  C   -0.027924
    27  C   -0.023886
    28  C    0.074724
    29  C    0.076179
    30  C    0.035148
    31  C   -0.004521
    32  N   -0.310615
    33  C    0.080727
    34  C   -0.169263
    35  C    0.008040
    36  C    0.083018
    37  C    0.127383
    38  C    0.045423
    39  O   -0.188444
    40  C   -0.005264
    41  C    0.213462
    42  O   -0.259434
    43  O   -0.304093
    44  C    0.158054
    45  H   -0.016860
    46  H   -0.017950
    47  H   -0.041053
    48  H    0.001025
    49  H   -0.002860
    50  H    0.025422
    51  H    0.016361
    52  H    0.017322
    53  H    0.012704
    54  H    0.043023
    55  H    0.017965
    56  H    0.019713
    57  H    0.007164
    58  H    0.026899
    59  H    0.040388
    60  H    0.038798
    61  H    0.034306
    62  H    0.031002
    63  H    0.014533
    64  H    0.009936
    65  H    0.022597
    66  H    0.013046
    67  H    0.005215
    68  H    0.005323
    69  H    0.006100
    70  H    0.004618
    71  H    0.019130
    72  H    0.030984
    73  H    0.047856
    74  H    0.009839
    75  H    0.046192
    76  H    0.035744
    77  H    0.043479
    78  H    0.047303
    79  H    0.051760
    80  Mg   0.836890
    81  C   -0.017596
    82  C   -0.088858
    83  C   -0.045569
    84  C   -0.060976
    85  N   -0.254952
    86  C   -0.050147
    87  C   -0.014770
    88  C   -0.090570
    89  C    0.045417
    90  C    0.112705
    91  C    0.062660
    92  C   -0.077355
    93  H    0.033785
    94  N   -0.423611
    95  C    0.163239
    96  C   -0.174954
    97  C   -0.008224
    98  C    0.152405
    99  C    0.099636
   100  C    0.014740
   101  O   -0.252766
   102  C    0.061555
   103  N   -0.350394
   104  C    0.039324
   105  C   -0.021417
   106  C   -0.035680
   107  C    0.089574
   108  C    0.069465
   109  C    0.034345
   110  C   -0.007339
   111  N   -0.324029
   112  C    0.077832
   113  C   -0.163334
   114  C    0.001076
   115  C    0.096454
   116  C    0.132120
   117  C    0.041213
   118  O   -0.190260
   119  C    0.001385
   120  C    0.211263
   121  O   -0.250776
   122  O   -0.306438
   123  C    0.152117
   124  H   -0.018811
   125  H   -0.015009
   126  H   -0.039775
   127  H   -0.003220
   128  H   -0.004329
   129  H    0.018421
   130  H    0.015612
   131  H    0.023455
   132  H    0.014076
   133  H    0.037201
   134  H    0.019959
   135  H    0.020057
   136  H    0.009086
   137  H    0.024748
   138  H    0.039226
   139  H    0.036946
   140  H    0.035973
   141  H    0.033854
   142  H    0.012776
   143  H    0.021515
   144  H    0.022951
   145  H    0.011991
   146  H    0.020644
   147  H    0.006969
   148  H    0.002683
   149  H    0.010574
   150  H    0.016442
   151  H    0.028997
   152  H    0.044786
   153  H    0.008993
   154  H    0.045342
   155  H    0.032058
   156  H    0.042758
   157  H    0.049635
   158  H    0.053662
 Sum of Mulliken charges =  -0.00000

 Dipole moment (field-independent basis, Debye):
    X=              2.3483    Y=              5.4181    Z=              1.2409  Tot=              6.0341
 Quadrupole moment (field-independent basis, Debye-Ang):
   XX=           -523.8617   YY=           -512.8315   ZZ=           -483.5993
   XY=              5.9135   XZ=            -35.4939   YZ=              7.0027

 Normal termination of Gaussian 16 at Wed Sep  8 23:22:31 2021.
