 Gaussian 16, Revision A.03,
 Gaussian 16:  ES64L-G16RevA.03 25-Dec-2016

 -----------------------------------
 #p cam-b3lyp/Def2SVP td=(nstates=5)
 -----------------------------------

 --------------------------------
 TDDFT excited states in gaussian
 --------------------------------
 Symbolic Z-matrix:
 Charge =  0 Multiplicity = 1

                         Standard orientation:
 ---------------------------------------------------------------------
 Center     Atomic      Atomic             Coordinates (Angstroms)
 Number     Number       Type             X           Y           Z
 ---------------------------------------------------------------------
      1         12           0      -15.733950   -0.720477   -0.225767
      2          6           0      -15.987575    2.086999    1.980126
      3          6           0      -16.576146    1.391559   -2.769992
      4          6           0      -15.960976   -3.259060   -2.112743
      5          6           0      -16.033091   -2.765071    2.580620
      6          7           0      -16.196971    1.443955   -0.264412
      7          6           0      -16.200743    2.418097    0.640134
      8          6           0      -16.377750    3.836354    0.019982
      9          6           0      -17.105663    3.428032   -1.338478
     10          6           0      -16.567752    2.015790   -1.487300
     11          6           0      -18.625071    3.365009   -1.220449
     12          6           0      -15.006468    4.540748   -0.254148
     13          6           0      -15.090229    6.040924   -0.550477
     14          1           0      -14.026776    6.910111   -0.069926
     15          7           0      -15.719605   -0.857314   -2.196534
     16          6           0      -16.078645    0.106821   -3.077907
     17          6           0      -15.893289   -0.480460   -4.422312
     18          6           0      -15.578799   -1.925741   -4.248091
     19          6           0      -15.768798   -2.079634   -2.828374
     20          6           0      -15.970107    0.318574   -5.686984
     21          6           0      -15.181842   -3.000375   -5.210233
     22          8           0      -15.181981   -4.237201   -4.886449
     23          6           0      -14.873880   -2.569469   -6.585922
     24          7           0      -16.183760   -2.725889    0.139787
     25          6           0      -16.157229   -3.629779   -0.845739
     26          6           0      -16.231222   -5.027609   -0.306724
     27          6           0      -16.068706   -4.900017    1.276646
     28          6           0      -16.007994   -3.356302    1.384007
     29          6           0      -17.517701   -5.801173   -0.627005
     30          6           0      -14.939409   -5.730267    1.936793
     31          6           0      -13.591468   -5.203296    1.498099
     32          7           0      -15.791825   -0.430690    1.924516
     33          6           0      -15.944382   -1.421654    2.905021
     34          6           0      -16.034059   -0.732493    4.205438
     35          6           0      -15.943492    0.621204    3.887401
     36          6           0      -15.832341    0.769579    2.475338
     37          6           0      -16.237876   -1.357278    5.467395
     38          6           0      -15.939533    1.977969    4.409924
     39          8           0      -15.911742    2.472805    5.537691
     40          6           0      -16.090492    2.986411    3.186779
     41          6           0      -15.051311    4.061462    3.353140
     42          8           0      -13.835714    3.796915    3.254637
     43          8           0      -15.651198    5.261692    3.364414
     44          6           0      -14.673272    6.374440    3.497101
     45          1           0      -17.059262    1.904905   -3.603668
     46          1           0      -15.934228   -4.168174   -2.717088
     47          1           0      -16.042360   -3.341641    3.507407
     48          1           0      -17.014343    4.508103    0.596112
     49          1           0      -16.782366    4.046815   -2.175323
     50          1           0      -18.949733    3.485541   -0.187014
     51          1           0      -18.905529    2.380439   -1.595227
     52          1           0      -19.095802    4.085626   -1.889701
     53          1           0      -14.603734    4.186413   -1.202996
     54          1           0      -14.315295    4.374665    0.572909
     55          1           0      -16.065941    6.446484   -0.281377
     56          1           0      -15.027417    6.179893   -1.629802
     57          1           0      -16.378802    1.312402   -5.508603
     58          1           0      -16.706839   -0.167350   -6.326368
     59          1           0      -15.010360    0.365341   -6.201796
     60          1           0      -15.745602   -2.071191   -7.010620
     61          1           0      -14.523779   -3.459018   -7.108399
     62          1           0      -14.079908   -1.822842   -6.552670
     63          1           0      -15.422477   -5.641879   -0.700464
     64          1           0      -16.970167   -5.208681    1.806523
     65          1           0      -17.344019   -6.743436   -1.147275
     66          1           0      -18.168041   -5.147803   -1.207915
     67          1           0      -18.145905   -6.020669    0.235896
     68          1           0      -14.996803   -6.770164    1.617003
     69          1           0      -14.975176   -5.715840    3.026180
     70          1           0      -13.435929   -5.699490    0.540795
     71          1           0      -12.820334   -5.487390    2.214936
     72          1           0      -13.626352   -4.130529    1.307207
     73          1           0      -15.553467   -0.871132    6.162532
     74          1           0      -16.051720   -2.429653    5.412984
     75          1           0      -17.288298   -1.124084    5.640863
     76          1           0      -17.103306    3.385441    3.232662
     77          1           0      -14.971123    6.961639    4.365845
     78          1           0      -14.644811    6.878804    2.531072
     79          1           0      -13.657691    6.092775    3.777460
     80         12           0       16.007594   -0.560051    0.321075
     81          6           0       14.803161    1.804069   -2.095396
     82          6           0       18.009810    1.922368    1.530762
     83          6           0       17.412935   -2.727370    2.163674
     84          6           0       14.803268   -3.086348   -1.755721
     85          7           0       16.281147    1.548834   -0.287233
     86          6           0       15.724271    2.353817   -1.179552
     87          6           0       16.119856    3.847712   -1.033460
     88          6           0       17.521154    3.652223   -0.273829
     89          6           0       17.249656    2.307593    0.397687
     90          6           0       18.699637    3.484992   -1.218568
     91          6           0       15.098461    4.653486   -0.156243
     92          6           0       15.251119    6.174561   -0.225384
     93          1           0       14.047387    6.998622   -0.158901
     94          7           0       17.116999   -0.334975    1.951153
     95          6           0       17.846023    0.747003    2.296289
     96          6           0       18.494024    0.405270    3.572012
     97          6           0       18.219206   -1.026887    3.868877
     98          6           0       17.575797   -1.433000    2.635516
     99          6           0       19.215076    1.416638    4.415004
    100          6           0       18.501683   -1.891490    5.060039
    101          8           0       18.388689   -3.167168    5.008087
    102          6           0       19.004245   -1.208819    6.261241
    103          7           0       16.286924   -2.610758    0.123863
    104          6           0       16.884372   -3.323629    1.094840
    105          6           0       16.727067   -4.806737    0.858134
    106          6           0       15.687890   -4.941142   -0.350016
    107          6           0       15.483599   -3.445283   -0.675685
    108          6           0       18.008717   -5.564993    0.513414
    109          6           0       14.432549   -5.822162   -0.103823
    110          6           0       13.538881   -5.170690    0.926868
    111          7           0       14.827086   -0.657530   -1.485840
    112          6           0       14.459945   -1.817036   -2.203347
    113          6           0       13.758208   -1.369740   -3.423974
    114          6           0       13.786235    0.030647   -3.342717
    115          6           0       14.475700    0.428352   -2.165443
    116          6           0       13.242666   -2.217102   -4.444912
    117          6           0       13.398635    1.263035   -3.990548
    118          8           0       12.716767    1.550615   -4.973447
    119          6           0       14.150209    2.467627   -3.276057
    120          6           0       13.140359    3.548300   -3.002444
    121          8           0       12.209505    3.355181   -2.200675
    122          8           0       13.561655    4.697018   -3.562211
    123          6           0       12.598521    5.801526   -3.308705
    124          1           0       18.839018    2.559209    1.840166
    125          1           0       17.783564   -3.518466    2.819636
    126          1           0       14.311765   -3.814302   -2.404714
    127          1           0       16.274248    4.370405   -1.969793
    128          1           0       17.677152    4.426642    0.472704
    129          1           0       18.382841    3.406769   -2.247962
    130          1           0       19.200171    2.577638   -0.906759
    131          1           0       19.420660    4.293691   -1.068649
    132          1           0       15.329693    4.489450    0.904124
    133          1           0       14.089798    4.380169   -0.398145
    134          1           0       15.885255    6.487489   -1.063757
    135          1           0       15.794708    6.509427    0.661406
    136          1           0       19.395748    2.346307    3.861409
    137          1           0       20.216313    1.016498    4.608064
    138          1           0       18.717827    1.600497    5.369792
    139          1           0       19.926589   -0.685747    6.020072
    140          1           0       19.061487   -1.979126    7.032748
    141          1           0       18.277704   -0.444603    6.559094
    142          1           0       16.315157   -5.296297    1.732073
    143          1           0       16.151756   -5.395542   -1.237811
    144          1           0       18.220679   -6.401413    1.205902
    145          1           0       18.830100   -4.860866    0.504940
    146          1           0       18.045715   -5.975250   -0.494320
    147          1           0       14.724899   -6.791576    0.307175
    148          1           0       13.856455   -6.014043   -1.002870
    149          1           0       13.988162   -5.481497    1.874834
    150          1           0       12.518240   -5.536624    0.835077
    151          1           0       13.606917   -4.077963    0.872442
    152          1           0       12.265275   -1.832655   -4.704516
    153          1           0       13.188434   -3.251842   -4.113035
    154          1           0       14.001212   -2.073532   -5.219031
    155          1           0       14.939840    2.805852   -3.948128
    156          1           0       12.320105    6.212768   -4.283920
    157          1           0       13.105717    6.483542   -2.600637
    158          1           0       11.627840    5.537438   -2.905601
 ---------------------------------------------------------------------

 SCF Done:  E(RCAM-B3LYP) =  -4069.81177012     A.U. after   19 cycles

 Excitation energies and oscillator strengths:

 Excited State   1:      Singlet-A      1.6754 eV  740.02 nm  f=0.2707  <S**2>=0.000
     309 -> 316        0.17026
     311 -> 313        0.67297
     312 -> 314        0.13335
     309 <- 316        0.10264
 This state for optimization and/or second-order correction.
 Total Energy, E(TD-HF/TD-DFT) =  -4069.75019954
 Copying the excited state density for this state as the 1-particle RhoCI density.

 Excited State   2:      Singlet-A      1.6801 eV  737.97 nm  f=0.5082  <S**2>=0.000
     310 -> 315        0.17226
     311 -> 313       -0.13331
     312 -> 314        0.67261
     310 <- 315        0.10314

 Excited State   3:      Singlet-A      2.1861 eV  567.14 nm  f=0.0952  <S**2>=0.000
     309 -> 313        0.64210
     311 -> 316       -0.27297

 Excited State   4:      Singlet-A      2.1926 eV  565.48 nm  f=0.1049  <S**2>=0.000
     310 -> 314        0.64032
     312 -> 315       -0.27816

 Excited State   5:      Singlet-A      3.0515 eV  406.31 nm  f=0.0000  <S**2>=0.000
     312 -> 313        0.70710

 The electronic state is 1-A.
 Alpha  occ. eigenvalues --  -46.87733 -46.87662 -19.26351 -19.26222 -19.19162
 Alpha  occ. eigenvalues --  -19.18957 -19.18750 -19.18713 -19.18108 -19.18054
 Alpha  occ. eigenvalues --  -14.42499 -14.42387 -14.41387 -14.41361 -14.39353
 Alpha  occ. eigenvalues --  -14.39339 -14.38601 -14.38524 -10.39092 -10.39016
 Alpha  occ. eigenvalues --  -10.35390 -10.35383 -10.34328 -10.34231 -10.31758
 Alpha  occ. eigenvalues --  -10.31618 -10.31343 -10.31311 -10.31024 -10.30845
 Alpha  occ. eigenvalues --  -10.30507 -10.30445 -10.30399 -10.30362 -10.30144
 Alpha  occ. eigenvalues --  -10.30142 -10.29896 -10.29859 -10.29568 -10.29438
 Alpha  occ. eigenvalues --  -10.29402 -10.29191 -10.28720 -10.28686 -10.28653
 Alpha  occ. eigenvalues --  -10.28473 -10.28406 -10.28302 -10.28143 -10.28055
 Alpha  occ. eigenvalues --  -10.28003 -10.27730 -10.27671 -10.27664 -10.27521
 Alpha  occ. eigenvalues --  -10.27519 -10.27485 -10.27468 -10.27465 -10.27440
 Alpha  occ. eigenvalues --  -10.27416 -10.27389 -10.27377 -10.27341 -10.27097
 Alpha  occ. eigenvalues --  -10.27053 -10.26692 -10.26639 -10.26412 -10.26342
 Alpha  occ. eigenvalues --  -10.26176 -10.26136 -10.26121 -10.26029 -10.25957
 Alpha  occ. eigenvalues --  -10.25936 -10.25854 -10.25785 -10.25401 -10.25378
 Alpha  occ. eigenvalues --  -10.24875 -10.24770 -10.24727 -10.24725 -10.24691
 Alpha  occ. eigenvalues --  -10.24621  -3.16476  -3.16412  -1.91357  -1.91294
 Alpha  occ. eigenvalues --   -1.90944  -1.90882  -1.90786  -1.90719  -1.16645
 Alpha  occ. eigenvalues --   -1.16571  -1.08661  -1.08566  -1.07151  -1.06966
 Alpha  occ. eigenvalues --   -1.06946  -1.06579  -1.04518  -1.04497  -1.03698
 Alpha  occ. eigenvalues --   -1.03664  -1.03171  -1.03040  -1.02348  -1.02113
 Alpha  occ. eigenvalues --   -0.91989  -0.91910  -0.89495  -0.89457  -0.89153
 Alpha  occ. eigenvalues --   -0.89125  -0.88225  -0.88221  -0.87809  -0.87796
 Alpha  occ. eigenvalues --   -0.87685  -0.87610  -0.87209  -0.87120  -0.85001
 Alpha  occ. eigenvalues --   -0.84919  -0.83877  -0.83874  -0.82931  -0.82902
 Alpha  occ. eigenvalues --   -0.82653  -0.82585  -0.81598  -0.81523  -0.80533
 Alpha  occ. eigenvalues --   -0.80444  -0.78734  -0.78636  -0.77156  -0.77146
 Alpha  occ. eigenvalues --   -0.76900  -0.76872  -0.75861  -0.75841  -0.74837
 Alpha  occ. eigenvalues --   -0.74804  -0.72712  -0.72701  -0.71611  -0.71583
 Alpha  occ. eigenvalues --   -0.69844  -0.69758  -0.68828  -0.68810  -0.67603
 Alpha  occ. eigenvalues --   -0.67578  -0.67200  -0.67155  -0.65273  -0.65223
 Alpha  occ. eigenvalues --   -0.64791  -0.64772  -0.64655  -0.64558  -0.64207
 Alpha  occ. eigenvalues --   -0.64205  -0.62280  -0.62235  -0.60378  -0.60340
 Alpha  occ. eigenvalues --   -0.59798  -0.59742  -0.58994  -0.58925  -0.58441
 Alpha  occ. eigenvalues --   -0.58427  -0.57556  -0.57522  -0.57246  -0.57237
 Alpha  occ. eigenvalues --   -0.56247  -0.56206  -0.55916  -0.55888  -0.55457
 Alpha  occ. eigenvalues --   -0.55453  -0.55278  -0.55249  -0.54489  -0.54461
 Alpha  occ. eigenvalues --   -0.53914  -0.53832  -0.53236  -0.53229  -0.53158
 Alpha  occ. eigenvalues --   -0.53143  -0.52903  -0.52852  -0.52691  -0.52668
 Alpha  occ. eigenvalues --   -0.52400  -0.52375  -0.51888  -0.51854  -0.51659
 Alpha  occ. eigenvalues --   -0.51553  -0.51203  -0.51134  -0.50507  -0.50474
 Alpha  occ. eigenvalues --   -0.49981  -0.49969  -0.49868  -0.49854  -0.49488
 Alpha  occ. eigenvalues --   -0.49451  -0.49204  -0.49152  -0.49107  -0.49034
 Alpha  occ. eigenvalues --   -0.48560  -0.48531  -0.48399  -0.48382  -0.48378
 Alpha  occ. eigenvalues --   -0.48339  -0.47632  -0.47596  -0.47234  -0.47119
 Alpha  occ. eigenvalues --   -0.46735  -0.46710  -0.46555  -0.46492  -0.46296
 Alpha  occ. eigenvalues --   -0.46272  -0.46101  -0.46088  -0.45825  -0.45761
 Alpha  occ. eigenvalues --   -0.45210  -0.45140  -0.44516  -0.44516  -0.44477
 Alpha  occ. eigenvalues --   -0.44443  -0.44129  -0.44081  -0.44078  -0.44026
 Alpha  occ. eigenvalues --   -0.43956  -0.43940  -0.43555  -0.43433  -0.43387
 Alpha  occ. eigenvalues --   -0.43323  -0.42965  -0.42932  -0.42903  -0.42637
 Alpha  occ. eigenvalues --   -0.42592  -0.42554  -0.41964  -0.41946  -0.41671
 Alpha  occ. eigenvalues --   -0.41642  -0.41470  -0.41459  -0.41079  -0.40991
 Alpha  occ. eigenvalues --   -0.40806  -0.40758  -0.40722  -0.40699  -0.40509
 Alpha  occ. eigenvalues --   -0.40494  -0.40227  -0.40169  -0.39425  -0.39378
 Alpha  occ. eigenvalues --   -0.38407  -0.38351  -0.37684  -0.37654  -0.37267
 Alpha  occ. eigenvalues --   -0.37258  -0.37200  -0.37200  -0.36772  -0.36651
 Alpha  occ. eigenvalues --   -0.36218  -0.36130  -0.34255  -0.34223  -0.33863
 Alpha  occ. eigenvalues --   -0.33707  -0.33177  -0.33123  -0.31279  -0.31272
 Alpha  occ. eigenvalues --   -0.30974  -0.30973  -0.29968  -0.29958  -0.29386
 Alpha  occ. eigenvalues --   -0.29328  -0.29259  -0.29213  -0.24038  -0.24018
 Alpha  occ. eigenvalues --   -0.21118  -0.21065
 Alpha virt. eigenvalues --   -0.08793  -0.08711  -0.01687  -0.01685  -0.00029
 Alpha virt. eigenvalues --    0.00006   0.02205   0.02262   0.03189   0.03230
 Alpha virt. eigenvalues --    0.04728   0.04781   0.05161   0.05164   0.06182

 Mulliken charges:
               1
     1  Mg   0.838776
     2  C   -0.002943
     3  C   -0.094101
     4  C   -0.045850
     5  C   -0.063954
     6  N   -0.256779
     7  C   -0.052448
     8  C   -0.014059
     9  C   -0.086996
    10  C    0.046343
    11  C    0.104831
    12  C    0.053460
    13  C   -0.071826
    14  H    0.036204
    15  N   -0.433129
    16  C    0.168455
    17  C   -0.177144
    18  C   -0.003971
    19  C    0.148729
    20  C    0.110189
    21  C    0.012327
    22  O   -0.249623
    23  C    0.062450
    24  N   -0.341136
    25  C    0.041246
    26  C   -0.028177
    27  C   -0.023966
    28  C    0.074834
    29  C    0.076203
    30  C    0.035134
    31  C   -0.004510
    32  N   -0.310451
    33  C    0.080404
    34  C   -0.169728
    35  C    0.008342
    36  C    0.083014
    37  C    0.127311
    38  C    0.046107
    39  O   -0.188514
    40  C   -0.005325
    41  C    0.212860
    42  O   -0.257017
    43  O   -0.304836
    44  C    0.157689
    45  H   -0.017627
    46  H   -0.016847
    47  H   -0.041539
    48  H    0.000883
    49  H   -0.004004
    50  H    0.025428
    51  H    0.016418
    52  H    0.016617
    53  H    0.011286
    54  H    0.044174
    55  H    0.017788
    56  H    0.017979
    57  H    0.005865
    58  H    0.026780
    59  H    0.039668
    60  H    0.037296
    61  H    0.035687
    62  H    0.031622
    63  H    0.016593
    64  H    0.009386
    65  H    0.023189
    66  H    0.012511
    67  H    0.004685
    68  H    0.006323
    69  H    0.004688
    70  H    0.008816
    71  H    0.018185
    72  H    0.029038
    73  H    0.047561
    74  H    0.009093
    75  H    0.045925
    76  H    0.035079
    77  H    0.042869
    78  H    0.046414
    79  H    0.053746
    80  Mg   0.837922
    81  C   -0.016859
    82  C   -0.087789
    83  C   -0.045499
    84  C   -0.064892
    85  N   -0.254566
    86  C   -0.049844
    87  C   -0.015081
    88  C   -0.090521
    89  C    0.045786
    90  C    0.114382
    91  C    0.062506
    92  C   -0.077906
    93  H    0.034960
    94  N   -0.423498
    95  C    0.162946
    96  C   -0.174620
    97  C   -0.007781
    98  C    0.152130
    99  C    0.099365
   100  C    0.015593
   101  O   -0.253152
   102  C    0.061176
   103  N   -0.350089
   104  C    0.037528
   105  C   -0.019846
   106  C   -0.034814
   107  C    0.088931
   108  C    0.073661
   109  C    0.034736
   110  C   -0.007692
   111  N   -0.324102
   112  C    0.078466
   113  C   -0.163129
   114  C    0.002233
   115  C    0.096217
   116  C    0.131488
   117  C    0.042382
   118  O   -0.187907
   119  C    0.000944
   120  C    0.211233
   121  O   -0.250946
   122  O   -0.305662
   123  C    0.152022
   124  H   -0.019660
   125  H   -0.015549
   126  H   -0.040456
   127  H   -0.000683
   128  H   -0.004295
   129  H    0.022427
   130  H    0.014411
   131  H    0.016279
   132  H    0.013964
   133  H    0.037713
   134  H    0.020739
   135  H    0.019615
   136  H    0.008765
   137  H    0.026143
   138  H    0.039865
   139  H    0.038240
   140  H    0.036443
   141  H    0.033951
   142  H    0.014452
   143  H    0.012384
   144  H    0.025162
   145  H    0.011610
   146  H    0.005646
   147  H    0.006273
   148  H    0.003646
   149  H    0.010962
   150  H    0.018009
   151  H    0.030109
   152  H    0.046026
   153  H    0.008531
   154  H    0.046882
   155  H    0.034980
   156  H    0.043863
   157  H    0.049505
   158  H    0.053636
 Sum of Mulliken charges =  -0.00000

 Dipole moment (field-independent basis, Debye):
    X=              1.7060    Y=              2.9596    Z=             -2.2077  Tot=              4.0674
 Quadrupole moment (field-independent basis, Debye-Ang):
   XX=           -345.4007   YY=           -461.7774   ZZ=           -533.8376
   XY=             25.6902   XZ=             82.6472   YZ=            -12.8549

 Normal termination of Gaussian 16 at Sun Sep 12 14:05:52 2021.
