 Gaussian 16, Revision A.03,
 Gaussian 16:  ES64L-G16RevA.03 25-Dec-2016

 -----------------------------------
 #p cam-b3lyp/Def2SVP td=(nstates=5)
 -----------------------------------

 --------------------------------
 TDDFT excited states in gaussian
 --------------------------------
 Symbolic Z-matrix:
 Charge =  0 Multiplicity = 1

                         Standard orientation:
 ---------------------------------------------------------------------
 Center     Atomic      Atomic             Coordinates (Angstroms)
 Number     Number       Type             X           Y           Z
 ---------------------------------------------------------------------
      1         12           0       -6.548393   -0.708254   -0.275418
      2          6           0       -6.882263    1.922837    2.128351
      3          6           0       -7.340639    1.584955   -2.674711
      4          6           0       -6.705508   -3.098241   -2.353855
      5          6           0       -6.904463   -2.960931    2.359790
      6          7           0       -7.027636    1.450068   -0.163082
      7          6           0       -7.062926    2.352997    0.811928
      8          6           0       -7.235034    3.812984    0.295992
      9          6           0       -7.923819    3.504141   -1.108354
     10          6           0       -7.370855    2.110467   -1.348831
     11          6           0       -9.445240    3.423196   -1.036051
     12          6           0       -5.862754    4.544359    0.112499
     13          6           0       -5.950789    6.062111   -0.071984
     14          1           0       -4.907308    6.898890    0.500988
     15          7           0       -6.481349   -0.695619   -2.249803
     16          6           0       -6.824930    0.330202   -3.065234
     17          6           0       -6.599717   -0.152630   -4.444667
     18          6           0       -6.278284   -1.605019   -4.371596
     19          6           0       -6.504149   -1.866948   -2.973113
     20          6           0       -6.649817    0.739249   -5.647078
     21          6           0       -5.847639   -2.601421   -5.401091
     22          8           0       -5.846309   -3.859164   -5.171623
     23          6           0       -5.507236   -2.065892   -6.731646
     24          7           0       -6.991478   -2.738244   -0.074290
     25          6           0       -6.931882   -3.564864   -1.124114
     26          6           0       -7.008719   -4.999865   -0.694220
     27          6           0       -6.888750   -4.991363    0.898039
     28          6           0       -6.843288   -3.459843    1.123096
     29          6           0       -8.280107   -5.754761   -1.106183
     30          6           0       -5.770486   -5.862306    1.523629
     31          6           0       -4.415801   -5.295542    1.162096
     32          7           0       -6.664882   -0.582214    1.888280
     33          6           0       -6.835086   -1.645373    2.786833
     34          6           0       -6.964323   -1.057050    4.132658
     35          6           0       -6.876350    0.317339    3.920148
     36          6           0       -6.729459    0.572710    2.526771
     37          6           0       -7.196083   -1.776672    5.338006
     38          6           0       -6.896986    1.630717    4.543421
     39          8           0       -6.902715    2.039036    5.705632
     40          6           0       -7.023971    2.727812    3.396214
     41          6           0       -5.998182    3.793469    3.670880
     42          8           0       -4.778333    3.544476    3.585220
     43          8           0       -6.607792    4.985765    3.756604
     44          6           0       -5.642656    6.091185    3.998911
     45          1           0       -7.805872    2.156930   -3.479908
     46          1           0       -6.655633   -3.958886   -3.024109
     47          1           0       -6.933359   -3.605963    3.239876
     48          1           0       -7.891877    4.435396    0.903926
     49          1           0       -7.583707    4.186360   -1.887214
     50          1           0       -9.797811    3.463290   -0.005513
     51          1           0       -9.707862    2.468101   -1.491371
     52          1           0       -9.904067    4.189489   -1.661390
     53          1           0       -5.432476    4.265211   -0.849269
     54          1           0       -5.192161    4.320405    0.942846
     55          1           0       -6.936443    6.440263    0.200770
     56          1           0       -5.860857    6.282657   -1.135691
     57          1           0       -7.071022    1.714259   -5.405239
     58          1           0       -7.365622    0.298611   -6.340742
     59          1           0       -5.677326    0.830600   -6.131072
     60          1           0       -6.371518   -1.542209   -7.140695
     61          1           0       -5.136431   -2.911265   -7.310178
     62          1           0       -4.720437   -1.319133   -6.620980
     63          1           0       -6.185028   -5.577712   -1.111414
     64          1           0       -7.801265   -5.344643    1.378855
     65          1           0       -8.085289   -6.653927   -1.691205
     66          1           0       -8.920247   -5.063285   -1.653332
     67          1           0       -8.928905   -6.042656   -0.279385
     68          1           0       -5.811121   -6.875378    1.124908
     69          1           0       -5.834881   -5.930495    2.609656
     70          1           0       -4.231264   -5.716995    0.174596
     71          1           0       -3.661442   -5.628353    1.875813
     72          1           0       -4.454301   -4.211644    1.051785
     73          1           0       -6.534042   -1.340344    6.085862
     74          1           0       -6.999948   -2.840720    5.207871
     75          1           0       -8.252528   -1.563611    5.500440
     76          1           0       -8.040815    3.116106    3.444983
     77          1           0       -5.967865    6.609217    4.901195
     78          1           0       -5.592967    6.667301    3.074775
     79          1           0       -4.632532    5.795273    4.284264
     80         12           0        6.661012   -0.574937    0.311994
     81          6           0        6.403534    1.959961   -2.215268
     82          6           0        7.913369    1.828203    2.383490
     83          6           0        7.320416   -2.864851    2.406959
     84          6           0        6.484759   -2.941508   -2.240255
     85          7           0        7.059146    1.579489    0.008349
     86          6           0        6.864111    2.446289   -0.973986
     87          6           0        7.104056    3.928653   -0.580833
     88          6           0        8.099779    3.691125    0.656498
     89          6           0        7.645049    2.293339    1.071338
     90          6           0        9.561296    3.616020    0.247020
     91          6           0        5.785300    4.647665   -0.127044
     92          6           0        5.885820    6.171246   -0.025341
     93          1           0        4.718322    6.971365   -0.384835
     94          7           0        7.027308   -0.467220    2.259505
     95          6           0        7.513035    0.592974    2.938720
     96          6           0        7.620289    0.158212    4.340024
     97          6           0        7.313969   -1.296679    4.404516
     98          6           0        7.227124   -1.610633    2.992437
     99          6           0        7.905617    1.107847    5.467052
    100          6           0        7.141945   -2.250573    5.547631
    101          8           0        7.114759   -3.519308    5.367636
    102          6           0        7.100012   -1.660243    6.893463
    103          7           0        7.085307   -2.599264    0.101208
    104          6           0        7.282534   -3.380047    1.177958
    105          6           0        7.296585   -4.841233    0.797005
    106          6           0        6.824525   -4.891620   -0.730154
    107          6           0        6.699538   -3.377228   -1.006496
    108          6           0        8.642362   -5.552332    0.937145
    109          6           0        5.613782   -5.806051   -1.062716
    110          6           0        4.358589   -5.251504   -0.428408
    111          7           0        6.293518   -0.542185   -1.816842
    112          6           0        6.290148   -1.644920   -2.698920
    113          6           0        6.107218   -1.110091   -4.063810
    114          6           0        6.039371    0.279459   -3.882091
    115          6           0        6.190977    0.590153   -2.503687
    116          6           0        6.073453   -1.879229   -5.261057
    117          6           0        5.884624    1.554788   -4.544132
    118          8           0        5.633293    1.911550   -5.694469
    119          6           0        6.240135    2.707741   -3.509387
    120          6           0        5.157734    3.749487   -3.584777
    121          8           0        3.995739    3.480219   -3.232833
    122          8           0        5.714566    4.944989   -3.851407
    123          6           0        4.681931    6.012725   -3.925057
    124          1           0        8.524723    2.448943    3.039098
    125          1           0        7.436987   -3.701236    3.100039
    126          1           0        6.321250   -3.621259   -3.079236
    127          1           0        7.591760    4.527011   -1.341019
    128          1           0        7.914801    4.404924    1.455026
    129          1           0        9.679504    3.616752   -0.826368
    130          1           0        9.937825    2.693184    0.668491
    131          1           0       10.128607    4.419449    0.725549
    132          1           0        5.586972    4.401873    0.924145
    133          1           0        4.966627    4.381457   -0.766999
    134          1           0        6.784581    6.558981   -0.520151
    135          1           0        6.020719    6.440778    1.024977
    136          1           0        8.248754    2.081368    5.095665
    137          1           0        8.766324    0.706699    6.013051
    138          1           0        7.064828    1.207696    6.156811
    139          1           0        8.018791   -1.107362    7.074076
    140          1           0        6.882423   -2.489341    7.569580
    141          1           0        6.282053   -0.932124    6.930775
    142          1           0        6.595600   -5.404934    1.400296
    143          1           0        7.620168   -5.266925   -1.390404
    144          1           0        8.600856   -6.438909    1.597685
    145          1           0        9.368809   -4.839043    1.303243
    146          1           0        9.091441   -5.879616    0.000966
    147          1           0        5.762844   -6.801474   -0.637184
    148          1           0        5.447586   -5.932512   -2.127317
    149          1           0        4.411198   -5.631664    0.596187
    150          1           0        3.473850   -5.622274   -0.942025
    151          1           0        4.394469   -4.157136   -0.376202
    152          1           0        5.261553   -1.488041   -5.859629
    153          1           0        5.938386   -2.937952   -5.049789
    154          1           0        7.068554   -1.663842   -5.659383
    155          1           0        7.214997    3.109340   -3.788577
    156          1           0        4.792512    6.497431   -4.899999
    157          1           0        4.838575    6.642149   -3.028940
    158          1           0        3.643576    5.704282   -3.958781
 ---------------------------------------------------------------------

 SCF Done:  E(RCAM-B3LYP) =  -4069.81190880     A.U. after   19 cycles

 Excitation energies and oscillator strengths:

 Excited State   1:      Singlet-A      1.6663 eV  744.08 nm  f=0.0211  <S**2>=0.000
     309 -> 315        0.13321
     310 -> 316        0.10817
     311 -> 313        0.53381
     312 -> 314        0.43182
 This state for optimization and/or second-order correction.
 Total Energy, E(TD-HF/TD-DFT) =  -4069.75067455
 Copying the excited state density for this state as the 1-particle RhoCI density.

 Excited State   2:      Singlet-A      1.6891 eV  734.04 nm  f=0.7257  <S**2>=0.000
     309 -> 315       -0.11142
     310 -> 316        0.13833
     311 -> 313       -0.43096
     312 -> 314        0.53266

 Excited State   3:      Singlet-A      2.1854 eV  567.32 nm  f=0.0432  <S**2>=0.000
     309 -> 313        0.61326
     310 -> 314       -0.19331
     311 -> 315       -0.25983

 Excited State   4:      Singlet-A      2.1937 eV  565.19 nm  f=0.1461  <S**2>=0.000
     309 -> 313        0.19181
     310 -> 314        0.61095
     312 -> 316       -0.26610

 Excited State   5:      Singlet-A      2.6902 eV  460.88 nm  f=0.0000  <S**2>=0.000
     312 -> 313        0.70709

 The electronic state is 1-A.
 Alpha  occ. eigenvalues --  -46.87612 -46.87574 -19.26332 -19.26162 -19.19131
 Alpha  occ. eigenvalues --  -19.18884 -19.18615 -19.18614 -19.18016 -19.18001
 Alpha  occ. eigenvalues --  -14.42414 -14.42269 -14.41278 -14.41272 -14.39265
 Alpha  occ. eigenvalues --  -14.39215 -14.38519 -14.38408 -10.39059 -10.38943
 Alpha  occ. eigenvalues --  -10.35291 -10.35245 -10.34237 -10.34179 -10.31763
 Alpha  occ. eigenvalues --  -10.31580 -10.31235 -10.31233 -10.30939 -10.30725
 Alpha  occ. eigenvalues --  -10.30394 -10.30330 -10.30317 -10.30284 -10.30053
 Alpha  occ. eigenvalues --  -10.30026 -10.29820 -10.29754 -10.29450 -10.29349
 Alpha  occ. eigenvalues --  -10.29319 -10.29068 -10.28645 -10.28586 -10.28576
 Alpha  occ. eigenvalues --  -10.28374 -10.28324 -10.28183 -10.28068 -10.27947
 Alpha  occ. eigenvalues --  -10.27924 -10.27616 -10.27587 -10.27547 -10.27439
 Alpha  occ. eigenvalues --  -10.27406 -10.27396 -10.27381 -10.27360 -10.27343
 Alpha  occ. eigenvalues --  -10.27301 -10.27295 -10.27261 -10.27228 -10.27007
 Alpha  occ. eigenvalues --  -10.27000 -10.26607 -10.26516 -10.26293 -10.26174
 Alpha  occ. eigenvalues --  -10.26082 -10.26054 -10.26032 -10.25965 -10.25853
 Alpha  occ. eigenvalues --  -10.25844 -10.25798 -10.25698 -10.25334 -10.25296
 Alpha  occ. eigenvalues --  -10.24799 -10.24659 -10.24634 -10.24612 -10.24610
 Alpha  occ. eigenvalues --  -10.24525  -3.16354  -3.16323  -1.91235  -1.91205
 Alpha  occ. eigenvalues --   -1.90822  -1.90794  -1.90664  -1.90631  -1.16623
 Alpha  occ. eigenvalues --   -1.16508  -1.08613  -1.08478  -1.07015  -1.06917
 Alpha  occ. eigenvalues --   -1.06867  -1.06508  -1.04413  -1.04401  -1.03583
 Alpha  occ. eigenvalues --   -1.03581  -1.03053  -1.02957  -1.02233  -1.02031
 Alpha  occ. eigenvalues --   -0.91917  -0.91803  -0.89415  -0.89353  -0.89077
 Alpha  occ. eigenvalues --   -0.89016  -0.88142  -0.88123  -0.87724  -0.87704
 Alpha  occ. eigenvalues --   -0.87604  -0.87495  -0.87073  -0.87024  -0.84923
 Alpha  occ. eigenvalues --   -0.84808  -0.83801  -0.83778  -0.82835  -0.82769
 Alpha  occ. eigenvalues --   -0.82574  -0.82474  -0.81546  -0.81436  -0.80427
 Alpha  occ. eigenvalues --   -0.80376  -0.78609  -0.78550  -0.77067  -0.77047
 Alpha  occ. eigenvalues --   -0.76835  -0.76776  -0.75776  -0.75764  -0.74740
 Alpha  occ. eigenvalues --   -0.74733  -0.72623  -0.72602  -0.71510  -0.71507
 Alpha  occ. eigenvalues --   -0.69746  -0.69676  -0.68752  -0.68699  -0.67526
 Alpha  occ. eigenvalues --   -0.67466  -0.67115  -0.67035  -0.65200  -0.65116
 Alpha  occ. eigenvalues --   -0.64699  -0.64689  -0.64587  -0.64457  -0.64127
 Alpha  occ. eigenvalues --   -0.64103  -0.62232  -0.62153  -0.60253  -0.60251
 Alpha  occ. eigenvalues --   -0.59721  -0.59630  -0.58919  -0.58818  -0.58356
 Alpha  occ. eigenvalues --   -0.58335  -0.57504  -0.57432  -0.57160  -0.57141
 Alpha  occ. eigenvalues --   -0.56137  -0.56131  -0.55837  -0.55835  -0.55379
 Alpha  occ. eigenvalues --   -0.55339  -0.55187  -0.55184  -0.54429  -0.54376
 Alpha  occ. eigenvalues --   -0.53838  -0.53722  -0.53150  -0.53123  -0.53069
 Alpha  occ. eigenvalues --   -0.53041  -0.52836  -0.52753  -0.52572  -0.52560
 Alpha  occ. eigenvalues --   -0.52319  -0.52279  -0.51825  -0.51758  -0.51579
 Alpha  occ. eigenvalues --   -0.51436  -0.51136  -0.51035  -0.50372  -0.50359
 Alpha  occ. eigenvalues --   -0.49897  -0.49863  -0.49787  -0.49729  -0.49404
 Alpha  occ. eigenvalues --   -0.49335  -0.49131  -0.49043  -0.49040  -0.48933
 Alpha  occ. eigenvalues --   -0.48498  -0.48437  -0.48311  -0.48303  -0.48259
 Alpha  occ. eigenvalues --   -0.48251  -0.47521  -0.47519  -0.47122  -0.47040
 Alpha  occ. eigenvalues --   -0.46634  -0.46628  -0.46478  -0.46383  -0.46195
 Alpha  occ. eigenvalues --   -0.46187  -0.46021  -0.46004  -0.45770  -0.45673
 Alpha  occ. eigenvalues --   -0.45135  -0.45040  -0.44453  -0.44421  -0.44400
 Alpha  occ. eigenvalues --   -0.44323  -0.44059  -0.44001  -0.43973  -0.43923
 Alpha  occ. eigenvalues --   -0.43858  -0.43844  -0.43505  -0.43345  -0.43315
 Alpha  occ. eigenvalues --   -0.43215  -0.42888  -0.42861  -0.42837  -0.42559
 Alpha  occ. eigenvalues --   -0.42498  -0.42470  -0.41886  -0.41846  -0.41603
 Alpha  occ. eigenvalues --   -0.41538  -0.41382  -0.41363  -0.40974  -0.40918
 Alpha  occ. eigenvalues --   -0.40699  -0.40638  -0.40625  -0.40610  -0.40418
 Alpha  occ. eigenvalues --   -0.40410  -0.40142  -0.40051  -0.39341  -0.39279
 Alpha  occ. eigenvalues --   -0.38305  -0.38273  -0.37579  -0.37575  -0.37188
 Alpha  occ. eigenvalues --   -0.37152  -0.37122  -0.37087  -0.36734  -0.36572
 Alpha  occ. eigenvalues --   -0.36150  -0.36036  -0.34176  -0.34110  -0.33822
 Alpha  occ. eigenvalues --   -0.33626  -0.33097  -0.33011  -0.31176  -0.31147
 Alpha  occ. eigenvalues --   -0.30894  -0.30860  -0.29907  -0.29878  -0.29262
 Alpha  occ. eigenvalues --   -0.29241  -0.29145  -0.29135  -0.23956  -0.23903
 Alpha  occ. eigenvalues --   -0.21035  -0.20949
 Alpha virt. eigenvalues --   -0.08711  -0.08593  -0.01600  -0.01569   0.00059
 Alpha virt. eigenvalues --    0.00132   0.02274   0.02366   0.03350   0.03355
 Alpha virt. eigenvalues --    0.04806   0.04891   0.05200   0.05238   0.06248

 Mulliken charges:
               1
     1  Mg   0.839751
     2  C   -0.002812
     3  C   -0.093605
     4  C   -0.045885
     5  C   -0.064092
     6  N   -0.256782
     7  C   -0.052436
     8  C   -0.014146
     9  C   -0.087149
    10  C    0.046642
    11  C    0.104873
    12  C    0.053329
    13  C   -0.071572
    14  H    0.035569
    15  N   -0.433188
    16  C    0.168928
    17  C   -0.176575
    18  C   -0.003646
    19  C    0.149000
    20  C    0.110098
    21  C    0.012726
    22  O   -0.249978
    23  C    0.062112
    24  N   -0.341175
    25  C    0.041329
    26  C   -0.028116
    27  C   -0.023863
    28  C    0.074786
    29  C    0.076281
    30  C    0.035196
    31  C   -0.004489
    32  N   -0.310359
    33  C    0.080306
    34  C   -0.169979
    35  C    0.008063
    36  C    0.082991
    37  C    0.127382
    38  C    0.045887
    39  O   -0.189274
    40  C   -0.005330
    41  C    0.212676
    42  O   -0.256892
    43  O   -0.304832
    44  C    0.157959
    45  H   -0.017676
    46  H   -0.017015
    47  H   -0.041870
    48  H    0.000477
    49  H   -0.003812
    50  H    0.025214
    51  H    0.016367
    52  H    0.016435
    53  H    0.012376
    54  H    0.044276
    55  H    0.017334
    56  H    0.018233
    57  H    0.005818
    58  H    0.026492
    59  H    0.041109
    60  H    0.037006
    61  H    0.035573
    62  H    0.033142
    63  H    0.016476
    64  H    0.009111
    65  H    0.022958
    66  H    0.012489
    67  H    0.004481
    68  H    0.005941
    69  H    0.004516
    70  H    0.008610
    71  H    0.018063
    72  H    0.029517
    73  H    0.047148
    74  H    0.008948
    75  H    0.045614
    76  H    0.034808
    77  H    0.042356
    78  H    0.046450
    79  H    0.053327
    80  Mg   0.838595
    81  C   -0.016763
    82  C   -0.087517
    83  C   -0.045396
    84  C   -0.064855
    85  N   -0.254572
    86  C   -0.049781
    87  C   -0.015233
    88  C   -0.090600
    89  C    0.046002
    90  C    0.114418
    91  C    0.062420
    92  C   -0.077744
    93  H    0.034492
    94  N   -0.423496
    95  C    0.163345
    96  C   -0.174346
    97  C   -0.007497
    98  C    0.152351
    99  C    0.099352
   100  C    0.015948
   101  O   -0.253238
   102  C    0.060949
   103  N   -0.350071
   104  C    0.037597
   105  C   -0.019828
   106  C   -0.034745
   107  C    0.088882
   108  C    0.073721
   109  C    0.034744
   110  C   -0.007736
   111  N   -0.324009
   112  C    0.078378
   113  C   -0.163305
   114  C    0.001909
   115  C    0.096274
   116  C    0.131555
   117  C    0.042147
   118  O   -0.188816
   119  C    0.000966
   120  C    0.210991
   121  O   -0.250894
   122  O   -0.305615
   123  C    0.152344
   124  H   -0.019696
   125  H   -0.015578
   126  H   -0.040610
   127  H   -0.001041
   128  H   -0.004152
   129  H    0.022246
   130  H    0.014391
   131  H    0.016154
   132  H    0.014780
   133  H    0.037793
   134  H    0.020362
   135  H    0.019881
   136  H    0.008739
   137  H    0.025986
   138  H    0.040703
   139  H    0.038025
   140  H    0.036496
   141  H    0.034837
   142  H    0.014494
   143  H    0.012168
   144  H    0.025052
   145  H    0.011550
   146  H    0.005502
   147  H    0.006025
   148  H    0.003588
   149  H    0.010871
   150  H    0.018182
   151  H    0.030438
   152  H    0.045510
   153  H    0.008588
   154  H    0.046625
   155  H    0.034760
   156  H    0.043289
   157  H    0.049671
   158  H    0.053045
 Sum of Mulliken charges =  -0.00000

 Dipole moment (field-independent basis, Debye):
    X=              0.7529    Y=              3.1297    Z=             -0.7583  Tot=              3.3071
 Quadrupole moment (field-independent basis, Debye-Ang):
   XX=           -461.0388   YY=           -460.7499   ZZ=           -540.2071
   XY=              7.4631   XZ=             43.8578   YZ=             -2.0133

 Normal termination of Gaussian 16 at Sat Sep 11 07:27:08 2021.
