 Gaussian 16, Revision A.03,
 Gaussian 16:  ES64L-G16RevA.03 25-Dec-2016

 -----------------------------------
 #p cam-b3lyp/Def2SVP td=(nstates=5)
 -----------------------------------

 --------------------------------
 TDDFT excited states in gaussian
 --------------------------------
 Symbolic Z-matrix:
 Charge =  0 Multiplicity = 1

                         Standard orientation:
 ---------------------------------------------------------------------
 Center     Atomic      Atomic             Coordinates (Angstroms)
 Number     Number       Type             X           Y           Z
 ---------------------------------------------------------------------
      1         12           0       -5.223047   -0.669095    0.174247
      2          6           0       -5.347559    2.906500    0.283048
      3          6           0       -6.154948   -0.453428   -3.101133
      4          6           0       -5.561537   -3.822195    0.175746
      5          6           0       -5.418853   -0.634590    3.653634
      6          7           0       -5.663834    1.063738   -1.130990
      7          6           0       -5.616687    2.384090   -0.983957
      8          6           0       -5.805792    3.161729   -2.320704
      9          6           0       -6.597965    2.052252   -3.147457
     10          6           0       -6.082574    0.809921   -2.442540
     11          6           0       -8.111189    2.125279   -2.970475
     12          6           0       -4.440547    3.516637   -3.000318
     13          6           0       -4.521170    4.549188   -4.128455
     14          1           0       -3.427977    5.495699   -4.290911
     15          7           0       -5.298114   -1.950292   -1.327667
     16          6           0       -5.685638   -1.686373   -2.598674
     17          6           0       -5.566819   -2.963517   -3.334518
     18          6           0       -5.260561   -4.032622   -2.343905
     19          6           0       -5.388696   -3.306229   -1.106443
     20          6           0       -5.691306   -3.069928   -4.823453
     21          6           0       -4.918595   -5.481811   -2.488970
     22          8           0       -4.917702   -6.283452   -1.493005
     23          6           0       -4.667653   -5.963585   -3.859358
     24          7           0       -5.677822   -2.047752    1.674287
     25          6           0       -5.705084   -3.360554    1.419743
     26          6           0       -5.770111   -4.161126    2.686548
     27          6           0       -5.535751   -3.123723    3.877608
     28          6           0       -5.453574   -1.821464    3.043559
     29          6           0       -7.077910   -4.927720    2.927397
     30          6           0       -4.387199   -3.438615    4.868614
     31          6           0       -3.054534   -3.323230    4.163073
     32          7           0       -5.181797    0.843199    1.730626
     33          6           0       -5.301199    0.634641    3.112263
     34          6           0       -5.325298    1.964158    3.749344
     35          6           0       -5.234336    2.859950    2.685799
     36          6           0       -5.184683    2.136447    1.460087
     37          6           0       -5.479382    2.218886    5.140676
     38          6           0       -5.192359    4.260590    2.298108
     39          8           0       -5.108923    5.327233    2.908685
     40          6           0       -5.386787    4.349753    0.720111
     41          6           0       -4.329623    5.275922    0.183526
     42          8           0       -3.122570    4.961949    0.226062
     43          8           0       -4.915360    6.268342   -0.503902
     44          6           0       -3.920479    7.206962   -1.088162
     45          1           0       -6.669177   -0.519082   -4.061965
     46          1           0       -5.571634   -4.912765    0.230467
     47          1           0       -5.393022   -0.547078    4.741351
     48          1           0       -6.408730    4.066274   -2.238921
     49          1           0       -6.305630    2.041024   -4.197284
     50          1           0       -8.388102    2.847496   -2.202592
     51          1           0       -8.418747    1.121272   -2.677437
     52          1           0       -8.603465    2.323439   -3.922932
     53          1           0       -4.084407    2.654018   -3.563446
     54          1           0       -3.715010    3.850106   -2.257539
     55          1           0       -5.479452    5.069373   -4.124925
     56          1           0       -4.505066    4.017492   -5.079896
     57          1           0       -6.080836   -2.150855   -5.259477
     58          1           0       -6.461053   -3.814297   -5.026218
     59          1           0       -4.755030   -3.371997   -5.292999
     60          1           0       -5.551998   -5.784698   -4.471307
     61          1           0       -4.350874   -7.001195   -3.760032
     62          1           0       -3.864938   -5.371785   -4.300235
     63          1           0       -4.986445   -4.917198    2.711999
     64          1           0       -6.415971   -3.025236    4.513365
     65          1           0       -6.937837   -6.000164    3.065047
     66          1           0       -7.746393   -4.724792    2.091190
     67          1           0       -7.669339   -4.569374    3.769547
     68          1           0       -4.470074   -4.462285    5.232176
     69          1           0       -4.374175   -2.778617    5.736072
     70          1           0       -2.947245   -4.296164    3.684827
     71          1           0       -2.255317   -3.152896    4.885188
     72          1           0       -3.086264   -2.573259    3.372489
     73          1           0       -4.759413    2.998397    5.389627
     74          1           0       -5.307478    1.318177    5.729552
     75          1           0       -6.518429    2.546372    5.172149
     76          1           0       -6.392159    4.733398    0.549331
     77          1           0       -4.172894    8.205442   -0.731010
     78          1           0       -3.929673    7.037432   -2.165000
     79          1           0       -2.896517    7.111345   -0.725258
     80         12           0        5.363432   -0.891179   -0.029801
     81          6           0        5.239382    2.679785    0.304658
     82          6           0        4.434394   -0.469065   -3.284541
     83          6           0        5.025371   -4.039173   -0.237902
     84          6           0        5.156572   -1.084637    3.443738
     85          7           0        4.923824    0.920569   -1.220006
     86          6           0        4.969512    2.226454   -1.003433
     87          6           0        4.790705    3.096230   -2.276646
     88          6           0        3.991307    2.037069   -3.181094
     89          6           0        4.503322    0.742901   -2.552088
     90          6           0        2.485004    2.097908   -2.989534
     91          6           0        6.162320    3.489354   -2.929444
     92          6           0        6.077755    4.588170   -3.991155
     93          1           0        7.178151    5.542620   -4.094201
     94          7           0        5.292517   -2.072693   -1.622783
     95          6           0        4.913578   -1.731945   -2.872407
     96          6           0        5.017241   -2.961386   -3.673580
     97          6           0        5.330127   -4.092562   -2.758560
     98          6           0        5.204867   -3.434504   -1.473506
     99          6           0        4.903444   -2.969235   -5.170380
    100          6           0        5.671423   -5.531852   -2.999689
    101          8           0        5.671702   -6.392122   -2.049553
    102          6           0        5.914035   -5.923052   -4.395971
    103          7           0        4.912901   -2.356743    1.374290
    104          6           0        4.879139   -3.656255    1.030682
    105          6           0        4.808627   -4.541727    2.251891
    106          6           0        5.046987   -3.571318    3.500531
    107          6           0        5.128844   -2.219365    2.758315
    108          6           0        3.499133   -5.306254    2.444549
    109          6           0        6.194594   -3.949334    4.476631
    110          6           0        7.530398   -3.802828    3.784136
    111          7           0        5.408380    0.513020    1.611611
    112          6           0        5.280061    0.221435    2.987335
    113          6           0        5.256643    1.512156    3.705608
    114          6           0        5.350556    2.473411    2.687937
    115          6           0        5.406755    1.827911    1.423162
    116          6           0        5.111160    1.679174    5.111685
    117          6           0        5.404222    3.887693    2.395307
    118          8           0        5.480585    4.912471    3.071858
    119          6           0        5.207193    4.087874    0.830862
    120          6           0        6.265880    5.040812    0.347550
    121          8           0        7.467510    4.722588    0.385211
    122          8           0        5.675125    6.075964   -0.276834
    123          6           0        6.684866    7.043051   -0.783779
    124          1           0        3.927820   -0.463660   -4.250069
    125          1           0        5.013992   -5.131555   -0.244749
    126          1           0        5.192919   -1.062571    4.535007
    127          1           0        4.194630    3.989965   -2.136226
    128          1           0        4.293457    2.100075   -4.223254
    129          1           0        2.207579    2.764736   -2.186719
    130          1           0        2.175983    1.085563   -2.764367
    131          1           0        1.995443    2.359906   -3.931877
    132          1           0        6.515694    2.655598   -3.549696
    133          1           0        6.876132    3.766773   -2.178358
    134          1           0        5.114995    5.112939   -3.965461
    135          1           0        6.101398    4.119691   -4.978056
    136          1           0        4.508376   -2.018367   -5.548756
    137          1           0        4.134179   -3.705009   -5.428729
    138          1           0        5.837913   -3.247353   -5.662391
    139          1           0        5.032463   -5.699457   -4.992045
    140          1           0        6.230510   -6.967144   -4.356164
    141          1           0        6.728188   -5.307939   -4.795222
    142          1           0        5.592108   -5.289328    2.233265
    143          1           0        4.161634   -3.519530    4.151146
    144          1           0        3.639199   -6.401621    2.512683
    145          1           0        2.835430   -5.057893    1.627014
    146          1           0        2.915172   -5.010163    3.314328
    147          1           0        6.111098   -4.998343    4.771198
    148          1           0        6.199720   -3.358727    5.386659
    149          1           0        7.631721   -4.747232    3.241075
    150          1           0        8.328454   -3.679308    4.513436
    151          1           0        7.502455   -2.996938    3.041570
    152          1           0        5.824292    2.435795    5.410779
    153          1           0        5.276579    0.743887    5.642387
    154          1           0        4.067620    2.001182    5.162907
    155          1           0        4.201431    4.479920    0.674862
    156          1           0        6.429577    8.020958   -0.364008
    157          1           0        6.663844    6.946825   -1.885616
    158          1           0        7.706570    6.926300   -0.441830
 ---------------------------------------------------------------------

 SCF Done:  E(RCAM-B3LYP) =  -4069.81143915     A.U. after   19 cycles

 Excitation energies and oscillator strengths:

 Excited State   1:      Singlet-A      1.6569 eV  748.30 nm  f=0.0026  <S**2>=0.000
     309 -> 315       -0.11342
     310 -> 316        0.12540
     311 -> 313       -0.45892
     312 -> 314        0.51145
 This state for optimization and/or second-order correction.
 Total Energy, E(TD-HF/TD-DFT) =  -4069.75054962
 Copying the excited state density for this state as the 1-particle RhoCI density.

 Excited State   2:      Singlet-A      1.6968 eV  730.71 nm  f=0.7185  <S**2>=0.000
     309 -> 315        0.13408
     310 -> 316        0.11930
     311 -> 313        0.50952
     312 -> 314        0.45726

 Excited State   3:      Singlet-A      2.1826 eV  568.07 nm  f=0.0229  <S**2>=0.000
     309 -> 313       -0.27038
     310 -> 314        0.58464
     311 -> 315        0.11267
     312 -> 316       -0.24519

 Excited State   4:      Singlet-A      2.1948 eV  564.90 nm  f=0.1582  <S**2>=0.000
     309 -> 313        0.58082
     310 -> 314        0.26713
     311 -> 315       -0.25490
     312 -> 316       -0.11821

 Excited State   5:      Singlet-A      2.4839 eV  499.15 nm  f=0.0000  <S**2>=0.000
     312 -> 313        0.70710

 The electronic state is 1-A.
 Alpha  occ. eigenvalues --  -46.87878 -46.87485 -19.26360 -19.26151 -19.19097
 Alpha  occ. eigenvalues --  -19.18967 -19.18880 -19.18578 -19.18222 -19.17832
 Alpha  occ. eigenvalues --  -14.42538 -14.42320 -14.41529 -14.41186 -14.39483
 Alpha  occ. eigenvalues --  -14.39182 -14.38663 -14.38417 -10.39156 -10.38891
 Alpha  occ. eigenvalues --  -10.35514 -10.35260 -10.34445 -10.34006 -10.31756
 Alpha  occ. eigenvalues --  -10.31584 -10.31491 -10.31121 -10.31003 -10.30850
 Alpha  occ. eigenvalues --  -10.30649 -10.30579 -10.30287 -10.30219 -10.30178
 Alpha  occ. eigenvalues --  -10.29991 -10.29989 -10.29715 -10.29704 -10.29333
 Alpha  occ. eigenvalues --  -10.29276 -10.29229 -10.28869 -10.28724 -10.28535
 Alpha  occ. eigenvalues --  -10.28531 -10.28444 -10.28226 -10.28223 -10.27950
 Alpha  occ. eigenvalues --  -10.27864 -10.27822 -10.27814 -10.27661 -10.27587
 Alpha  occ. eigenvalues --  -10.27573 -10.27515 -10.27503 -10.27485 -10.27379
 Alpha  occ. eigenvalues --  -10.27373 -10.27302 -10.27300 -10.27228 -10.27226
 Alpha  occ. eigenvalues --  -10.26871 -10.26812 -10.26544 -10.26483 -10.26328
 Alpha  occ. eigenvalues --  -10.26323 -10.26263 -10.26097 -10.26020 -10.25883
 Alpha  occ. eigenvalues --  -10.25778 -10.25769 -10.25648 -10.25492 -10.25244
 Alpha  occ. eigenvalues --  -10.24902 -10.24862 -10.24778 -10.24685 -10.24617
 Alpha  occ. eigenvalues --  -10.24516  -3.16621  -3.16235  -1.91503  -1.91117
 Alpha  occ. eigenvalues --   -1.91089  -1.90931  -1.90706  -1.90543  -1.16709
 Alpha  occ. eigenvalues --   -1.16446  -1.08679  -1.08434  -1.07279  -1.06833
 Alpha  occ. eigenvalues --   -1.06750  -1.06718  -1.04668  -1.04316  -1.03841
 Alpha  occ. eigenvalues --   -1.03489  -1.03311  -1.02866  -1.02489  -1.01934
 Alpha  occ. eigenvalues --   -0.92049  -0.91792  -0.89596  -0.89335  -0.89301
 Alpha  occ. eigenvalues --   -0.88967  -0.88362  -0.88066  -0.87935  -0.87765
 Alpha  occ. eigenvalues --   -0.87606  -0.87516  -0.87355  -0.86982  -0.85090
 Alpha  occ. eigenvalues --   -0.84829  -0.84010  -0.83724  -0.83044  -0.82805
 Alpha  occ. eigenvalues --   -0.82744  -0.82487  -0.81665  -0.81414  -0.80678
 Alpha  occ. eigenvalues --   -0.80270  -0.78876  -0.78479  -0.77308  -0.77031
 Alpha  occ. eigenvalues --   -0.76981  -0.76727  -0.76011  -0.75653  -0.74971
 Alpha  occ. eigenvalues --   -0.74640  -0.72850  -0.72524  -0.71753  -0.71401
 Alpha  occ. eigenvalues --   -0.69986  -0.69617  -0.68973  -0.68659  -0.67719
 Alpha  occ. eigenvalues --   -0.67432  -0.67336  -0.67052  -0.65390  -0.65093
 Alpha  occ. eigenvalues --   -0.64933  -0.64708  -0.64598  -0.64480  -0.64346
 Alpha  occ. eigenvalues --   -0.64046  -0.62374  -0.62097  -0.60520  -0.60190
 Alpha  occ. eigenvalues --   -0.59903  -0.59615  -0.59066  -0.58818  -0.58581
 Alpha  occ. eigenvalues --   -0.58248  -0.57656  -0.57383  -0.57347  -0.57070
 Alpha  occ. eigenvalues --   -0.56386  -0.56064  -0.56036  -0.55710  -0.55598
 Alpha  occ. eigenvalues --   -0.55412  -0.55292  -0.55080  -0.54599  -0.54320
 Alpha  occ. eigenvalues --   -0.54007  -0.53735  -0.53376  -0.53315  -0.53068
 Alpha  occ. eigenvalues --   -0.52997  -0.52975  -0.52848  -0.52733  -0.52531
 Alpha  occ. eigenvalues --   -0.52517  -0.52265  -0.51970  -0.51721  -0.51687
 Alpha  occ. eigenvalues --   -0.51498  -0.51273  -0.51022  -0.50660  -0.50357
 Alpha  occ. eigenvalues --   -0.50113  -0.50003  -0.49820  -0.49717  -0.49605
 Alpha  occ. eigenvalues --   -0.49329  -0.49292  -0.49189  -0.49024  -0.48910
 Alpha  occ. eigenvalues --   -0.48671  -0.48532  -0.48515  -0.48376  -0.48219
 Alpha  occ. eigenvalues --   -0.48183  -0.47782  -0.47435  -0.47377  -0.46968
 Alpha  occ. eigenvalues --   -0.46882  -0.46664  -0.46545  -0.46436  -0.46388
 Alpha  occ. eigenvalues --   -0.46234  -0.46110  -0.45909  -0.45893  -0.45633
 Alpha  occ. eigenvalues --   -0.45275  -0.45046  -0.44650  -0.44600  -0.44335
 Alpha  occ. eigenvalues --   -0.44311  -0.44225  -0.44187  -0.44094  -0.43947
 Alpha  occ. eigenvalues --   -0.43928  -0.43774  -0.43569  -0.43478  -0.43377
 Alpha  occ. eigenvalues --   -0.43211  -0.43105  -0.42774  -0.42752  -0.42733
 Alpha  occ. eigenvalues --   -0.42713  -0.42406  -0.42097  -0.41809  -0.41781
 Alpha  occ. eigenvalues --   -0.41642  -0.41478  -0.41296  -0.41224  -0.40973
 Alpha  occ. eigenvalues --   -0.40909  -0.40810  -0.40651  -0.40582  -0.40542
 Alpha  occ. eigenvalues --   -0.40372  -0.40333  -0.40077  -0.39523  -0.39289
 Alpha  occ. eigenvalues --   -0.38553  -0.38196  -0.37877  -0.37500  -0.37401
 Alpha  occ. eigenvalues --   -0.37367  -0.37106  -0.37028  -0.36789  -0.36588
 Alpha  occ. eigenvalues --   -0.36274  -0.36048  -0.34365  -0.34076  -0.33848
 Alpha  occ. eigenvalues --   -0.33671  -0.33265  -0.33001  -0.31410  -0.31136
 Alpha  occ. eigenvalues --   -0.31115  -0.30796  -0.30082  -0.29734  -0.29524
 Alpha  occ. eigenvalues --   -0.29391  -0.29164  -0.29021  -0.24161  -0.23856
 Alpha  occ. eigenvalues --   -0.21207  -0.20944
 Alpha virt. eigenvalues --   -0.08851  -0.08617  -0.01829  -0.01514  -0.00135
 Alpha virt. eigenvalues --    0.00132   0.02136   0.02404   0.03019   0.03388
 Alpha virt. eigenvalues --    0.04614   0.04902   0.05023   0.05365   0.06037

 Mulliken charges:
               1
     1  Mg   0.838534
     2  C   -0.003192
     3  C   -0.094775
     4  C   -0.045610
     5  C   -0.063850
     6  N   -0.256689
     7  C   -0.052723
     8  C   -0.013871
     9  C   -0.086893
    10  C    0.046041
    11  C    0.104796
    12  C    0.053757
    13  C   -0.071367
    14  H    0.034859
    15  N   -0.433135
    16  C    0.168225
    17  C   -0.177548
    18  C   -0.003930
    19  C    0.148669
    20  C    0.110276
    21  C    0.012530
    22  O   -0.249144
    23  C    0.062532
    24  N   -0.341094
    25  C    0.041135
    26  C   -0.028229
    27  C   -0.024033
    28  C    0.074868
    29  C    0.076089
    30  C    0.035110
    31  C   -0.004506
    32  N   -0.310567
    33  C    0.080505
    34  C   -0.169341
    35  C    0.008685
    36  C    0.083045
    37  C    0.127186
    38  C    0.046487
    39  O   -0.187523
    40  C   -0.005493
    41  C    0.213193
    42  O   -0.257356
    43  O   -0.304757
    44  C    0.157475
    45  H   -0.017755
    46  H   -0.016582
    47  H   -0.041248
    48  H    0.001226
    49  H   -0.004601
    50  H    0.025692
    51  H    0.016671
    52  H    0.016621
    53  H    0.010127
    54  H    0.043734
    55  H    0.018602
    56  H    0.017390
    57  H    0.005519
    58  H    0.027051
    59  H    0.038632
    60  H    0.037225
    61  H    0.036186
    62  H    0.030837
    63  H    0.016700
    64  H    0.009678
    65  H    0.023409
    66  H    0.012600
    67  H    0.004871
    68  H    0.006458
    69  H    0.004843
    70  H    0.008911
    71  H    0.017346
    72  H    0.029250
    73  H    0.048324
    74  H    0.009145
    75  H    0.046193
    76  H    0.035292
    77  H    0.043623
    78  H    0.045711
    79  H    0.053947
    80  Mg   0.838066
    81  C   -0.016315
    82  C   -0.087977
    83  C   -0.045575
    84  C   -0.064918
    85  N   -0.254565
    86  C   -0.048832
    87  C   -0.015191
    88  C   -0.090827
    89  C    0.046071
    90  C    0.114116
    91  C    0.062616
    92  C   -0.077441
    93  H    0.034279
    94  N   -0.423389
    95  C    0.162802
    96  C   -0.175312
    97  C   -0.008101
    98  C    0.151923
    99  C    0.099757
   100  C    0.015278
   101  O   -0.253360
   102  C    0.061377
   103  N   -0.349989
   104  C    0.037423
   105  C   -0.019749
   106  C   -0.034746
   107  C    0.089170
   108  C    0.073721
   109  C    0.034791
   110  C   -0.007582
   111  N   -0.324378
   112  C    0.078997
   113  C   -0.162659
   114  C    0.003261
   115  C    0.096167
   116  C    0.131138
   117  C    0.043513
   118  O   -0.186965
   119  C    0.000338
   120  C    0.210952
   121  O   -0.251646
   122  O   -0.304990
   123  C    0.152257
   124  H   -0.020832
   125  H   -0.015814
   126  H   -0.040707
   127  H    0.000493
   128  H   -0.005528
   129  H    0.026948
   130  H    0.014018
   131  H    0.014281
   132  H    0.013480
   133  H    0.037613
   134  H    0.020791
   135  H    0.018889
   136  H    0.007998
   137  H    0.024879
   138  H    0.039247
   139  H    0.037587
   140  H    0.036014
   141  H    0.033650
   142  H    0.014039
   143  H    0.012099
   144  H    0.024871
   145  H    0.012410
   146  H    0.005149
   147  H    0.005883
   148  H    0.003440
   149  H    0.010795
   150  H    0.017625
   151  H    0.030295
   152  H    0.045827
   153  H    0.007812
   154  H    0.048776
   155  H    0.038410
   156  H    0.043965
   157  H    0.048929
   158  H    0.053167
 Sum of Mulliken charges =  -0.00000

 Dipole moment (field-independent basis, Debye):
    X=             -4.3180    Y=             -2.1006    Z=             -7.3422  Tot=              8.7730
 Quadrupole moment (field-independent basis, Debye-Ang):
   XX=           -518.2402   YY=           -551.2491   ZZ=           -448.1855
   XY=             -4.6096   XZ=              0.3226   YZ=            -48.2762

 Normal termination of Gaussian 16 at Fri Sep 10 23:38:24 2021.
