 Gaussian 16, Revision A.03,
 Gaussian 16:  ES64L-G16RevA.03 25-Dec-2016

 -----------------------------------
 #p cam-b3lyp/Def2SVP td=(nstates=5)
 -----------------------------------

 --------------------------------
 TDDFT excited states in gaussian
 --------------------------------
 Symbolic Z-matrix:
 Charge =  0 Multiplicity = 1

                         Standard orientation:
 ---------------------------------------------------------------------
 Center     Atomic      Atomic             Coordinates (Angstroms)
 Number     Number       Type             X           Y           Z
 ---------------------------------------------------------------------
      1         12           0       -4.603513    0.109508   -0.059345
      2          6           0       -4.121972    3.655736   -0.127162
      3          6           0       -5.317585    0.292439   -3.390966
      4          6           0       -5.474239   -2.937046    0.070904
      5          6           0       -4.966864    0.373354    3.396668
      6          7           0       -4.675617    1.814955   -1.468918
      7          6           0       -4.411582    3.114908   -1.381864
      8          6           0       -4.397267    3.836263   -2.762739
      9          6           0       -5.324006    2.830223   -3.581908
     10          6           0       -5.064401    1.561035   -2.789638
     11          6           0       -6.809628    3.165731   -3.499071
     12          6           0       -2.958801    3.918272   -3.375784
     13          6           0       -2.804861    4.884152   -4.554229
     14          1           0       -1.559491    5.623319   -4.695768
     15          7           0       -4.819598   -1.223969   -1.500871
     16          6           0       -5.091455   -0.971254   -2.803758
     17          6           0       -5.154927   -2.289845   -3.470068
     18          6           0       -5.086085   -3.337308   -2.413575
     19          6           0       -5.151129   -2.530808   -1.221642
     20          6           0       -5.220020   -2.458047   -4.957085
     21          6           0       -4.989278   -4.829168   -2.469392
     22          8           0       -5.175604   -5.561903   -1.438395
     23          6           0       -4.754937   -5.423017   -3.798101
     24          7           0       -5.362191   -1.086225    1.474365
     25          6           0       -5.599915   -2.388169    1.280939
     26          6           0       -5.864671   -3.093465    2.578013
     27          6           0       -5.517623   -2.044242    3.730593
     28          6           0       -5.172419   -0.823535    2.842348
     29          6           0       -7.294528   -3.615146    2.776431
     30          6           0       -4.491357   -2.490529    4.802053
     31          6           0       -3.124472   -2.640273    4.172529
     32          7           0       -4.384070    1.679187    1.423556
     33          6           0       -4.607230    1.572186    2.803928
     34          6           0       -4.436608    2.920856    3.374932
     35          6           0       -4.140410    3.727035    2.277577
     36          6           0       -4.152702    2.937199    1.092546
     37          6           0       -4.615405    3.276194    4.741021
     38          6           0       -3.840643    5.076590    1.827356
     39          8           0       -3.607671    6.147008    2.390758
     40          6           0       -3.936698    5.107555    0.238130
     41          6           0       -2.711267    5.811549   -0.277643
     42          8           0       -1.579149    5.302641   -0.148463
     43          8           0       -3.083589    6.847547   -1.044863
     44          6           0       -1.914906    7.571533   -1.612471
     45          1           0       -5.786053    0.259582   -4.376562
     46          1           0       -5.672878   -4.005623    0.176374
     47          1           0       -4.981717    0.516765    4.478641
     48          1           0       -4.840527    4.832222   -2.759851
     49          1           0       -4.984976    2.710716   -4.610742
     50          1           0       -6.997961    3.966458   -2.784028
     51          1           0       -7.298319    2.245702   -3.177791
     52          1           0       -7.211941    3.389322   -4.487468
     53          1           0       -2.726831    2.977676   -3.875313
     54          1           0       -2.225673    4.166955   -2.607666
     55          1           0       -3.659356    5.556936   -4.632389
     56          1           0       -2.831382    4.304254   -5.476842
     57          1           0       -5.424524   -1.512883   -5.458471
     58          1           0       -6.094107   -3.073154   -5.169979
     59          1           0       -4.326347   -2.938862   -5.355204
     60          1           0       -5.563631   -5.133400   -4.469432
     61          1           0       -4.625148   -6.491727   -3.631175
     62          1           0       -3.841760   -5.000054   -4.217814
     63          1           0       -5.223693   -3.967509    2.685806
     64          1           0       -6.399274   -1.763778    4.307399
     65          1           0       -7.346510   -4.686354    2.972685
     66          1           0       -7.875325   -3.350747    1.893221
     67          1           0       -7.858165   -3.115632    3.563970
     68          1           0       -4.765879   -3.463571    5.207974
     69          1           0       -4.410037   -1.793991    5.636603
     70          1           0       -3.160498   -3.642931    3.748016
     71          1           0       -2.345602   -2.565671    4.932139
     72          1           0       -2.987722   -1.941591    3.346921
     73          1           0       -3.786655    3.936847    4.995341
     74          1           0       -4.629681    2.394234    5.380979
     75          1           0       -5.583648    3.774436    4.695010
     76          1           0       -4.851966    5.643972   -0.010194
     77          1           0       -2.011193    8.616797   -1.318557
     78          1           0       -1.898215    7.345227   -2.678732
     79          1           0       -0.941989    7.326368   -1.185076
     80         12           0        4.230692   -1.597058    0.314061
     81          6           0        5.645701    1.700605    0.361395
     82          6           0        4.463066   -1.485997   -3.087155
     83          6           0        2.578347   -4.303856    0.212002
     84          6           0        3.073549   -0.996340    3.546073
     85          7           0        4.976155   -0.039376   -1.068027
     86          6           0        5.547251    1.147993   -0.932582
     87          6           0        6.113165    1.743526   -2.249643
     88          6           0        5.185424    0.947968   -3.291406
     89          6           0        4.879120   -0.289562   -2.450342
     90          6           0        3.875375    1.656413   -3.593458
     91          6           0        7.630928    1.403117   -2.455883
     92          6           0        8.326127    2.205999   -3.557617
     93          1           0        9.723209    2.585479   -3.366268
     94          7           0        4.047915   -2.936095   -1.139254
     95          6           0        4.198522   -2.725211   -2.463695
     96          6           0        3.939868   -4.021457   -3.109452
     97          6           0        3.463082   -4.975657   -2.071713
     98          6           0        3.321691   -4.083603   -0.938423
     99          6           0        4.223904   -4.278532   -4.560891
    100          6           0        3.169213   -6.445042   -2.098669
    101          8           0        2.537980   -7.023082   -1.144600
    102          6           0        3.559659   -7.169455   -3.316970
    103          7           0        2.824788   -2.439825    1.592935
    104          6           0        2.299418   -3.651557    1.340732
    105          6           0        1.526607   -4.169370    2.530280
    106          6           0        1.846104   -3.155106    3.724750
    107          6           0        2.715409   -2.131520    2.961885
    108          6           0        0.013136   -4.276377    2.344930
    109          6           0        2.406413   -3.767891    5.037474
    110          6           0        3.792764   -4.321174    4.798145
    111          7           0        4.479020   -0.039442    1.790615
    112          6           0        3.884317    0.025994    3.069729
    113          6           0        4.260486    1.327548    3.658687
    114          6           0        5.035082    1.943620    2.664235
    115          6           0        5.117852    1.095029    1.527331
    116          6           0        3.849676    1.814502    4.931574
    117          6           0        5.792713    3.123354    2.313616
    118          8           0        6.145255    4.138953    2.911958
    119          6           0        6.116578    3.072221    0.758340
    120          6           0        7.575093    3.392054    0.576849
    121          8           0        8.449809    2.624430    1.015306
    122          8           0        7.696312    4.432014   -0.268235
    123          6           0        9.125406    4.779784   -0.488578
    124          1           0        4.280549   -1.465283   -4.161940
    125          1           0        2.078748   -5.273532    0.272117
    126          1           0        2.833971   -0.775279    4.588371
    127          1           0        5.969527    2.811264   -2.363957
    128          1           0        5.740145    0.673930   -4.185012
    129          1           0        3.731794    2.522958   -2.965264
    130          1           0        3.097603    0.925776   -3.413753
    131          1           0        3.816936    1.903313   -4.657394
    132          1           0        7.717388    0.392984   -2.876487
    133          1           0        8.173090    1.507007   -1.536163
    134          1           0        7.732357    3.072411   -3.873421
    135          1           0        8.389273    1.583472   -4.453434
    136          1           0        4.411275   -3.344948   -5.105605
    137          1           0        3.301338   -4.670343   -5.002735
    138          1           0        5.024394   -5.006088   -4.711009
    139          1           0        3.059654   -6.727747   -4.175658
    140          1           0        3.350172   -8.221009   -3.111492
    141          1           0        4.635407   -7.033817   -3.475052
    142          1           0        1.864961   -5.159500    2.810020
    143          1           0        0.944983   -2.617791    4.055070
    144          1           0       -0.377573   -5.295806    2.524353
    145          1           0       -0.232464   -3.945633    1.344520
    146          1           0       -0.576654   -3.601347    2.962743
    147          1           0        1.787168   -4.609686    5.356938
    148          1           0        2.442593   -3.063591    5.861875
    149          1           0        3.594034   -5.311425    4.377439
    150          1           0        4.343317   -4.393141    5.733963
    151          1           0        4.322502   -3.739101    4.035103
    152          1           0        4.723148    2.255908    5.392763
    153          1           0        3.433764    1.018943    5.546280
    154          1           0        3.089015    2.538411    4.627247
    155          1           0        5.473028    3.801990    0.265541
    156          1           0        9.239266    5.838443   -0.235635
    157          1           0        9.347450    4.484315   -1.531242
    158          1           0        9.858684    4.325543    0.167487
 ---------------------------------------------------------------------

 SCF Done:  E(RCAM-B3LYP) =  -4069.81155628     A.U. after   19 cycles

 Excitation energies and oscillator strengths:

 Excited State   1:      Singlet-A      1.6475 eV  752.55 nm  f=0.0019  <S**2>=0.000
     309 -> 315       -0.11263
     310 -> 316        0.12295
     311 -> 313       -0.46276
     312 -> 314        0.50868
 This state for optimization and/or second-order correction.
 Total Energy, E(TD-HF/TD-DFT) =  -4069.75101083
 Copying the excited state density for this state as the 1-particle RhoCI density.

 Excited State   2:      Singlet-A      1.7047 eV  727.31 nm  f=0.6963  <S**2>=0.000
     309 -> 315        0.13478
     310 -> 316        0.12176
     311 -> 313        0.50602
     312 -> 314        0.46035

 Excited State   3:      Singlet-A      2.1807 eV  568.56 nm  f=0.0242  <S**2>=0.000
     309 -> 313       -0.30408
     310 -> 314        0.56897
     311 -> 315        0.12536
     312 -> 316       -0.23666

 Excited State   4:      Singlet-A      2.1965 eV  564.45 nm  f=0.1527  <S**2>=0.000
     309 -> 313        0.56404
     310 -> 314        0.29930
     311 -> 315       -0.24879
     312 -> 316       -0.13421

 Excited State   5:      Singlet-A      2.3562 eV  526.21 nm  f=0.0000  <S**2>=0.000
     312 -> 313        0.70696

 The electronic state is 1-A.
 Alpha  occ. eigenvalues --  -46.87869 -46.87430 -19.26318 -19.26146 -19.19053
 Alpha  occ. eigenvalues --  -19.18951 -19.18822 -19.18526 -19.18204 -19.17783
 Alpha  occ. eigenvalues --  -14.42525 -14.42272 -14.41534 -14.41130 -14.39467
 Alpha  occ. eigenvalues --  -14.39129 -14.38655 -14.38356 -10.39116 -10.38873
 Alpha  occ. eigenvalues --  -10.35454 -10.35209 -10.34427 -10.33958 -10.31708
 Alpha  occ. eigenvalues --  -10.31584 -10.31485 -10.31075 -10.30977 -10.30815
 Alpha  occ. eigenvalues --  -10.30645 -10.30573 -10.30295 -10.30157 -10.30121
 Alpha  occ. eigenvalues --  -10.30004 -10.29935 -10.29693 -10.29645 -10.29319
 Alpha  occ. eigenvalues --  -10.29220 -10.29171 -10.28838 -10.28674 -10.28526
 Alpha  occ. eigenvalues --  -10.28522 -10.28424 -10.28204 -10.28172 -10.27943
 Alpha  occ. eigenvalues --  -10.27850 -10.27805 -10.27763 -10.27644 -10.27642
 Alpha  occ. eigenvalues --  -10.27562 -10.27556 -10.27471 -10.27457 -10.27346
 Alpha  occ. eigenvalues --  -10.27318 -10.27251 -10.27249 -10.27204 -10.27135
 Alpha  occ. eigenvalues --  -10.26822 -10.26783 -10.26531 -10.26420 -10.26398
 Alpha  occ. eigenvalues --  -10.26311 -10.26293 -10.26111 -10.25992 -10.25902
 Alpha  occ. eigenvalues --  -10.25813 -10.25711 -10.25533 -10.25519 -10.25074
 Alpha  occ. eigenvalues --  -10.25048 -10.24887 -10.24858 -10.24620 -10.24584
 Alpha  occ. eigenvalues --  -10.24452  -3.16611  -3.16180  -1.91493  -1.91080
 Alpha  occ. eigenvalues --   -1.91062  -1.90921  -1.90651  -1.90488  -1.16667
 Alpha  occ. eigenvalues --   -1.16438  -1.08660  -1.08386  -1.07217  -1.06780
 Alpha  occ. eigenvalues --   -1.06733  -1.06676  -1.04654  -1.04270  -1.03840
 Alpha  occ. eigenvalues --   -1.03436  -1.03303  -1.02806  -1.02484  -1.01876
 Alpha  occ. eigenvalues --   -0.92035  -0.91745  -0.89650  -0.89282  -0.89278
 Alpha  occ. eigenvalues --   -0.88952  -0.88407  -0.88000  -0.87932  -0.87756
 Alpha  occ. eigenvalues --   -0.87530  -0.87465  -0.87324  -0.86937  -0.85068
 Alpha  occ. eigenvalues --   -0.84800  -0.84085  -0.83657  -0.83026  -0.82760
 Alpha  occ. eigenvalues --   -0.82721  -0.82458  -0.81647  -0.81380  -0.80661
 Alpha  occ. eigenvalues --   -0.80229  -0.78858  -0.78427  -0.77326  -0.77031
 Alpha  occ. eigenvalues --   -0.76940  -0.76692  -0.75997  -0.75628  -0.75006
 Alpha  occ. eigenvalues --   -0.74563  -0.72854  -0.72466  -0.71748  -0.71351
 Alpha  occ. eigenvalues --   -0.70106  -0.69557  -0.68954  -0.68628  -0.67705
 Alpha  occ. eigenvalues --   -0.67380  -0.67298  -0.67021  -0.65375  -0.65066
 Alpha  occ. eigenvalues --   -0.64934  -0.64713  -0.64551  -0.64447  -0.64384
 Alpha  occ. eigenvalues --   -0.63987  -0.62359  -0.62066  -0.60508  -0.60137
 Alpha  occ. eigenvalues --   -0.59883  -0.59585  -0.59066  -0.58765  -0.58577
 Alpha  occ. eigenvalues --   -0.58201  -0.57637  -0.57389  -0.57309  -0.57017
 Alpha  occ. eigenvalues --   -0.56374  -0.56035  -0.55986  -0.55687  -0.55577
 Alpha  occ. eigenvalues --   -0.55448  -0.55252  -0.55026  -0.54622  -0.54278
 Alpha  occ. eigenvalues --   -0.53982  -0.53717  -0.53376  -0.53282  -0.53023
 Alpha  occ. eigenvalues --   -0.52997  -0.52939  -0.52817  -0.52700  -0.52622
 Alpha  occ. eigenvalues --   -0.52504  -0.52224  -0.51975  -0.51688  -0.51592
 Alpha  occ. eigenvalues --   -0.51470  -0.51282  -0.50977  -0.50627  -0.50321
 Alpha  occ. eigenvalues --   -0.50173  -0.49976  -0.49786  -0.49658  -0.49573
 Alpha  occ. eigenvalues --   -0.49296  -0.49272  -0.49172  -0.48990  -0.48881
 Alpha  occ. eigenvalues --   -0.48661  -0.48549  -0.48478  -0.48337  -0.48152
 Alpha  occ. eigenvalues --   -0.48137  -0.47776  -0.47401  -0.47364  -0.46958
 Alpha  occ. eigenvalues --   -0.46872  -0.46640  -0.46500  -0.46451  -0.46362
 Alpha  occ. eigenvalues --   -0.46243  -0.46049  -0.45886  -0.45832  -0.45582
 Alpha  occ. eigenvalues --   -0.45307  -0.44962  -0.44647  -0.44595  -0.44308
 Alpha  occ. eigenvalues --   -0.44276  -0.44246  -0.44163  -0.44070  -0.43917
 Alpha  occ. eigenvalues --   -0.43877  -0.43732  -0.43563  -0.43474  -0.43341
 Alpha  occ. eigenvalues --   -0.43169  -0.43108  -0.42843  -0.42726  -0.42719
 Alpha  occ. eigenvalues --   -0.42667  -0.42354  -0.42138  -0.41778  -0.41765
 Alpha  occ. eigenvalues --   -0.41627  -0.41436  -0.41266  -0.41216  -0.40985
 Alpha  occ. eigenvalues --   -0.40859  -0.40765  -0.40685  -0.40544  -0.40513
 Alpha  occ. eigenvalues --   -0.40330  -0.40281  -0.40057  -0.39639  -0.39230
 Alpha  occ. eigenvalues --   -0.38588  -0.38126  -0.37849  -0.37473  -0.37429
 Alpha  occ. eigenvalues --   -0.37344  -0.37043  -0.36990  -0.36774  -0.36559
 Alpha  occ. eigenvalues --   -0.36270  -0.35998  -0.34359  -0.34022  -0.33810
 Alpha  occ. eigenvalues --   -0.33647  -0.33257  -0.32947  -0.31356  -0.31104
 Alpha  occ. eigenvalues --   -0.31082  -0.30744  -0.30065  -0.29686  -0.29501
 Alpha  occ. eigenvalues --   -0.29378  -0.29112  -0.28953  -0.24154  -0.23802
 Alpha  occ. eigenvalues --   -0.21203  -0.20888
 Alpha virt. eigenvalues --   -0.08838  -0.08562  -0.01822  -0.01463  -0.00099
 Alpha virt. eigenvalues --    0.00178   0.02144   0.02451   0.02843   0.03505
 Alpha virt. eigenvalues --    0.04627   0.04945   0.05060   0.05384   0.06066

 Mulliken charges:
               1
     1  Mg   0.838652
     2  C   -0.002751
     3  C   -0.094534
     4  C   -0.045655
     5  C   -0.064455
     6  N   -0.256651
     7  C   -0.052687
     8  C   -0.013931
     9  C   -0.086966
    10  C    0.046295
    11  C    0.104795
    12  C    0.053714
    13  C   -0.071433
    14  H    0.035196
    15  N   -0.433329
    16  C    0.168681
    17  C   -0.177295
    18  C   -0.003460
    19  C    0.149062
    20  C    0.110331
    21  C    0.013706
    22  O   -0.248609
    23  C    0.062238
    24  N   -0.340891
    25  C    0.041015
    26  C   -0.028922
    27  C   -0.025643
    28  C    0.074243
    29  C    0.076058
    30  C    0.060702
    31  C   -0.039279
    32  N   -0.310468
    33  C    0.080141
    34  C   -0.169986
    35  C    0.008628
    36  C    0.083039
    37  C    0.127301
    38  C    0.046399
    39  O   -0.187641
    40  C   -0.005539
    41  C    0.213115
    42  O   -0.256916
    43  O   -0.304874
    44  C    0.157415
    45  H   -0.017658
    46  H   -0.016378
    47  H   -0.041912
    48  H    0.001186
    49  H   -0.004473
    50  H    0.025701
    51  H    0.016594
    52  H    0.016642
    53  H    0.010416
    54  H    0.044125
    55  H    0.018400
    56  H    0.017355
    57  H    0.005457
    58  H    0.027093
    59  H    0.039039
    60  H    0.036694
    61  H    0.036978
    62  H    0.031434
    63  H    0.016776
    64  H    0.010186
    65  H    0.023637
    66  H    0.012935
    67  H    0.004863
    68  H    0.005898
    69  H    0.002632
    70  H    0.017446
    71  H    0.020007
    72  H    0.033677
    73  H    0.047912
    74  H    0.008537
    75  H    0.046293
    76  H    0.035267
    77  H    0.043549
    78  H    0.045734
    79  H    0.054244
    80  Mg   0.838127
    81  C   -0.016151
    82  C   -0.088358
    83  C   -0.046437
    84  C   -0.063762
    85  N   -0.254465
    86  C   -0.048763
    87  C   -0.015174
    88  C   -0.090745
    89  C    0.046040
    90  C    0.114423
    91  C    0.062655
    92  C   -0.077437
    93  H    0.034328
    94  N   -0.423282
    95  C    0.162734
    96  C   -0.175985
    97  C   -0.008188
    98  C    0.151577
    99  C    0.100045
   100  C    0.014872
   101  O   -0.252826
   102  C    0.061516
   103  N   -0.349959
   104  C    0.037928
   105  C   -0.023165
   106  C   -0.035315
   107  C    0.088555
   108  C    0.077000
   109  C    0.034469
   110  C   -0.006742
   111  N   -0.324649
   112  C    0.079347
   113  C   -0.161317
   114  C    0.003714
   115  C    0.096525
   116  C    0.130653
   117  C    0.043957
   118  O   -0.187144
   119  C    0.000311
   120  C    0.210950
   121  O   -0.251551
   122  O   -0.305346
   123  C    0.152216
   124  H   -0.021265
   125  H   -0.015125
   126  H   -0.040750
   127  H   -0.000408
   128  H   -0.005420
   129  H    0.025132
   130  H    0.014320
   131  H    0.014047
   132  H    0.013618
   133  H    0.037663
   134  H    0.020532
   135  H    0.018996
   136  H    0.007905
   137  H    0.024065
   138  H    0.039183
   139  H    0.036932
   140  H    0.036063
   141  H    0.033634
   142  H    0.013600
   143  H    0.013189
   144  H    0.025304
   145  H    0.011215
   146  H    0.003155
   147  H    0.005286
   148  H    0.002822
   149  H    0.010848
   150  H    0.017368
   151  H    0.030232
   152  H    0.045375
   153  H    0.007260
   154  H    0.051558
   155  H    0.037418
   156  H    0.043750
   157  H    0.048953
   158  H    0.053265
 Sum of Mulliken charges =  -0.00000

 Dipole moment (field-independent basis, Debye):
    X=             -3.5300    Y=             -1.7092    Z=             -7.8711  Tot=              8.7941
 Quadrupole moment (field-independent basis, Debye-Ang):
   XX=           -509.1411   YY=           -554.5042   ZZ=           -447.1852
   XY=             -9.5579   XZ=            -25.2018   YZ=            -34.1947

 Normal termination of Gaussian 16 at Thu Sep  9 19:52:44 2021.
