 Gaussian 16, Revision A.03,
 Gaussian 16:  ES64L-G16RevA.03 25-Dec-2016

 -----------------------------------
 #p cam-b3lyp/Def2SVP td=(nstates=5)
 -----------------------------------

 --------------------------------
 TDDFT excited states in gaussian
 --------------------------------
 Symbolic Z-matrix:
 Charge =  0 Multiplicity = 1

                         Standard orientation:
 ---------------------------------------------------------------------
 Center     Atomic      Atomic             Coordinates (Angstroms)
 Number     Number       Type             X           Y           Z
 ---------------------------------------------------------------------
      1         12           0       -4.297553    0.521770   -1.042910
      2          6           0       -4.923426   -2.494062    0.780619
      3          6           0       -5.846099    2.200150    1.492463
      4          6           0       -4.162890    3.134107   -2.835723
      5          6           0       -3.843075   -1.458966   -3.874128
      6          7           0       -5.224008   -0.170093    0.844855
      7          6           0       -5.344710   -1.345384    1.454194
      8          6           0       -5.892259   -1.233932    2.908547
      9          6           0       -6.653158    0.161674    2.784793
     10          6           0       -5.838393    0.784055    1.664648
     11          6           0       -8.100727    0.027550    2.323212
     12          6           0       -4.745155   -1.168672    3.972326
     13          6           0       -5.185819   -1.387106    5.422655
     14          1           0       -4.293306   -2.097100    6.326358
     15          7           0       -4.462737    2.426646   -0.545908
     16          6           0       -5.115283    2.929340    0.529624
     17          6           0       -4.949670    4.397009    0.457507
     18          6           0       -4.310145    4.719129   -0.848380
     19          6           0       -4.310230    3.425129   -1.481580
     20          6           0       -5.333008    5.323954    1.569971
     21          6           0       -3.792180    5.993236   -1.437019
     22          8           0       -3.487566    6.096363   -2.674415
     23          6           0       -3.733561    7.157570   -0.534837
     24          7           0       -4.256665    0.826498   -3.107638
     25          6           0       -4.137834    2.055631   -3.621539
     26          6           0       -3.846832    2.006775   -5.092209
     27          6           0       -3.549153    0.475504   -5.433311
     28          6           0       -3.816380   -0.134019   -4.034975
     29          6           0       -4.959594    2.527578   -6.012283
     30          6           0       -2.202173    0.159389   -6.130543
     31          6           0       -1.056373    0.437845   -5.183600
     32          7           0       -4.188995   -1.604243   -1.466380
     33          6           0       -4.016332   -2.206275   -2.721139
     34          6           0       -4.116074   -3.663356   -2.518569
     35          6           0       -4.357913   -3.807921   -1.153850
     36          6           0       -4.432294   -2.521580   -0.547147
     37          6           0       -4.043344   -4.653356   -3.537905
     38          6           0       -4.595287   -4.748984   -0.071301
     39          8           0       -4.556906   -5.975617    0.035430
     40          6           0       -5.091922   -3.932522    1.202501
     41          6           0       -4.301285   -4.414808    2.388082
     42          8           0       -3.074731   -4.199606    2.469448
     43          8           0       -5.144404   -4.839160    3.341821
     44          6           0       -4.424998   -5.303888    4.557813
     45          1           0       -6.515386    2.803207    2.109161
     46          1           0       -4.002278    4.005360   -3.474129
     47          1           0       -3.627716   -2.143106   -4.696944
     48          1           0       -6.595534   -2.017646    3.190717
     49          1           0       -6.563591    0.756026    3.693884
     50          1           0       -8.332406   -0.996546    2.030854
     51          1           0       -8.197270    0.698337    1.469270
     52          1           0       -8.785879    0.407369    3.081554
     53          1           0       -4.377657   -0.144897    4.042272
     54          1           0       -3.950672   -1.874236    3.726762
     55          1           0       -6.192414   -1.802955    5.475050
     56          1           0       -5.269745   -0.412958    5.904517
     57          1           0       -5.927816    4.815621    2.327827
     58          1           0       -6.009231    6.066553    1.146915
     59          1           0       -4.466853    5.821724    2.006242
     60          1           0       -4.733137    7.368617   -0.154238
     61          1           0       -3.254883    7.954399   -1.102976
     62          1           0       -3.123096    6.902324    0.331841
     63          1           0       -2.969789    2.604369   -5.337368
     64          1           0       -4.299913    0.051714   -6.100721
     65          1           0       -4.640288    3.334678   -6.672085
     66          1           0       -5.794899    2.841114   -5.386782
     67          1           0       -5.429462    1.767989   -6.636515
     68          1           0       -2.064408    0.802976   -6.998738
     69          1           0       -2.124483   -0.874152   -6.468195
     70          1           0       -0.898543    1.509369   -5.300897
     71          1           0       -0.170214   -0.122455   -5.483596
     72          1           0       -1.344997    0.262539   -4.147043
     73          1           0       -3.412010   -5.450128   -3.144786
     74          1           0       -3.634084   -4.242415   -4.460529
     75          1           0       -5.094867   -4.924185   -3.631755
     76          1           0       -6.156753   -4.136691    1.310079
     77          1           0       -4.750164   -6.326009    4.752155
     78          1           0       -4.610116   -4.558321    5.331290
     79          1           0       -3.348543   -5.446197    4.456167
     80         12           0        4.440772    0.613722    1.123105
     81          6           0        4.965993   -1.456705   -1.760731
     82          6           0        3.181051   -2.143049    2.687697
     83          6           0        3.551910    2.499720    3.514835
     84          6           0        4.657751    3.375029   -0.992027
     85          7           0        4.162363   -1.473688    0.446742
     86          6           0        4.455658   -2.158221   -0.648588
     87          6           0        4.262217   -3.692935   -0.519011
     88          6           0        3.184729   -3.699822    0.671716
     89          6           0        3.548282   -2.374464    1.337996
     90          6           0        1.748224   -3.610986    0.183981
     91          6           0        5.583797   -4.428863   -0.102054
     92          6           0        5.548620   -5.950892   -0.256871
     93          1           0        6.771478   -6.637572   -0.663740
     94          7           0        3.964824    0.171823    2.998416
     95          6           0        3.489597   -1.003106    3.462082
     96          6           0        3.279107   -0.810555    4.905261
     97          6           0        3.512817    0.623718    5.226138
     98          6           0        3.668675    1.170083    3.892984
     99          6           0        2.971935   -1.943403    5.841061
    100          6           0        3.571910    1.380764    6.518261
    101          8           0        3.550506    2.661935    6.549621
    102          6           0        3.561293    0.577669    7.749692
    103          7           0        3.935761    2.628274    1.217343
    104          6           0        3.638674    3.212327    2.391462
    105          6           0        3.579108    4.714938    2.253613
    106          6           0        4.138221    5.034578    0.789783
    107          6           0        4.349936    3.592376    0.279267
    108          6           0        2.195673    5.343749    2.418231
    109          6           0        5.322588    6.034736    0.691664
    110          6           0        6.562377    5.428688    1.308925
    111          7           0        4.935249    0.947252   -0.953498
    112          6           0        4.939565    2.180207   -1.641910
    113          6           0        5.228033    1.885741   -3.060536
    114          6           0        5.349724    0.488672   -3.103582
    115          6           0        5.131158   -0.051256   -1.807355
    116          6           0        5.296948    2.843221   -4.111545
    117          6           0        5.602887   -0.652976   -3.952850
    118          8           0        5.938506   -0.804988   -5.126728
    119          6           0        5.240710   -1.973465   -3.145684
    120          6           0        6.373117   -2.948410   -3.317902
    121          8           0        7.498310   -2.699185   -2.850541
    122          8           0        5.889515   -4.102650   -3.812096
    123          6           0        6.973397   -5.105303   -3.990133
    124          1           0        2.561453   -2.885520    3.191404
    125          1           0        3.355458    3.205010    4.325662
    126          1           0        4.838922    4.189794   -1.696316
    127          1           0        3.848999   -4.174452   -1.397178
    128          1           0        3.355034   -4.528790    1.353737
    129          1           0        1.694159   -3.438266   -0.880632
    130          1           0        1.304656   -2.784935    0.724292
    131          1           0        1.191581   -4.502592    0.486523
    132          1           0        5.707622   -4.353497    0.985940
    133          1           0        6.425737   -4.030864   -0.634373
    134          1           0        4.699923   -6.283664   -0.866720
    135          1           0        5.364261   -6.395312    0.724207
    136          1           0        2.697275   -2.853777    5.294091
    137          1           0        2.062515   -1.669658    6.386858
    138          1           0        3.773993   -2.125532    6.559534
    139          1           0        2.660209   -0.030428    7.776489
    140          1           0        3.699399    1.290701    8.564785
    141          1           0        4.408684   -0.116439    7.722001
    142          1           0        4.215939    5.195998    2.985819
    143          1           0        3.366572    5.484921    0.148242
    144          1           0        2.156439    6.109632    3.215693
    145          1           0        1.482827    4.553829    2.614236
    146          1           0        1.788234    5.805022    1.520221
    147          1           0        5.102209    6.939887    1.262883
    148          1           0        5.545673    6.341658   -0.324712
    149          1           0        6.431294    5.631786    2.376003
    150          1           0        7.457810    5.911205    0.922384
    151          1           0        6.574575    4.340212    1.179615
    152          1           0        6.160358    2.586236   -4.710709
    153          1           0        5.369677    3.856539   -3.722101
    154          1           0        4.338421    2.660816   -4.604714
    155          1           0        4.303972   -2.358373   -3.550585
    156          1           0        6.943681   -5.425585   -5.036186
    157          1           0        6.793319   -5.879681   -3.220928
    158          1           0        7.996397   -4.758102   -3.904236
 ---------------------------------------------------------------------

 SCF Done:  E(RCAM-B3LYP) =  -4069.81286226     A.U. after   19 cycles

 Excitation energies and oscillator strengths:

 Excited State   1:      Singlet-A      1.6711 eV  741.95 nm  f=0.3338  <S**2>=0.000
     310 -> 316        0.16950
     312 -> 314        0.67986
     310 <- 316        0.10240
 This state for optimization and/or second-order correction.
 Total Energy, E(TD-HF/TD-DFT) =  -4069.75145186
 Copying the excited state density for this state as the 1-particle RhoCI density.

 Excited State   2:      Singlet-A      1.6756 eV  739.92 nm  f=0.3389  <S**2>=0.000
     309 -> 315        0.17300
     311 -> 313        0.67940
     309 <- 315        0.10407

 Excited State   3:      Singlet-A      2.1838 eV  567.75 nm  f=0.0996  <S**2>=0.000
     310 -> 314        0.63531
     312 -> 316       -0.26628

 Excited State   4:      Singlet-A      2.1928 eV  565.42 nm  f=0.0978  <S**2>=0.000
     309 -> 313        0.63311
     311 -> 315       -0.27452

 Excited State   5:      Singlet-A      2.3324 eV  531.57 nm  f=0.0000  <S**2>=0.000
     312 -> 313        0.70707

 The electronic state is 1-A.
 Alpha  occ. eigenvalues --  -46.87931 -46.87418 -19.26625 -19.26144 -19.19385
 Alpha  occ. eigenvalues --  -19.18954 -19.18946 -19.18569 -19.18382 -19.17854
 Alpha  occ. eigenvalues --  -14.42589 -14.42211 -14.41571 -14.41132 -14.39536
 Alpha  occ. eigenvalues --  -14.39114 -14.38736 -14.38366 -10.39423 -10.38882
 Alpha  occ. eigenvalues --  -10.35577 -10.35250 -10.34606 -10.34029 -10.32047
 Alpha  occ. eigenvalues --  -10.31560 -10.31558 -10.31058 -10.30985 -10.30733
 Alpha  occ. eigenvalues --  -10.30720 -10.30649 -10.30305 -10.30189 -10.30108
 Alpha  occ. eigenvalues --  -10.30046 -10.29921 -10.29777 -10.29701 -10.29380
 Alpha  occ. eigenvalues --  -10.29198 -10.29189 -10.28923 -10.28761 -10.28519
 Alpha  occ. eigenvalues --  -10.28321 -10.28315 -10.28268 -10.28161 -10.27943
 Alpha  occ. eigenvalues --  -10.27859 -10.27770 -10.27725 -10.27624 -10.27582
 Alpha  occ. eigenvalues --  -10.27562 -10.27546 -10.27512 -10.27388 -10.27365
 Alpha  occ. eigenvalues --  -10.27341 -10.27260 -10.27256 -10.27234 -10.27222
 Alpha  occ. eigenvalues --  -10.26913 -10.26834 -10.26532 -10.26370 -10.26354
 Alpha  occ. eigenvalues --  -10.26306 -10.26167 -10.26134 -10.26009 -10.26001
 Alpha  occ. eigenvalues --  -10.25705 -10.25665 -10.25489 -10.25368 -10.25207
 Alpha  occ. eigenvalues --  -10.24996 -10.24916 -10.24647 -10.24642 -10.24608
 Alpha  occ. eigenvalues --  -10.24481  -3.16674  -3.16168  -1.91555  -1.91142
 Alpha  occ. eigenvalues --   -1.91051  -1.90984  -1.90639  -1.90476  -1.16974
 Alpha  occ. eigenvalues --   -1.16437  -1.08854  -1.08465  -1.07346  -1.06997
 Alpha  occ. eigenvalues --   -1.06827  -1.06740  -1.04726  -1.04212  -1.03888
 Alpha  occ. eigenvalues --   -1.03418  -1.03371  -1.02815  -1.02547  -1.01878
 Alpha  occ. eigenvalues --   -0.92145  -0.91745  -0.89611  -0.89348  -0.89301
 Alpha  occ. eigenvalues --   -0.88722  -0.88369  -0.88052  -0.88024  -0.87812
 Alpha  occ. eigenvalues --   -0.87572  -0.87403  -0.87402  -0.86917  -0.85143
 Alpha  occ. eigenvalues --   -0.84659  -0.84020  -0.83728  -0.83077  -0.82811
 Alpha  occ. eigenvalues --   -0.82769  -0.82349  -0.81807  -0.81366  -0.80769
 Alpha  occ. eigenvalues --   -0.80209  -0.78932  -0.78410  -0.77348  -0.77104
 Alpha  occ. eigenvalues --   -0.76893  -0.76602  -0.76100  -0.75490  -0.75002
 Alpha  occ. eigenvalues --   -0.74625  -0.72910  -0.72455  -0.71812  -0.71305
 Alpha  occ. eigenvalues --   -0.69952  -0.69594  -0.69030  -0.68510  -0.67795
 Alpha  occ. eigenvalues --   -0.67388  -0.67382  -0.66920  -0.65456  -0.65026
 Alpha  occ. eigenvalues --   -0.64956  -0.64773  -0.64528  -0.64385  -0.64365
 Alpha  occ. eigenvalues --   -0.64009  -0.62530  -0.62063  -0.60562  -0.60145
 Alpha  occ. eigenvalues --   -0.59960  -0.59442  -0.59133  -0.58755  -0.58659
 Alpha  occ. eigenvalues --   -0.58198  -0.57820  -0.57442  -0.57336  -0.57048
 Alpha  occ. eigenvalues --   -0.56475  -0.56225  -0.55965  -0.55674  -0.55652
 Alpha  occ. eigenvalues --   -0.55484  -0.55229  -0.55070  -0.54694  -0.54307
 Alpha  occ. eigenvalues --   -0.54063  -0.53516  -0.53437  -0.53390  -0.53113
 Alpha  occ. eigenvalues --   -0.53015  -0.52896  -0.52896  -0.52647  -0.52477
 Alpha  occ. eigenvalues --   -0.52389  -0.52245  -0.52081  -0.51789  -0.51683
 Alpha  occ. eigenvalues --   -0.51356  -0.51353  -0.50967  -0.50683  -0.50281
 Alpha  occ. eigenvalues --   -0.50116  -0.50038  -0.49767  -0.49677  -0.49633
 Alpha  occ. eigenvalues --   -0.49388  -0.49263  -0.49207  -0.48943  -0.48789
 Alpha  occ. eigenvalues --   -0.48730  -0.48614  -0.48565  -0.48273  -0.48215
 Alpha  occ. eigenvalues --   -0.48128  -0.47837  -0.47434  -0.47331  -0.46925
 Alpha  occ. eigenvalues --   -0.46900  -0.46727  -0.46506  -0.46458  -0.46309
 Alpha  occ. eigenvalues --   -0.46199  -0.46050  -0.46022  -0.45897  -0.45581
 Alpha  occ. eigenvalues --   -0.45295  -0.45046  -0.44767  -0.44635  -0.44299
 Alpha  occ. eigenvalues --   -0.44295  -0.44219  -0.44182  -0.44179  -0.43893
 Alpha  occ. eigenvalues --   -0.43781  -0.43708  -0.43697  -0.43520  -0.43326
 Alpha  occ. eigenvalues --   -0.43177  -0.43102  -0.42981  -0.42733  -0.42719
 Alpha  occ. eigenvalues --   -0.42665  -0.42372  -0.42120  -0.41859  -0.41746
 Alpha  occ. eigenvalues --   -0.41687  -0.41433  -0.41282  -0.41158  -0.41007
 Alpha  occ. eigenvalues --   -0.40957  -0.40690  -0.40657  -0.40521  -0.40415
 Alpha  occ. eigenvalues --   -0.40413  -0.40213  -0.39902  -0.39473  -0.39267
 Alpha  occ. eigenvalues --   -0.38560  -0.38156  -0.37931  -0.37435  -0.37421
 Alpha  occ. eigenvalues --   -0.37350  -0.37043  -0.36988  -0.36887  -0.36572
 Alpha  occ. eigenvalues --   -0.36357  -0.35995  -0.34432  -0.34100  -0.34009
 Alpha  occ. eigenvalues --   -0.33651  -0.33337  -0.32934  -0.31475  -0.31181
 Alpha  occ. eigenvalues --   -0.31127  -0.30725  -0.30246  -0.29758  -0.29593
 Alpha  occ. eigenvalues --   -0.29479  -0.29115  -0.28992  -0.24222  -0.23788
 Alpha  occ. eigenvalues --   -0.21263  -0.20870
 Alpha virt. eigenvalues --   -0.08916  -0.08560  -0.01879  -0.01454  -0.00204
 Alpha virt. eigenvalues --    0.00200   0.02028   0.02402   0.02844   0.03506
 Alpha virt. eigenvalues --    0.04565   0.04780   0.05046   0.05378   0.05973

 Mulliken charges:
               1
     1  Mg   0.838990
     2  C   -0.003929
     3  C   -0.093783
     4  C   -0.045596
     5  C   -0.063642
     6  N   -0.256907
     7  C   -0.052518
     8  C   -0.014149
     9  C   -0.087140
    10  C    0.046498
    11  C    0.104703
    12  C    0.053421
    13  C   -0.071376
    14  H    0.033834
    15  N   -0.433238
    16  C    0.168860
    17  C   -0.176724
    18  C   -0.003783
    19  C    0.148993
    20  C    0.110011
    21  C    0.012109
    22  O   -0.249308
    23  C    0.062377
    24  N   -0.341265
    25  C    0.041675
    26  C   -0.028314
    27  C   -0.024080
    28  C    0.074974
    29  C    0.076074
    30  C    0.034961
    31  C   -0.005003
    32  N   -0.310141
    33  C    0.079852
    34  C   -0.170524
    35  C    0.007687
    36  C    0.082283
    37  C    0.127570
    38  C    0.044622
    39  O   -0.189705
    40  C   -0.004898
    41  C    0.213293
    42  O   -0.260551
    43  O   -0.303808
    44  C    0.158393
    45  H   -0.017225
    46  H   -0.016411
    47  H   -0.040956
    48  H    0.000768
    49  H   -0.003617
    50  H    0.025453
    51  H    0.016769
    52  H    0.017032
    53  H    0.012356
    54  H    0.042153
    55  H    0.018303
    56  H    0.019097
    57  H    0.006283
    58  H    0.027131
    59  H    0.040331
    60  H    0.037837
    61  H    0.035582
    62  H    0.031402
    63  H    0.017007
    64  H    0.009679
    65  H    0.023662
    66  H    0.012338
    67  H    0.005131
    68  H    0.007333
    69  H    0.005172
    70  H    0.008624
    71  H    0.021023
    72  H    0.027747
    73  H    0.046105
    74  H    0.009878
    75  H    0.046363
    76  H    0.035643
    77  H    0.043435
    78  H    0.047024
    79  H    0.050767
    80  Mg   0.837318
    81  C   -0.016943
    82  C   -0.086622
    83  C   -0.046493
    84  C   -0.064954
    85  N   -0.254960
    86  C   -0.049068
    87  C   -0.015303
    88  C   -0.090166
    89  C    0.044758
    90  C    0.113318
    91  C    0.062388
    92  C   -0.077532
    93  H    0.033073
    94  N   -0.423627
    95  C    0.162469
    96  C   -0.173471
    97  C   -0.008951
    98  C    0.152731
    99  C    0.099335
   100  C    0.014963
   101  O   -0.254529
   102  C    0.061464
   103  N   -0.350176
   104  C    0.037564
   105  C   -0.019580
   106  C   -0.035036
   107  C    0.088746
   108  C    0.074030
   109  C    0.034950
   110  C   -0.007528
   111  N   -0.323975
   112  C    0.078109
   113  C   -0.163530
   114  C    0.001860
   115  C    0.096124
   116  C    0.131636
   117  C    0.041523
   118  O   -0.189217
   119  C    0.001350
   120  C    0.211329
   121  O   -0.251259
   122  O   -0.305527
   123  C    0.152209
   124  H   -0.013926
   125  H   -0.017088
   126  H   -0.040835
   127  H   -0.000544
   128  H   -0.004025
   129  H    0.019711
   130  H    0.018148
   131  H    0.026715
   132  H    0.013422
   133  H    0.036533
   134  H    0.021955
   135  H    0.020083
   136  H    0.011001
   137  H    0.025571
   138  H    0.038805
   139  H    0.037782
   140  H    0.035284
   141  H    0.034087
   142  H    0.013812
   143  H    0.012875
   144  H    0.023374
   145  H    0.010741
   146  H    0.005009
   147  H    0.005269
   148  H    0.003785
   149  H    0.010393
   150  H    0.017542
   151  H    0.030596
   152  H    0.045319
   153  H    0.008370
   154  H    0.046376
   155  H    0.034572
   156  H    0.043167
   157  H    0.050161
   158  H    0.053147
 Sum of Mulliken charges =  -0.00000

 Dipole moment (field-independent basis, Debye):
    X=             -5.5566    Y=              0.9141    Z=              4.4806  Tot=              7.1963
 Quadrupole moment (field-independent basis, Debye-Ang):
   XX=           -519.1397   YY=           -502.2620   ZZ=           -498.2568
   XY=            -22.5694   XZ=              0.2431   YZ=             -5.9483

 Normal termination of Gaussian 16 at Fri Sep 10 08:08:02 2021.
