 Gaussian 16, Revision A.03,
 Gaussian 16:  ES64L-G16RevA.03 25-Dec-2016

 -----------------------------------
 #p cam-b3lyp/Def2SVP td=(nstates=5)
 -----------------------------------

 --------------------------------
 TDDFT excited states in gaussian
 --------------------------------
 Symbolic Z-matrix:
 Charge =  0 Multiplicity = 1

                         Standard orientation:
 ---------------------------------------------------------------------
 Center     Atomic      Atomic             Coordinates (Angstroms)
 Number     Number       Type             X           Y           Z
 ---------------------------------------------------------------------
      1         12           0      -15.760616   -0.706858   -0.258060
      2          6           0      -16.016754    2.056278    2.002844
      3          6           0      -16.597274    1.455856   -2.761205
      4          6           0      -15.985559   -3.207250   -2.195601
      5          6           0      -16.065722   -2.806761    2.506534
      6          7           0      -16.222501    1.458158   -0.254417
      7          6           0      -16.227391    2.414100    0.669337
      8          6           0      -16.402603    3.844516    0.077236
      9          6           0      -17.128316    3.463705   -1.290361
     10          6           0      -16.590839    2.054422   -1.466327
     11          6           0      -18.647961    3.399147   -1.176279
     12          6           0      -15.030492    4.553504   -0.180406
     13          6           0      -15.112989    6.059326   -0.446955
     14          1           0      -14.049959    6.918212    0.052674
     15          7           0      -15.742856   -0.804440   -2.231132
     16          6           0      -16.099864    0.177241   -3.093764
     17          6           0      -15.912422   -0.383256   -4.449268
     18          6           0      -15.598953   -1.831884   -4.303304
     19          6           0      -15.791536   -2.013912   -2.887269
     20          6           0      -15.986611    0.440839   -5.697913
     21          6           0      -15.200826   -2.887360   -5.285953
     22          8           0      -15.202147   -4.130386   -4.986859
     23          6           0      -14.890221   -2.429313   -6.652247
     24          7           0      -16.212059   -2.718913    0.066703
     25          6           0      -16.184233   -3.603017   -0.936576
     26          6           0      -16.259866   -5.011262   -0.425629
     27          6           0      -16.100085   -4.915305    1.160251
     28          6           0      -16.038803   -3.374065    1.298432
     29          6           0      -17.546159   -5.777617   -0.763508
     30          6           0      -14.972366   -5.759129    1.805719
     31          6           0      -13.623392   -5.224240    1.379973
     32          7           0      -15.822147   -0.459908    1.897462
     33          6           0      -15.976924   -1.470116    2.857773
     34          6           0      -16.068559   -0.806934    4.171493
     35          6           0      -15.976763    0.552778    3.880632
     36          6           0      -15.863044    0.729177    2.472000
     37          6           0      -16.274914   -1.456612    5.420401
     38          6           0      -15.973059    1.898869    4.430070
     39          8           0      -15.947016    2.371139    5.567513
     40          6           0      -16.121360    2.931542    3.226982
     41          6           0      -15.081945    4.002519    3.416540
     42          8           0      -13.866305    3.739344    3.314924
     43          8           0      -15.681259    5.202603    3.450654
     44          6           0      -14.703020    6.311972    3.607187
     45          1           0      -17.078663    1.985953   -3.585343
     46          1           0      -15.958191   -4.104166   -2.817879
     47          1           0      -16.076913   -3.401664    3.421640
     48          1           0      -17.039882    4.504998    0.665507
     49          1           0      -16.803236    4.098855   -2.114151
     50          1           0      -18.974389    3.499251   -0.141222
     51          1           0      -18.928242    2.422382   -1.571078
     52          1           0      -19.117154    4.133194   -1.831878
     53          1           0      -14.626257    4.217917   -1.135412
     54          1           0      -14.340863    4.370623    0.644393
     55          1           0      -16.088976    6.459963   -0.171548
     56          1           0      -15.048203    6.219723   -1.523187
     57          1           0      -16.395131    1.431134   -5.500498
     58          1           0      -16.722452   -0.031870   -6.348139
     59          1           0      -15.025934    0.497339   -6.210006
     60          1           0      -15.760946   -1.922218   -7.068470
     61          1           0      -14.539636   -3.308468   -7.191715
     62          1           0      -14.095941   -1.683915   -6.602741
     63          1           0      -15.450730   -5.617998   -0.830099
     64          1           0      -17.002633   -5.233980    1.682293
     65          1           0      -17.372022   -6.709426   -1.302129
     66          1           0      -18.195150   -5.112468   -1.332435
     67          1           0      -18.175995   -6.013918    0.093747
     68          1           0      -15.029707   -6.792423    1.465188
     69          1           0      -15.010050   -5.766375    2.895113
     70          1           0      -13.466407   -5.701358    0.413254
     71          1           0      -12.853666   -5.522956    2.092364
     72          1           0      -13.657410   -4.147866    1.210416
     73          1           0      -15.591494   -0.984764    6.126280
     74          1           0      -16.089190   -2.527790    5.344977
     75          1           0      -17.325525   -1.226364    5.596633
     76          1           0      -17.134056    3.330114    3.279022
     77          1           0      -15.002116    6.881917    4.486925
     78          1           0      -14.672604    6.835454    2.651443
     79          1           0      -13.688076    6.024246    3.883667
     80         12           0       15.979128   -0.574152    0.347058
     81          6           0       15.065599    1.828730   -2.157071
     82          6           0       17.781097    1.900729    1.851217
     83          6           0       17.162910   -2.766478    2.311698
     84          6           0       15.079747   -3.067506   -1.915674
     85          7           0       16.303366    1.549375   -0.179972
     86          6           0       15.855633    2.367663   -1.120336
     87          6           0       16.211738    3.861746   -0.895699
     88          6           0       17.506701    3.663294    0.033041
     89          6           0       17.167461    2.302515    0.637918
     90          6           0       18.798113    3.526594   -0.756206
     91          6           0       15.077254    4.639658   -0.140840
     92          6           0       15.219613    6.163179   -0.160185
     93          1           0       14.007660    6.974622   -0.232213
     94          7           0       16.868478   -0.372979    2.109778
     95          6           0       17.534682    0.708195    2.566411
     96          6           0       18.018369    0.345878    3.907650
     97          6           0       17.724710   -1.094611    4.138905
     98          6           0       17.248961   -1.480792    2.825661
     99          6           0       18.613876    1.345998    4.855556
    100          6           0       17.862840   -1.981249    5.339323
    101          8           0       17.772398   -3.256553    5.248459
    102          6           0       18.199775   -1.319204    6.608047
    103          7           0       16.305429   -2.617664    0.147236
    104          6           0       16.782276   -3.345123    1.172583
    105          6           0       16.673935   -4.824361    0.888797
    106          6           0       15.799261   -4.943036   -0.444783
    107          6           0       15.620687   -3.442648   -0.764664
    108          6           0       17.997933   -5.563489    0.696178
    109          6           0       14.533186   -5.840455   -0.378498
    110          6           0       13.507582   -5.218833    0.541881
    111          7           0       15.040365   -0.644724   -1.597622
    112          6           0       14.781528   -1.792334   -2.378694
    113          6           0       14.236276   -1.326127   -3.670118
    114          6           0       14.237250    0.072473   -3.558634
    115          6           0       14.765945    0.451822   -2.295280
    116          6           0       13.865373   -2.156685   -4.764977
    117          6           0       13.921129    1.314501   -4.226566
    118          8           0       13.367093    1.616261   -5.282836
    119          6           0       14.561071    2.510757   -3.398408
    120          6           0       13.511923    3.576196   -3.235230
    121          8           0       12.488602    3.357889   -2.563097
    122          8           0       13.987749    4.740145   -3.713965
    123          6           0       12.987221    5.830268   -3.564276
    124          1           0       18.556456    2.538534    2.276556
    125          1           0       17.455980   -3.567651    2.994129
    126          1           0       14.683766   -3.786231   -2.636309
    127          1           0       16.478335    4.405248   -1.794210
    128          1           0       17.556948    4.423369    0.808364
    129          1           0       18.616354    3.466957   -1.819018
    130          1           0       19.265324    2.617547   -0.400686
    131          1           0       19.484527    4.338546   -0.499513
    132          1           0       15.173031    4.455679    0.936985
    133          1           0       14.111035    4.362236   -0.515126
    134          1           0       15.951945    6.499326   -0.904257
    135          1           0       15.641488    6.484444    0.795236
    136          1           0       18.852866    2.288632    4.347888
    137          1           0       19.586889    0.951104    5.167302
    138          1           0       17.996610    1.505357    5.742271
    139          1           0       19.139154   -0.782798    6.497145
    140          1           0       18.167027   -2.104879    7.365358
    141          1           0       17.432202   -0.568057    6.825335
    142          1           0       16.159534   -5.335778    1.693118
    143          1           0       16.378051   -5.374554   -1.274622
    144          1           0       18.129497   -6.412194    1.393652
    145          1           0       18.805337   -4.851850    0.806629
    146          1           0       18.168187   -5.952286   -0.306336
    147          1           0       14.782006   -6.815513    0.047533
    148          1           0       14.078959   -6.018801   -1.347448
    149          1           0       13.835704   -5.545219    1.533297
    150          1           0       12.511392   -5.592096    0.313116
    151          1           0       13.569176   -4.124625    0.517941
    152          1           0       12.924711   -1.775865   -5.139969
    153          1           0       13.781350   -3.198574   -4.463017
    154          1           0       14.714863   -1.990065   -5.432719
    155          1           0       15.426064    2.870129   -3.957175
    156          1           0       12.830860    6.259193   -4.558893
    157          1           0       13.391758    6.501985   -2.783961
    158          1           0       11.976167    5.548953   -3.293944
 ---------------------------------------------------------------------

 SCF Done:  E(RCAM-B3LYP) =  -4069.81177555     A.U. after   19 cycles

 Excitation energies and oscillator strengths:

 Excited State   1:      Singlet-A      1.6754 eV  740.03 nm  f=0.2521  <S**2>=0.000
     309 -> 316        0.16979
     311 -> 313        0.67110
     312 -> 314        0.14245
     309 <- 316        0.10236
 This state for optimization and/or second-order correction.
 Total Energy, E(TD-HF/TD-DFT) =  -4069.75020583
 Copying the excited state density for this state as the 1-particle RhoCI density.

 Excited State   2:      Singlet-A      1.6801 eV  737.96 nm  f=0.5263  <S**2>=0.000
     310 -> 315        0.17179
     311 -> 313       -0.14241
     312 -> 314        0.67074
     310 <- 315        0.10286

 Excited State   3:      Singlet-A      2.1861 eV  567.14 nm  f=0.0953  <S**2>=0.000
     309 -> 313        0.64211
     311 -> 316       -0.27296

 Excited State   4:      Singlet-A      2.1926 eV  565.47 nm  f=0.1048  <S**2>=0.000
     310 -> 314        0.64033
     312 -> 315       -0.27816

 Excited State   5:      Singlet-A      3.0532 eV  406.08 nm  f=0.0000  <S**2>=0.000
     312 -> 313        0.70710

 The electronic state is 1-A.
 Alpha  occ. eigenvalues --  -46.87737 -46.87662 -19.26352 -19.26227 -19.19162
 Alpha  occ. eigenvalues --  -19.18961 -19.18753 -19.18713 -19.18113 -19.18054
 Alpha  occ. eigenvalues --  -14.42499 -14.42391 -14.41391 -14.41361 -14.39353
 Alpha  occ. eigenvalues --  -14.39343 -14.38601 -14.38528 -10.39092 -10.39021
 Alpha  occ. eigenvalues --  -10.35390 -10.35387 -10.34333 -10.34231 -10.31759
 Alpha  occ. eigenvalues --  -10.31623 -10.31347 -10.31311 -10.31024 -10.30850
 Alpha  occ. eigenvalues --  -10.30511 -10.30449 -10.30399 -10.30362 -10.30148
 Alpha  occ. eigenvalues --  -10.30142 -10.29896 -10.29863 -10.29572 -10.29438
 Alpha  occ. eigenvalues --  -10.29402 -10.29195 -10.28721 -10.28690 -10.28654
 Alpha  occ. eigenvalues --  -10.28477 -10.28406 -10.28306 -10.28143 -10.28059
 Alpha  occ. eigenvalues --  -10.28003 -10.27735 -10.27671 -10.27669 -10.27525
 Alpha  occ. eigenvalues --  -10.27519 -10.27485 -10.27468 -10.27464 -10.27443
 Alpha  occ. eigenvalues --  -10.27420 -10.27392 -10.27377 -10.27345 -10.27101
 Alpha  occ. eigenvalues --  -10.27053 -10.26692 -10.26643 -10.26411 -10.26345
 Alpha  occ. eigenvalues --  -10.26180 -10.26137 -10.26125 -10.26029 -10.25961
 Alpha  occ. eigenvalues --  -10.25936 -10.25855 -10.25789 -10.25401 -10.25381
 Alpha  occ. eigenvalues --  -10.24875 -10.24774 -10.24729 -10.24727 -10.24691
 Alpha  occ. eigenvalues --  -10.24625  -3.16480  -3.16412  -1.91362  -1.91294
 Alpha  occ. eigenvalues --   -1.90948  -1.90882  -1.90790  -1.90719  -1.16645
 Alpha  occ. eigenvalues --   -1.16575  -1.08662  -1.08571  -1.07154  -1.06965
 Alpha  occ. eigenvalues --   -1.06947  -1.06584  -1.04522  -1.04497  -1.03702
 Alpha  occ. eigenvalues --   -1.03665  -1.03175  -1.03040  -1.02352  -1.02113
 Alpha  occ. eigenvalues --   -0.91989  -0.91914  -0.89495  -0.89461  -0.89153
 Alpha  occ. eigenvalues --   -0.89129  -0.88229  -0.88221  -0.87813  -0.87796
 Alpha  occ. eigenvalues --   -0.87685  -0.87614  -0.87213  -0.87120  -0.85001
 Alpha  occ. eigenvalues --   -0.84923  -0.83878  -0.83877  -0.82931  -0.82906
 Alpha  occ. eigenvalues --   -0.82653  -0.82589  -0.81598  -0.81528  -0.80538
 Alpha  occ. eigenvalues --   -0.80444  -0.78738  -0.78636  -0.77160  -0.77146
 Alpha  occ. eigenvalues --   -0.76900  -0.76876  -0.75865  -0.75841  -0.74841
 Alpha  occ. eigenvalues --   -0.74805  -0.72716  -0.72701  -0.71615  -0.71583
 Alpha  occ. eigenvalues --   -0.69848  -0.69758  -0.68828  -0.68814  -0.67603
 Alpha  occ. eigenvalues --   -0.67582  -0.67200  -0.67159  -0.65273  -0.65228
 Alpha  occ. eigenvalues --   -0.64795  -0.64772  -0.64655  -0.64562  -0.64211
 Alpha  occ. eigenvalues --   -0.64205  -0.62280  -0.62240  -0.60382  -0.60340
 Alpha  occ. eigenvalues --   -0.59798  -0.59746  -0.58995  -0.58929  -0.58445
 Alpha  occ. eigenvalues --   -0.58427  -0.57557  -0.57527  -0.57250  -0.57238
 Alpha  occ. eigenvalues --   -0.56251  -0.56206  -0.55921  -0.55888  -0.55461
 Alpha  occ. eigenvalues --   -0.55453  -0.55282  -0.55249  -0.54489  -0.54466
 Alpha  occ. eigenvalues --   -0.53914  -0.53836  -0.53240  -0.53229  -0.53162
 Alpha  occ. eigenvalues --   -0.53143  -0.52903  -0.52856  -0.52695  -0.52668
 Alpha  occ. eigenvalues --   -0.52401  -0.52379  -0.51888  -0.51858  -0.51659
 Alpha  occ. eigenvalues --   -0.51557  -0.51203  -0.51138  -0.50510  -0.50474
 Alpha  occ. eigenvalues --   -0.49981  -0.49973  -0.49868  -0.49858  -0.49488
 Alpha  occ. eigenvalues --   -0.49455  -0.49204  -0.49156  -0.49107  -0.49038
 Alpha  occ. eigenvalues --   -0.48561  -0.48535  -0.48403  -0.48386  -0.48378
 Alpha  occ. eigenvalues --   -0.48339  -0.47636  -0.47596  -0.47238  -0.47119
 Alpha  occ. eigenvalues --   -0.46739  -0.46710  -0.46555  -0.46496  -0.46301
 Alpha  occ. eigenvalues --   -0.46272  -0.46105  -0.46088  -0.45825  -0.45765
 Alpha  occ. eigenvalues --   -0.45210  -0.45144  -0.44520  -0.44516  -0.44477
 Alpha  occ. eigenvalues --   -0.44447  -0.44129  -0.44085  -0.44078  -0.44030
 Alpha  occ. eigenvalues --   -0.43961  -0.43940  -0.43555  -0.43437  -0.43387
 Alpha  occ. eigenvalues --   -0.43327  -0.42969  -0.42932  -0.42903  -0.42641
 Alpha  occ. eigenvalues --   -0.42596  -0.42554  -0.41965  -0.41951  -0.41671
 Alpha  occ. eigenvalues --   -0.41646  -0.41475  -0.41460  -0.41083  -0.40992
 Alpha  occ. eigenvalues --   -0.40810  -0.40762  -0.40722  -0.40698  -0.40513
 Alpha  occ. eigenvalues --   -0.40494  -0.40227  -0.40173  -0.39425  -0.39382
 Alpha  occ. eigenvalues --   -0.38411  -0.38352  -0.37688  -0.37654  -0.37267
 Alpha  occ. eigenvalues --   -0.37262  -0.37204  -0.37201  -0.36773  -0.36655
 Alpha  occ. eigenvalues --   -0.36219  -0.36134  -0.34255  -0.34227  -0.33863
 Alpha  occ. eigenvalues --   -0.33712  -0.33177  -0.33128  -0.31283  -0.31272
 Alpha  occ. eigenvalues --   -0.30977  -0.30974  -0.29972  -0.29959  -0.29390
 Alpha  occ. eigenvalues --   -0.29328  -0.29263  -0.29213  -0.24038  -0.24022
 Alpha  occ. eigenvalues --   -0.21119  -0.21069
 Alpha virt. eigenvalues --   -0.08793  -0.08715  -0.01691  -0.01685  -0.00029
 Alpha virt. eigenvalues --    0.00002   0.02205   0.02258   0.03185   0.03228
 Alpha virt. eigenvalues --    0.04728   0.04777   0.05156   0.05163   0.06181

 Mulliken charges:
               1
     1  Mg   0.838796
     2  C   -0.002937
     3  C   -0.094097
     4  C   -0.045852
     5  C   -0.063963
     6  N   -0.256774
     7  C   -0.052468
     8  C   -0.014054
     9  C   -0.087011
    10  C    0.046342
    11  C    0.104833
    12  C    0.053470
    13  C   -0.071825
    14  H    0.036192
    15  N   -0.433141
    16  C    0.168453
    17  C   -0.177139
    18  C   -0.003972
    19  C    0.148730
    20  C    0.110183
    21  C    0.012324
    22  O   -0.249618
    23  C    0.062453
    24  N   -0.341137
    25  C    0.041243
    26  C   -0.028170
    27  C   -0.023965
    28  C    0.074834
    29  C    0.076196
    30  C    0.035133
    31  C   -0.004510
    32  N   -0.310453
    33  C    0.080409
    34  C   -0.169731
    35  C    0.008338
    36  C    0.083012
    37  C    0.127312
    38  C    0.046102
    39  O   -0.188517
    40  C   -0.005327
    41  C    0.212854
    42  O   -0.257025
    43  O   -0.304829
    44  C    0.157690
    45  H   -0.017623
    46  H   -0.016842
    47  H   -0.041537
    48  H    0.000887
    49  H   -0.004004
    50  H    0.025429
    51  H    0.016422
    52  H    0.016621
    53  H    0.011283
    54  H    0.044166
    55  H    0.017794
    56  H    0.017981
    57  H    0.005867
    58  H    0.026789
    59  H    0.039667
    60  H    0.037300
    61  H    0.035692
    62  H    0.031616
    63  H    0.016592
    64  H    0.009390
    65  H    0.023195
    66  H    0.012514
    67  H    0.004690
    68  H    0.006329
    69  H    0.004687
    70  H    0.008818
    71  H    0.018180
    72  H    0.029031
    73  H    0.047555
    74  H    0.009093
    75  H    0.045929
    76  H    0.035084
    77  H    0.042870
    78  H    0.046416
    79  H    0.053736
    80  Mg   0.837872
    81  C   -0.016822
    82  C   -0.087766
    83  C   -0.045500
    84  C   -0.064879
    85  N   -0.254566
    86  C   -0.049837
    87  C   -0.015119
    88  C   -0.090494
    89  C    0.045767
    90  C    0.114373
    91  C    0.062524
    92  C   -0.077930
    93  H    0.034957
    94  N   -0.423495
    95  C    0.162938
    96  C   -0.174597
    97  C   -0.007791
    98  C    0.152145
    99  C    0.099356
   100  C    0.015619
   101  O   -0.253160
   102  C    0.061176
   103  N   -0.350054
   104  C    0.037509
   105  C   -0.019826
   106  C   -0.034843
   107  C    0.088923
   108  C    0.073672
   109  C    0.034737
   110  C   -0.007695
   111  N   -0.324107
   112  C    0.078446
   113  C   -0.163127
   114  C    0.002210
   115  C    0.096227
   116  C    0.131485
   117  C    0.042382
   118  O   -0.187915
   119  C    0.000914
   120  C    0.211254
   121  O   -0.250954
   122  O   -0.305661
   123  C    0.152020
   124  H   -0.019653
   125  H   -0.015546
   126  H   -0.040459
   127  H   -0.000675
   128  H   -0.004294
   129  H    0.022431
   130  H    0.014414
   131  H    0.016279
   132  H    0.013965
   133  H    0.037713
   134  H    0.020745
   135  H    0.019621
   136  H    0.008767
   137  H    0.026150
   138  H    0.039873
   139  H    0.038240
   140  H    0.036451
   141  H    0.033957
   142  H    0.014448
   143  H    0.012385
   144  H    0.025165
   145  H    0.011611
   146  H    0.005642
   147  H    0.006274
   148  H    0.003643
   149  H    0.010968
   150  H    0.018002
   151  H    0.030113
   152  H    0.046015
   153  H    0.008527
   154  H    0.046886
   155  H    0.034979
   156  H    0.043862
   157  H    0.049511
   158  H    0.053624
 Sum of Mulliken charges =  -0.00000

 Dipole moment (field-independent basis, Debye):
    X=              1.4303    Y=              3.0348    Z=             -1.6977  Tot=              3.7600
 Quadrupole moment (field-independent basis, Debye-Ang):
   XX=           -352.8040   YY=           -461.0176   ZZ=           -535.9763
   XY=             21.4182   XZ=             91.2072   YZ=             -9.4256

 Normal termination of Gaussian 16 at Sun Sep 12 13:44:56 2021.
