 Gaussian 16, Revision A.03,
 Gaussian 16:  ES64L-G16RevA.03 25-Dec-2016

 -----------------------------------
 #p cam-b3lyp/Def2SVP td=(nstates=5)
 -----------------------------------

 --------------------------------
 TDDFT excited states in gaussian
 --------------------------------
 Symbolic Z-matrix:
 Charge =  0 Multiplicity = 1

                         Standard orientation:
 ---------------------------------------------------------------------
 Center     Atomic      Atomic             Coordinates (Angstroms)
 Number     Number       Type             X           Y           Z
 ---------------------------------------------------------------------
      1         12           0      -15.794197   -0.748450    0.166542
      2          6           0      -15.990913    2.823436    0.043452
      3          6           0      -16.687996   -0.762547   -3.126480
      4          6           0      -16.070143   -3.901264    0.367140
      5          6           0      -16.035370   -0.494893    3.633991
      6          7           0      -16.252409    0.887651   -1.252565
      7          6           0      -16.233325    2.215405   -1.190314
      8          6           0      -16.420597    2.901645   -2.576452
      9          6           0      -17.179938    1.725345   -3.339156
     10          6           0      -16.649140    0.541664   -2.549803
     11          6           0      -18.696462    1.778389   -3.184744
     12          6           0      -15.054025    3.240278   -3.261682
     13          6           0      -15.140578    4.196465   -4.454816
     14          1           0      -14.064353    5.152924   -4.665231
     15          7           0      -15.824549   -2.124614   -1.250533
     16          6           0      -16.200852   -1.950798   -2.540289
     17          6           0      -16.047301   -3.269789   -3.190953
     18          6           0      -15.732684   -4.266621   -2.130088
     19          6           0      -15.891086   -3.465147   -0.943527
     20          6           0      -16.150501   -3.474021   -4.671287
     21          6           0      -15.360237   -5.714779   -2.177582
     22          8           0      -15.356268   -6.450700   -1.132126
     23          6           0      -15.082200   -6.278184   -3.511116
     24          7           0      -16.240819   -2.037132    1.746878
     25          6           0      -16.238791   -3.363839    1.577090
     26          6           0      -16.304227   -4.082681    2.891975
     27          6           0      -16.105800   -2.966414    4.016399
     28          6           0      -16.038722   -1.718916    3.101239
     29          6           0      -17.599570   -4.859023    3.166551
     30          6           0      -14.964072   -3.193371    5.038831
     31          6           0      -13.624993   -3.096051    4.342776
     32          7           0      -15.802932    0.861082    1.622693
     33          6           0      -15.935934    0.739156    3.013419
     34          6           0      -15.994558    2.106018    3.563255
     35          6           0      -15.907693    2.933434    2.445363
     36          6           0      -15.827961    2.133981    1.269433
     37          6           0      -16.171535    2.446232    4.933425
     38          6           0      -15.888493    4.306890    1.968806
     39          8           0      -15.834064    5.411990    2.510363
     40          6           0      -16.064344    4.290635    0.386201
     41          6           0      -15.018925    5.202060   -0.196649
     42          8           0      -13.806535    4.916391   -0.120037
     43          8           0      -15.615321    6.136070   -0.953272
     44          6           0      -14.631801    7.055576   -1.585215
     45          1           0      -17.188427   -0.900271   -4.086970
     46          1           0      -16.059334   -4.986054    0.491843
     47          1           0      -16.025265   -0.337283    4.714042
     48          1           0      -17.042339    3.796962   -2.560053
     49          1           0      -16.873963    1.652829   -4.382632
     50          1           0      -18.997479    2.542512   -2.468207
     51          1           0      -18.987810    0.789122   -2.831245
     52          1           0      -19.180280    1.904869   -4.153609
     53          1           0      -14.673654    2.350836   -3.763948
     54          1           0      -14.344848    3.635575   -2.533579
     55          1           0      -16.108944    4.695957   -4.495862
     56          1           0      -15.101711    3.605284   -5.369800
     57          1           0      -16.552524   -2.593026   -5.170054
     58          1           0      -16.902679   -4.245559   -4.834587
     59          1           0      -15.202464   -3.786235   -5.109557
     60          1           0      -15.961974   -6.157169   -4.143493
     61          1           0      -14.746230   -7.300542   -3.341534
     62          1           0      -14.285765   -5.699473   -3.979874
     63          1           0      -15.506127   -4.819261    2.975110
     64          1           0      -16.995900   -2.845504    4.634280
     65          1           0      -17.440058   -5.917317    3.374576
     66          1           0      -18.261135   -4.723959    2.311343
     67          1           0      -18.208761   -4.459658    3.976989
     68          1           0      -15.031317   -4.193104    5.466568
     69          1           0      -14.975281   -2.478966    5.862088
     70          1           0      -13.492309   -4.095240    3.929438
     71          1           0      -12.838658   -2.863327    5.061614
     72          1           0      -13.661407   -2.399144    3.505231
     73          1           0      -15.470411    3.254769    5.139974
     74          1           0      -15.989406    1.588879    5.581019
     75          1           0      -17.217185    2.753590    4.931736
     76          1           0      -17.074840    4.641747    0.179466
     77          1           0      -14.908521    8.069496   -1.296033
     78          1           0      -14.623788    6.817174   -2.648937
     79          1           0      -13.610897    7.004543   -1.205097
     80         12           0       15.963030   -0.802612   -0.019317
     81          6           0       15.766433    2.737504    0.535630
     82          6           0       15.068779   -0.194313   -3.254262
     83          6           0       15.687903   -3.937009   -0.428335
     84          6           0       15.714452   -1.217187    3.432072
     85          7           0       15.504518    1.071855   -1.100236
     86          6           0       15.522418    2.362218   -0.801921
     87          6           0       15.343711    3.306687   -2.020772
     88          6           0       14.576591    2.291902   -3.000886
     89          6           0       15.104952    0.970411   -2.446669
     90          6           0       13.067025    2.313127   -2.827395
     91          6           0       16.715996    3.764910   -2.628136
     92          6           0       16.624360    4.926400   -3.620261
     93          1           0       17.707591    5.905344   -3.647826
     94          7           0       15.935549   -1.883041   -1.683795
     95          6           0       15.566548   -1.471600   -2.914990
     96          6           0       15.704151   -2.646302   -3.789796
     97          6           0       16.026578   -3.826714   -2.942807
     98          6           0       15.871969   -3.252903   -1.621097
     99          6           0       15.610124   -2.562389   -5.285633
    100          6           0       16.398435   -5.241600   -3.268437
    101          8           0       16.402704   -6.159589   -2.373953
    102          6           0       16.666715   -5.540010   -4.682814
    103          7           0       15.522235   -2.361287    1.283975
    104          6           0       15.517785   -3.637105    0.859468
    105          6           0       15.448227   -4.598536    2.021883
    106          6           0       15.651644   -3.704124    3.331939
    107          6           0       15.717375   -2.307024    2.676817
    108          6           0       14.151170   -5.397390    2.147735
    109          6           0       16.793386   -4.121578    4.298794
    110          6           0       18.135101   -3.907612    3.635913
    111          7           0       15.959673    0.496510    1.707048
    112          6           0       15.818949    0.116968    3.059907
    113          6           0       15.761485    1.359480    3.856949
    114          6           0       15.850333    2.384197    2.902717
    115          6           0       15.935391    1.820385    1.601037
    116          6           0       15.594444    1.435353    5.268499
    117          6           0       15.880804    3.814783    2.699749
    118          8           0       15.928725    4.796362    3.439974
    119          6           0       15.700475    4.109010    1.148202
    120          6           0       16.747009    5.109529    0.740473
    121          8           0       17.953911    4.811535    0.775316
    122          8           0       16.144822    6.170834    0.173577
    123          6           0       17.142451    7.186060   -0.257558
    124          1           0       14.574870   -0.137641   -4.224689
    125          1           0       15.697468   -5.026842   -0.503530
    126          1           0       15.736093   -1.262904    4.522998
    127          1           0       14.728891    4.178836   -1.833342
    128          1           0       14.891096    2.425612   -4.032664
    129          1           0       12.766430    2.923144   -1.988549
    130          1           0       12.774467    1.283184   -2.670303
    131          1           0       12.584928    2.624707   -3.758429
    132          1           0       17.093319    2.978263   -3.294123
    133          1           0       17.414492    4.007676   -1.851088
    134          1           0       15.651500    5.430876   -3.575593
    135          1           0       16.669861    4.521212   -4.634061
    136          1           0       15.201955   -1.597034   -5.609498
    137          1           0       14.858501   -3.294424   -5.600346
    138          1           0       16.556102   -2.792020   -5.780677
    139          1           0       15.788918   -5.295600   -5.276280
    140          1           0       17.002530   -6.578600   -4.703754
    141          1           0       17.474137   -4.886332   -5.031233
    142          1           0       16.246024   -5.329080    1.967788
    143          1           0       14.757029   -3.709364    3.971830
    144          1           0       14.311217   -6.492129    2.149345
    145          1           0       13.493594   -5.110417    1.337933
    146          1           0       13.550319   -5.167108    3.025886
    147          1           0       16.726103   -5.188342    4.526071
    148          1           0       16.775324   -3.589192    5.243907
    149          1           0       18.261541   -4.814108    3.036446
    150          1           0       18.921041   -3.815512    4.382810
    151          1           0       18.101500   -3.057396    2.944787
    152          1           0       16.289034    2.184614    5.624380
    153          1           0       15.770738    0.471809    5.742075
    154          1           0       14.544376    1.734417    5.324830
    155          1           0       14.689548    4.491649    1.002659
    156          1           0       16.863069    8.130910    0.218767
    157          1           0       17.137702    7.158718   -1.363447
    158          1           0       18.161645    7.066752    0.090967
 ---------------------------------------------------------------------

 SCF Done:  E(RCAM-B3LYP) =  -4069.81176097     A.U. after   19 cycles

 Excitation energies and oscillator strengths:

 Excited State   1:      Singlet-A      1.6753 eV  740.07 nm  f=0.2157  <S**2>=0.000
     310 -> 316        0.16867
     311 -> 314       -0.16116
     312 -> 313        0.66686
     310 <- 316        0.10168
 This state for optimization and/or second-order correction.
 Total Energy, E(TD-HF/TD-DFT) =  -4069.75019435
 Copying the excited state density for this state as the 1-particle RhoCI density.

 Excited State   2:      Singlet-A      1.6801 eV  737.96 nm  f=0.5617  <S**2>=0.000
     309 -> 315        0.17070
     311 -> 314        0.66649
     312 -> 313        0.16111
     309 <- 315        0.10220

 Excited State   3:      Singlet-A      2.1861 eV  567.16 nm  f=0.0952  <S**2>=0.000
     310 -> 313        0.64210
     312 -> 316       -0.27292

 Excited State   4:      Singlet-A      2.1925 eV  565.48 nm  f=0.1050  <S**2>=0.000
     309 -> 314        0.64032
     311 -> 315       -0.27814

 Excited State   5:      Singlet-A      3.0659 eV  404.40 nm  f=0.0000  <S**2>=0.000
     311 -> 313        0.70711

 The electronic state is 1-A.
 Alpha  occ. eigenvalues --  -46.87796 -46.87660 -19.26347 -19.26284 -19.19159
 Alpha  occ. eigenvalues --  -19.19020 -19.18815 -19.18715 -19.18168 -19.18049
 Alpha  occ. eigenvalues --  -14.42497 -14.42450 -14.41449 -14.41359 -14.39402
 Alpha  occ. eigenvalues --  -14.39352 -14.38599 -14.38586 -10.39088 -10.39079
 Alpha  occ. eigenvalues --  -10.35449 -10.35393 -10.34389 -10.34227 -10.31753
 Alpha  occ. eigenvalues --  -10.31679 -10.31405 -10.31308 -10.31023 -10.30909
 Alpha  occ. eigenvalues --  -10.30569 -10.30507 -10.30397 -10.30360 -10.30206
 Alpha  occ. eigenvalues --  -10.30141 -10.29920 -10.29894 -10.29630 -10.29437
 Alpha  occ. eigenvalues --  -10.29401 -10.29254 -10.28750 -10.28718 -10.28653
 Alpha  occ. eigenvalues --  -10.28541 -10.28404 -10.28364 -10.28139 -10.28117
 Alpha  occ. eigenvalues --  -10.28000 -10.27792 -10.27727 -10.27669 -10.27584
 Alpha  occ. eigenvalues --  -10.27518 -10.27499 -10.27483 -10.27482 -10.27469
 Alpha  occ. eigenvalues --  -10.27465 -10.27448 -10.27403 -10.27376 -10.27158
 Alpha  occ. eigenvalues --  -10.27048 -10.26706 -10.26692 -10.26418 -10.26411
 Alpha  occ. eigenvalues --  -10.26235 -10.26181 -10.26138 -10.26022 -10.26018
 Alpha  occ. eigenvalues --  -10.25934 -10.25849 -10.25841 -10.25434 -10.25397
 Alpha  occ. eigenvalues --  -10.24872 -10.24832 -10.24787 -10.24732 -10.24690
 Alpha  occ. eigenvalues --  -10.24685  -3.16539  -3.16410  -1.91421  -1.91292
 Alpha  occ. eigenvalues --   -1.91007  -1.90881  -1.90849  -1.90718  -1.16641
 Alpha  occ. eigenvalues --   -1.16633  -1.08656  -1.08626  -1.07216  -1.06968
 Alpha  occ. eigenvalues --   -1.06943  -1.06642  -1.04581  -1.04495  -1.03760
 Alpha  occ. eigenvalues --   -1.03663  -1.03233  -1.03038  -1.02411  -1.02111
 Alpha  occ. eigenvalues --   -0.91986  -0.91972  -0.89518  -0.89494  -0.89188
 Alpha  occ. eigenvalues --   -0.89150  -0.88286  -0.88220  -0.87869  -0.87793
 Alpha  occ. eigenvalues --   -0.87683  -0.87673  -0.87274  -0.87121  -0.84999
 Alpha  occ. eigenvalues --   -0.84982  -0.83935  -0.83876  -0.82967  -0.82933
 Alpha  occ. eigenvalues --   -0.82652  -0.82649  -0.81595  -0.81585  -0.80596
 Alpha  occ. eigenvalues --   -0.80442  -0.78797  -0.78636  -0.77218  -0.77144
 Alpha  occ. eigenvalues --   -0.76934  -0.76897  -0.75923  -0.75837  -0.74897
 Alpha  occ. eigenvalues --   -0.74802  -0.72774  -0.72699  -0.71672  -0.71580
 Alpha  occ. eigenvalues --   -0.69906  -0.69758  -0.68873  -0.68826  -0.67641
 Alpha  occ. eigenvalues --   -0.67601  -0.67220  -0.67200  -0.65287  -0.65271
 Alpha  occ. eigenvalues --   -0.64853  -0.64770  -0.64653  -0.64620  -0.64268
 Alpha  occ. eigenvalues --   -0.64204  -0.62297  -0.62277  -0.60442  -0.60340
 Alpha  occ. eigenvalues --   -0.59804  -0.59795  -0.58992  -0.58987  -0.58503
 Alpha  occ. eigenvalues --   -0.58425  -0.57584  -0.57553  -0.57308  -0.57236
 Alpha  occ. eigenvalues --   -0.56309  -0.56204  -0.55979  -0.55885  -0.55520
 Alpha  occ. eigenvalues --   -0.55452  -0.55338  -0.55247  -0.54523  -0.54487
 Alpha  occ. eigenvalues --   -0.53911  -0.53895  -0.53298  -0.53227  -0.53222
 Alpha  occ. eigenvalues --   -0.53141  -0.52914  -0.52901  -0.52757  -0.52669
 Alpha  occ. eigenvalues --   -0.52437  -0.52401  -0.51913  -0.51883  -0.51658
 Alpha  occ. eigenvalues --   -0.51617  -0.51200  -0.51195  -0.50573  -0.50476
 Alpha  occ. eigenvalues --   -0.50030  -0.49980  -0.49919  -0.49867  -0.49515
 Alpha  occ. eigenvalues --   -0.49488  -0.49214  -0.49202  -0.49103  -0.49096
 Alpha  occ. eigenvalues --   -0.48592  -0.48557  -0.48461  -0.48445  -0.48376
 Alpha  occ. eigenvalues --   -0.48339  -0.47695  -0.47594  -0.47297  -0.47118
 Alpha  occ. eigenvalues --   -0.46796  -0.46709  -0.46556  -0.46553  -0.46358
 Alpha  occ. eigenvalues --   -0.46270  -0.46162  -0.46085  -0.45821  -0.45821
 Alpha  occ. eigenvalues --   -0.45209  -0.45200  -0.44577  -0.44513  -0.44507
 Alpha  occ. eigenvalues --   -0.44476  -0.44144  -0.44127  -0.44088  -0.44078
 Alpha  occ. eigenvalues --   -0.44019  -0.43939  -0.43552  -0.43494  -0.43385
 Alpha  occ. eigenvalues --   -0.43385  -0.43026  -0.42929  -0.42900  -0.42698
 Alpha  occ. eigenvalues --   -0.42654  -0.42554  -0.42009  -0.41964  -0.41703
 Alpha  occ. eigenvalues --   -0.41668  -0.41534  -0.41458  -0.41141  -0.40989
 Alpha  occ. eigenvalues --   -0.40869  -0.40824  -0.40723  -0.40698  -0.40570
 Alpha  occ. eigenvalues --   -0.40493  -0.40235  -0.40227  -0.39439  -0.39426
 Alpha  occ. eigenvalues --   -0.38468  -0.38350  -0.37749  -0.37653  -0.37319
 Alpha  occ. eigenvalues --   -0.37266  -0.37264  -0.37199  -0.36769  -0.36713
 Alpha  occ. eigenvalues --   -0.36216  -0.36192  -0.34285  -0.34253  -0.33860
 Alpha  occ. eigenvalues --   -0.33770  -0.33186  -0.33175  -0.31345  -0.31274
 Alpha  occ. eigenvalues --   -0.31035  -0.30973  -0.30028  -0.29954  -0.29449
 Alpha  occ. eigenvalues --   -0.29327  -0.29321  -0.29211  -0.24080  -0.24036
 Alpha  occ. eigenvalues --   -0.21127  -0.21117
 Alpha virt. eigenvalues --   -0.08792  -0.08774  -0.01749  -0.01684  -0.00058
 Alpha virt. eigenvalues --   -0.00029   0.02201   0.02208   0.03122   0.03227
 Alpha virt. eigenvalues --    0.04718   0.04730   0.05098   0.05167   0.06175

 Mulliken charges:
               1
     1  Mg   0.838724
     2  C   -0.002974
     3  C   -0.094132
     4  C   -0.045884
     5  C   -0.063954
     6  N   -0.256773
     7  C   -0.052466
     8  C   -0.014014
     9  C   -0.086993
    10  C    0.046309
    11  C    0.104811
    12  C    0.053480
    13  C   -0.071805
    14  H    0.036105
    15  N   -0.433144
    16  C    0.168430
    17  C   -0.177170
    18  C   -0.004001
    19  C    0.148716
    20  C    0.110184
    21  C    0.012277
    22  O   -0.249617
    23  C    0.062474
    24  N   -0.341161
    25  C    0.041259
    26  C   -0.028173
    27  C   -0.024001
    28  C    0.074861
    29  C    0.076178
    30  C    0.035137
    31  C   -0.004512
    32  N   -0.310467
    33  C    0.080415
    34  C   -0.169702
    35  C    0.008377
    36  C    0.083001
    37  C    0.127308
    38  C    0.046115
    39  O   -0.188418
    40  C   -0.005335
    41  C    0.212872
    42  O   -0.257101
    43  O   -0.304791
    44  C    0.157684
    45  H   -0.017615
    46  H   -0.016834
    47  H   -0.041472
    48  H    0.000940
    49  H   -0.004050
    50  H    0.025480
    51  H    0.016455
    52  H    0.016649
    53  H    0.011191
    54  H    0.044125
    55  H    0.017881
    56  H    0.017934
    57  H    0.005863
    58  H    0.026820
    59  H    0.039526
    60  H    0.037345
    61  H    0.035646
    62  H    0.031485
    63  H    0.016556
    64  H    0.009472
    65  H    0.023213
    66  H    0.012540
    67  H    0.004760
    68  H    0.006375
    69  H    0.004747
    70  H    0.008774
    71  H    0.018165
    72  H    0.028974
    73  H    0.047592
    74  H    0.009128
    75  H    0.046017
    76  H    0.035154
    77  H    0.042959
    78  H    0.046385
    79  H    0.053691
    80  Mg   0.837904
    81  C   -0.016818
    82  C   -0.087792
    83  C   -0.045528
    84  C   -0.064859
    85  N   -0.254594
    86  C   -0.049811
    87  C   -0.015108
    88  C   -0.090504
    89  C    0.045765
    90  C    0.114371
    91  C    0.062531
    92  C   -0.077907
    93  H    0.034902
    94  N   -0.423500
    95  C    0.162912
    96  C   -0.174621
    97  C   -0.007830
    98  C    0.152125
    99  C    0.099370
   100  C    0.015582
   101  O   -0.253184
   102  C    0.061188
   103  N   -0.350059
   104  C    0.037548
   105  C   -0.019865
   106  C   -0.034787
   107  C    0.088886
   108  C    0.073653
   109  C    0.034734
   110  C   -0.007678
   111  N   -0.324126
   112  C    0.078443
   113  C   -0.163122
   114  C    0.002262
   115  C    0.096211
   116  C    0.131493
   117  C    0.042405
   118  O   -0.187813
   119  C    0.000895
   120  C    0.211275
   121  O   -0.251045
   122  O   -0.305612
   123  C    0.152021
   124  H   -0.019658
   125  H   -0.015572
   126  H   -0.040430
   127  H   -0.000606
   128  H   -0.004337
   129  H    0.022511
   130  H    0.014435
   131  H    0.016292
   132  H    0.013900
   133  H    0.037681
   134  H    0.020818
   135  H    0.019579
   136  H    0.008760
   137  H    0.026133
   138  H    0.039781
   139  H    0.038248
   140  H    0.036386
   141  H    0.033892
   142  H    0.014392
   143  H    0.012454
   144  H    0.025135
   145  H    0.011654
   146  H    0.005711
   147  H    0.006268
   148  H    0.003668
   149  H    0.010925
   150  H    0.017934
   151  H    0.030095
   152  H    0.046018
   153  H    0.008516
   154  H    0.047009
   155  H    0.035085
   156  H    0.043950
   157  H    0.049490
   158  H    0.053573
 Sum of Mulliken charges =  -0.00000

 Dipole moment (field-independent basis, Debye):
    X=             -4.0486    Y=             -2.4366    Z=             -7.6915  Tot=              9.0270
 Quadrupole moment (field-independent basis, Debye-Ang):
   XX=           -516.1954   YY=           -550.8411   ZZ=           -448.0768
   XY=              7.8827   XZ=             -2.1043   YZ=            -47.7957

 Normal termination of Gaussian 16 at Sat Sep  4 16:57:17 2021.
