 Gaussian 16, Revision A.03,
 Gaussian 16:  ES64L-G16RevA.03 25-Dec-2016

 -----------------------------------
 #p cam-b3lyp/Def2SVP td=(nstates=5)
 -----------------------------------

 --------------------------------
 TDDFT excited states in gaussian
 --------------------------------
 Symbolic Z-matrix:
 Charge =  0 Multiplicity = 1

                         Standard orientation:
 ---------------------------------------------------------------------
 Center     Atomic      Atomic             Coordinates (Angstroms)
 Number     Number       Type             X           Y           Z
 ---------------------------------------------------------------------
      1         12           0        6.800326   -0.471974    0.198339
      2          6           0        6.916144    2.684105   -1.486287
      3          6           0        7.584533    1.199205    3.068051
      4          6           0        7.150376   -3.288060    1.613876
      5          6           0        7.150849   -1.983705   -2.922152
      6          7           0        7.176007    1.670218    0.611285
      7          6           0        7.130505    2.785981   -0.109946
      8          6           0        7.256937    4.081069    0.746871
      9          6           0        8.015641    3.473655    2.010760
     10          6           0        7.536838    2.035868    1.913602
     11          6           0        9.534963    3.495448    1.877770
     12          6           0        5.861442    4.669385    1.144626
     13          6           0        5.887841    6.097441    1.697175
     14          1           0        4.784950    6.991823    1.379273
     15          7           0        6.813200   -0.949559    2.115263
     16          6           0        7.142709   -0.139082    3.149592
     17          6           0        6.996011   -0.958182    4.371982
     18          6           0        6.738213   -2.363051    3.950110
     19          6           0        6.918637   -2.259928    2.524561
     20          6           0        7.054426   -0.388493    5.756103
     21          6           0        6.395564   -3.604075    4.712070
     22          8           0        6.442060   -4.764754    4.177994
     23          6           0        6.085615   -3.431908    6.142920
     24          7           0        7.326661   -2.362886   -0.512335
     25          6           0        7.347479   -3.424543    0.300952
     26          6           0        7.471895   -4.703170   -0.473369
     27          6           0        7.286950   -4.309346   -2.009745
     28          6           0        7.162804   -2.774341   -1.846596
     29          6           0        8.791994   -5.466334   -0.297501
     30          6           0        6.184889   -5.058609   -2.799988
     31          6           0        4.821685   -4.672478   -2.271146
     32          7           0        6.822795    0.189100   -1.868911
     33          6           0        7.004426   -0.609240   -3.007479
     34          6           0        7.051901    0.298473   -4.168457
     35          6           0        6.910276    1.571375   -3.619358
     36          6           0        6.808770    1.467435   -2.202607
     37          6           0        7.266873   -0.088550   -5.520653
     38          6           0        6.845810    2.996920   -3.897783
     39          8           0        6.785663    3.678549   -4.922116
     40          6           0        6.969393    3.782950   -2.518396
     41          6           0        5.885901    4.826316   -2.491171
     42          8           0        4.683129    4.498271   -2.435572
     43          8           0        6.436696    6.034189   -2.295696
     44          6           0        5.413253    7.111347   -2.228986
     45          1           0        8.055679    1.579598    3.976491
     46          1           0        7.166993   -4.288649    2.050892
     47          1           0        7.173184   -2.389618   -3.935162
     48          1           0        7.859522    4.868615    0.294006
     49          1           0        7.676859    3.923643    2.943744
     50          1           0        9.843106    3.807089    0.879848
     51          1           0        9.859039    2.473295    2.074421
     52          1           0        9.983561    4.107825    2.660413
     53          1           0        5.483802    4.139142    2.018864
     54          1           0        5.168478    4.620851    0.303929
     55          1           0        6.843369    6.583873    1.499037
     56          1           0        5.831351    6.044064    2.784447
     57          1           0        7.420688    0.637362    5.751834
     58          1           0        7.817161   -0.946979    6.298356
     59          1           0        6.099297   -0.471893    6.274856
     60          1           0        6.941136   -2.979105    6.644520
     61          1           0        5.777473   -4.412495    6.503956
     62          1           0        5.261837   -2.724591    6.243132
     63          1           0        6.692983   -5.409649   -0.189452
     64          1           0        8.194250   -4.483442   -2.588686
     65          1           0        8.662219   -6.491054    0.051515
     66          1           0        9.421785   -4.897293    0.385760
     67          1           0        9.419013   -5.506229   -1.187823
     68          1           0        6.287722   -6.134941   -2.666263
     69          1           0        6.208055   -4.853682   -3.870371
     70          1           0        4.696843   -5.333468   -1.414210
     71          1           0        4.054805   -4.859603   -3.023536
     72          1           0        4.815340   -3.648675   -1.896616
     73          1           0        6.555792    0.482019   -6.117968
     74          1           0        7.124761   -1.160882   -5.652979
     75          1           0        8.305054    0.214788   -5.654900
     76          1           0        7.964710    4.225727   -2.498002
     77          1           0        5.677584    7.852423   -2.983418
     78          1           0        5.375090    7.438599   -1.189825
     79          1           0        4.406846    6.840607   -2.550207
     80         12           0       -6.418419   -0.916631    0.047460
     81          6           0       -8.910534    1.665102    0.103363
     82          6           0       -4.072413    1.550154    0.261525
     83          6           0       -4.195093   -3.124586   -0.451709
     84          6           0       -8.841546   -3.034324   -1.290281
     85          7           0       -6.592913    1.285332    0.162214
     86          6           0       -7.593027    2.150429    0.237887
     87          6           0       -7.160434    3.607912    0.551168
     88          6           0       -5.651133    3.532839    0.007802
     89          6           0       -5.401983    2.036349    0.184256
     90          6           0       -5.525978    3.866969   -1.469371
     91          6           0       -7.202843    3.926992    2.086883
     92          6           0       -7.092497    5.412258    2.438393
     93          1           0       -7.845877    5.914172    3.584243
     94          7           0       -4.466630   -0.877508    0.404590
     95          6           0       -3.674862    0.212765    0.479896
     96          6           0       -2.318112   -0.292536    0.740774
     97          6           0       -2.345078   -1.777682    0.649538
     98          6           0       -3.695040   -1.987621    0.166200
     99          6           0       -1.174723    0.603681    1.118763
    100          6           0       -1.320676   -2.833474    0.936088
    101          8           0       -1.482263   -4.048126    0.560144
    102          6           0       -0.081219   -2.384769    1.587168
    103          7           0       -6.442047   -2.741436   -0.948455
    104          6           0       -5.353757   -3.530776   -0.971157
    105          6           0       -5.686898   -4.903975   -1.503796
    106          6           0       -7.282116   -4.949020   -1.607967
    107          6           0       -7.604473   -3.499477   -1.183349
    108          6           0       -5.078374   -5.256784   -2.860853
    109          6           0       -8.002831   -6.112177   -0.872900
    110          6           0       -7.851736   -5.949968    0.622504
    111          7           0       -8.542470   -0.805985   -0.332325
    112          6           0       -9.356183   -1.797589   -0.922813
    113          6           0      -10.706418   -1.218170   -1.076321
    114          6           0      -10.577825    0.088480   -0.581712
    115          6           0       -9.236888    0.314540   -0.169076
    116          6           0      -11.830553   -1.870539   -1.656703
    117          6           0      -11.269016    1.331420   -0.324696
    118          8           0      -12.439549    1.704394   -0.391574
    119          6           0      -10.190409    2.448938    0.013185
    120          6           0      -10.651002    3.182291    1.243038
    121          8           0      -10.721462    2.597540    2.338351
    122          8           0      -10.723065    4.497922    0.970465
    123          6           0      -11.165077    5.268882    2.162973
    124          1           0       -3.253362    2.251051    0.097892
    125          1           0       -3.493832   -3.956906   -0.546292
    126          1           0       -9.676053   -3.662808   -1.608504
    127          1           0       -7.711429    4.370681    0.014184
    128          1           0       -4.976134    4.108424    0.635846
    129          1           0       -6.491244    3.985054   -1.938907
    130          1           0       -4.987856    3.039793   -1.913507
    131          1           0       -4.890641    4.747006   -1.604279
    132          1           0       -6.283042    3.554148    2.555594
    133          1           0       -8.083935    3.513448    2.537751
    134          1           0       -7.249046    6.055526    1.563947
    135          1           0       -6.064419    5.621055    2.744104
    136          1           0       -1.416363    1.659383    0.944135
    137          1           0       -0.358358    0.392643    0.419566
    138          1           0       -0.821636    0.429136    2.137357
    139          1           0        0.400279   -1.632160    0.967338
    140          1           0        0.487889   -3.294027    1.790261
    141          1           0       -0.340113   -1.895203    2.532632
    142          1           0       -5.357593   -5.675076   -0.818182
    143          1           0       -7.619619   -5.053777   -2.649573
    144          1           0       -4.461907   -6.175201   -2.837274
    145          1           0       -4.491931   -4.413818   -3.201496
    146          1           0       -5.795668   -5.381366   -3.670275
    147          1           0       -7.539016   -7.067691   -1.129883
    148          1           0       -9.057050   -6.189969   -1.116920
    149          1           0       -6.867868   -6.386026    0.819869
    150          1           0       -8.635987   -6.491389    1.147727
    151          1           0       -7.804645   -4.890703    0.900717
    152          1           0      -12.679101   -1.652366   -1.021986
    153          1           0      -11.665575   -2.942195   -1.746750
    154          1           0      -11.860887   -1.376554   -2.631547
    155          1           0      -10.118523    3.107467   -0.853267
    156          1           0      -12.047029    5.843302    1.863154
    157          1           0      -10.278704    5.842497    2.493240
    158          1           0      -11.553613    4.709307    3.005792
 ---------------------------------------------------------------------

 SCF Done:  E(RCAM-B3LYP) =  -4069.81195723     A.U. after   19 cycles

 Excitation energies and oscillator strengths:

 Excited State   1:      Singlet-A      1.6731 eV  741.04 nm  f=0.3488  <S**2>=0.000
     310 -> 316       -0.15086
     311 -> 313        0.33549
     312 -> 314        0.59863
 This state for optimization and/or second-order correction.
 Total Energy, E(TD-HF/TD-DFT) =  -4069.75047164
 Copying the excited state density for this state as the 1-particle RhoCI density.

 Excited State   2:      Singlet-A      1.6805 eV  737.78 nm  f=0.4371  <S**2>=0.000
     309 -> 315        0.15390
     311 -> 313        0.59809
     312 -> 314       -0.33520

 Excited State   3:      Singlet-A      2.1856 eV  567.26 nm  f=0.0363  <S**2>=0.000
     309 -> 313       -0.21730
     310 -> 314        0.60533
     312 -> 316        0.25645

 Excited State   4:      Singlet-A      2.1946 eV  564.94 nm  f=0.1511  <S**2>=0.000
     309 -> 313        0.60278
     310 -> 314        0.21546
     311 -> 315       -0.26343

 Excited State   5:      Singlet-A      2.5935 eV  478.06 nm  f=0.0000  <S**2>=0.000
     312 -> 313        0.70688

 The electronic state is 1-A.
 Alpha  occ. eigenvalues --  -46.87984 -46.87535 -19.26536 -19.26269 -19.19284
 Alpha  occ. eigenvalues --  -19.19076 -19.18950 -19.18576 -19.18356 -19.17938
 Alpha  occ. eigenvalues --  -14.42636 -14.42369 -14.41611 -14.41235 -14.39585
 Alpha  occ. eigenvalues --  -14.39223 -14.38771 -14.38476 -10.39335 -10.39003
 Alpha  occ. eigenvalues --  -10.35582 -10.35252 -10.34579 -10.34117 -10.31940
 Alpha  occ. eigenvalues --  -10.31691 -10.31593 -10.31180 -10.31103 -10.30890
 Alpha  occ. eigenvalues --  -10.30751 -10.30675 -10.30350 -10.30277 -10.30233
 Alpha  occ. eigenvalues --  -10.30068 -10.30011 -10.29798 -10.29780 -10.29423
 Alpha  occ. eigenvalues --  -10.29301 -10.29271 -10.28971 -10.28817 -10.28598
 Alpha  occ. eigenvalues --  -10.28580 -10.28551 -10.28318 -10.28274 -10.28000
 Alpha  occ. eigenvalues --  -10.27966 -10.27905 -10.27871 -10.27753 -10.27650
 Alpha  occ. eigenvalues --  -10.27589 -10.27580 -10.27531 -10.27526 -10.27412
 Alpha  occ. eigenvalues --  -10.27363 -10.27360 -10.27331 -10.27271 -10.27265
 Alpha  occ. eigenvalues --  -10.26986 -10.26942 -10.26599 -10.26538 -10.26410
 Alpha  occ. eigenvalues --  -10.26264 -10.26203 -10.26172 -10.26048 -10.25986
 Alpha  occ. eigenvalues --  -10.25849 -10.25811 -10.25746 -10.25506 -10.25295
 Alpha  occ. eigenvalues --  -10.25010 -10.24945 -10.24746 -10.24658 -10.24647
 Alpha  occ. eigenvalues --  -10.24567  -3.16728  -3.16285  -1.91611  -1.91196
 Alpha  occ. eigenvalues --   -1.91167  -1.91038  -1.90756  -1.90592  -1.16886
 Alpha  occ. eigenvalues --   -1.16562  -1.08818  -1.08549  -1.07348  -1.06901
 Alpha  occ. eigenvalues --   -1.06860  -1.06828  -1.04768  -1.04366  -1.03927
 Alpha  occ. eigenvalues --   -1.03537  -1.03407  -1.02914  -1.02582  -1.01986
 Alpha  occ. eigenvalues --   -0.92158  -0.91866  -0.89640  -0.89396  -0.89380
 Alpha  occ. eigenvalues --   -0.89023  -0.88397  -0.88110  -0.88037  -0.87854
 Alpha  occ. eigenvalues --   -0.87675  -0.87557  -0.87437  -0.86970  -0.85182
 Alpha  occ. eigenvalues --   -0.84878  -0.84035  -0.83772  -0.83097  -0.82831
 Alpha  occ. eigenvalues --   -0.82794  -0.82526  -0.81787  -0.81493  -0.80780
 Alpha  occ. eigenvalues --   -0.80327  -0.78963  -0.78495  -0.77380  -0.77115
 Alpha  occ. eigenvalues --   -0.77019  -0.76790  -0.76113  -0.75713  -0.75020
 Alpha  occ. eigenvalues --   -0.74690  -0.72936  -0.72573  -0.71837  -0.71456
 Alpha  occ. eigenvalues --   -0.69978  -0.69654  -0.69062  -0.68704  -0.67814
 Alpha  occ. eigenvalues --   -0.67481  -0.67429  -0.67083  -0.65489  -0.65154
 Alpha  occ. eigenvalues --   -0.65033  -0.64793  -0.64651  -0.64539  -0.64390
 Alpha  occ. eigenvalues --   -0.64092  -0.62500  -0.62177  -0.60593  -0.60204
 Alpha  occ. eigenvalues --   -0.60001  -0.59669  -0.59154  -0.58872  -0.58673
 Alpha  occ. eigenvalues --   -0.58306  -0.57789  -0.57456  -0.57448  -0.57118
 Alpha  occ. eigenvalues --   -0.56482  -0.56199  -0.56076  -0.55783  -0.55686
 Alpha  occ. eigenvalues --   -0.55479  -0.55327  -0.55143  -0.54678  -0.54389
 Alpha  occ. eigenvalues --   -0.54106  -0.53789  -0.53456  -0.53409  -0.53105
 Alpha  occ. eigenvalues --   -0.53104  -0.53018  -0.52928  -0.52788  -0.52521
 Alpha  occ. eigenvalues --   -0.52498  -0.52303  -0.52074  -0.51819  -0.51774
 Alpha  occ. eigenvalues --   -0.51535  -0.51361  -0.51088  -0.50721  -0.50323
 Alpha  occ. eigenvalues --   -0.50150  -0.50063  -0.49845  -0.49746  -0.49695
 Alpha  occ. eigenvalues --   -0.49395  -0.49356  -0.49283  -0.49072  -0.48982
 Alpha  occ. eigenvalues --   -0.48783  -0.48609  -0.48584  -0.48438  -0.48267
 Alpha  occ. eigenvalues --   -0.48201  -0.47860  -0.47464  -0.47457  -0.46979
 Alpha  occ. eigenvalues --   -0.46953  -0.46759  -0.46590  -0.46521  -0.46430
 Alpha  occ. eigenvalues --   -0.46319  -0.46143  -0.46008  -0.45974  -0.45716
 Alpha  occ. eigenvalues --   -0.45316  -0.45095  -0.44759  -0.44664  -0.44401
 Alpha  occ. eigenvalues --   -0.44351  -0.44299  -0.44253  -0.44191  -0.44002
 Alpha  occ. eigenvalues --   -0.43960  -0.43805  -0.43685  -0.43556  -0.43454
 Alpha  occ. eigenvalues --   -0.43266  -0.43193  -0.42919  -0.42831  -0.42786
 Alpha  occ. eigenvalues --   -0.42754  -0.42437  -0.42139  -0.41875  -0.41858
 Alpha  occ. eigenvalues --   -0.41722  -0.41552  -0.41344  -0.41310  -0.41045
 Alpha  occ. eigenvalues --   -0.40981  -0.40862  -0.40683  -0.40601  -0.40576
 Alpha  occ. eigenvalues --   -0.40469  -0.40383  -0.40119  -0.39497  -0.39325
 Alpha  occ. eigenvalues --   -0.38594  -0.38241  -0.37974  -0.37549  -0.37471
 Alpha  occ. eigenvalues --   -0.37452  -0.37151  -0.37077  -0.36927  -0.36681
 Alpha  occ. eigenvalues --   -0.36365  -0.36108  -0.34463  -0.34131  -0.34020
 Alpha  occ. eigenvalues --   -0.33769  -0.33363  -0.33050  -0.31480  -0.31207
 Alpha  occ. eigenvalues --   -0.31136  -0.30847  -0.30218  -0.29845  -0.29622
 Alpha  occ. eigenvalues --   -0.29500  -0.29192  -0.29086  -0.24258  -0.23910
 Alpha  occ. eigenvalues --   -0.21298  -0.20989
 Alpha virt. eigenvalues --   -0.08946  -0.08661  -0.01916  -0.01558  -0.00227
 Alpha virt. eigenvalues --    0.00107   0.02028   0.02321   0.02777   0.03331
 Alpha virt. eigenvalues --    0.04522   0.04851   0.04853   0.05256   0.05937

 Mulliken charges:
               1
     1  Mg   0.836283
     2  C   -0.003855
     3  C   -0.094712
     4  C   -0.045388
     5  C   -0.063366
     6  N   -0.256864
     7  C   -0.052988
     8  C   -0.013754
     9  C   -0.086857
    10  C    0.045828
    11  C    0.104713
    12  C    0.053595
    13  C   -0.071564
    14  H    0.034905
    15  N   -0.433342
    16  C    0.167879
    17  C   -0.177553
    18  C   -0.004060
    19  C    0.148301
    20  C    0.110165
    21  C    0.012150
    22  O   -0.248481
    23  C    0.062640
    24  N   -0.341221
    25  C    0.041335
    26  C   -0.028352
    27  C   -0.024132
    28  C    0.074956
    29  C    0.076006
    30  C    0.034837
    31  C   -0.004290
    32  N   -0.310488
    33  C    0.080176
    34  C   -0.169511
    35  C    0.008382
    36  C    0.082445
    37  C    0.127311
    38  C    0.045850
    39  O   -0.188359
    40  C   -0.005195
    41  C    0.213209
    42  O   -0.258697
    43  O   -0.304347
    44  C    0.157800
    45  H   -0.017371
    46  H   -0.015936
    47  H   -0.040804
    48  H    0.001226
    49  H   -0.004248
    50  H    0.025668
    51  H    0.016835
    52  H    0.016946
    53  H    0.010168
    54  H    0.042783
    55  H    0.018729
    56  H    0.018089
    57  H    0.005810
    58  H    0.027432
    59  H    0.039022
    60  H    0.037546
    61  H    0.036594
    62  H    0.030585
    63  H    0.017694
    64  H    0.009620
    65  H    0.023894
    66  H    0.012340
    67  H    0.004979
    68  H    0.007139
    69  H    0.004633
    70  H    0.010537
    71  H    0.019970
    72  H    0.027009
    73  H    0.047538
    74  H    0.009678
    75  H    0.046301
    76  H    0.035530
    77  H    0.043528
    78  H    0.046315
    79  H    0.052729
    80  Mg   0.837660
    81  C   -0.016901
    82  C   -0.087808
    83  C   -0.045440
    84  C   -0.064919
    85  N   -0.254536
    86  C   -0.049979
    87  C   -0.015086
    88  C   -0.090381
    89  C    0.045456
    90  C    0.114174
    91  C    0.062603
    92  C   -0.077589
    93  H    0.034130
    94  N   -0.423633
    95  C    0.162590
    96  C   -0.173604
    97  C   -0.007819
    98  C    0.152344
    99  C    0.098705
   100  C    0.015708
   101  O   -0.253181
   102  C    0.060704
   103  N   -0.350015
   104  C    0.037683
   105  C   -0.019891
   106  C   -0.034679
   107  C    0.088741
   108  C    0.073638
   109  C    0.034809
   110  C   -0.007620
   111  N   -0.324006
   112  C    0.078202
   113  C   -0.163408
   114  C    0.002133
   115  C    0.096002
   116  C    0.131542
   117  C    0.042156
   118  O   -0.188385
   119  C    0.001001
   120  C    0.211180
   121  O   -0.251249
   122  O   -0.305554
   123  C    0.152163
   124  H   -0.017836
   125  H   -0.015663
   126  H   -0.040799
   127  H   -0.000755
   128  H   -0.004426
   129  H    0.022174
   130  H    0.015424
   131  H    0.017015
   132  H    0.013650
   133  H    0.037427
   134  H    0.020920
   135  H    0.019368
   136  H    0.009996
   137  H    0.029118
   138  H    0.038305
   139  H    0.038657
   140  H    0.037804
   141  H    0.032789
   142  H    0.014227
   143  H    0.012276
   144  H    0.024778
   145  H    0.012083
   146  H    0.005558
   147  H    0.006009
   148  H    0.003465
   149  H    0.010864
   150  H    0.017626
   151  H    0.030187
   152  H    0.045658
   153  H    0.008266
   154  H    0.046805
   155  H    0.035029
   156  H    0.043724
   157  H    0.049393
   158  H    0.053342
 Sum of Mulliken charges =  -0.00000

 Dipole moment (field-independent basis, Debye):
    X=              6.1455    Y=              2.3593    Z=              3.2905  Tot=              7.3594
 Quadrupole moment (field-independent basis, Debye-Ang):
   XX=           -559.0505   YY=           -480.3318   ZZ=           -506.4320
   XY=             17.0600   XZ=             38.6953   YZ=             47.4630

 Normal termination of Gaussian 16 at Sat Sep 11 17:34:19 2021.
