 Gaussian 16, Revision A.03,
 Gaussian 16:  ES64L-G16RevA.03 25-Dec-2016

 -----------------------------------
 #p cam-b3lyp/Def2SVP td=(nstates=5)
 -----------------------------------

 --------------------------------
 TDDFT excited states in gaussian
 --------------------------------
 Symbolic Z-matrix:
 Charge =  0 Multiplicity = 1

                         Standard orientation:
 ---------------------------------------------------------------------
 Center     Atomic      Atomic             Coordinates (Angstroms)
 Number     Number       Type             X           Y           Z
 ---------------------------------------------------------------------
      1         12           0        4.906482   -1.236879    0.459061
      2          6           0        5.575908    1.958963   -1.007459
      3          6           0        5.694033    0.148745    3.476158
      4          6           0        4.763618   -4.147230    1.710487
      5          6           0        5.280339   -2.610277   -2.722082
      6          7           0        5.538049    0.805727    1.033109
      7          6           0        5.698698    1.954524    0.383781
      8          6           0        5.935686    3.170394    1.328700
      9          6           0        6.508182    2.394557    2.598473
     10          6           0        5.846932    1.045565    2.377356
     11          6           0        8.022007    2.210345    2.568402
     12          6           0        4.607368    3.925961    1.669906
     13          6           0        4.786346    5.303913    2.313776
     14          1           0        3.842175    6.360089    1.981539
     15          7           0        4.711044   -1.815430    2.337872
     16          6           0        5.069493   -1.116815    3.441836
     17          6           0        4.721867   -1.972725    4.596504
     18          6           0        4.307682   -3.302441    4.068868
     19          6           0        4.606447   -3.148001    2.668059
     20          6           0        4.753629   -1.493235    6.015246
     21          6           0        3.743505   -4.522876    4.724898
     22          8           0        3.671516   -5.647721    4.121478
     23          6           0        3.353820   -4.387287    6.140102
     24          7           0        5.222422   -3.141284   -0.335330
     25          6           0        5.037867   -4.238153    0.407503
     26          6           0        5.044764   -5.477419   -0.437548
     27          6           0        5.030394   -4.978316   -1.954269
     28          6           0        5.104285   -3.452278   -1.701245
     29          6           0        6.231967   -6.426575   -0.223857
     30          6           0        3.898836   -5.521420   -2.862582
     31          6           0        2.565132   -4.977415   -2.401722
     32          7           0        5.173016   -0.473680   -1.555271
     33          6           0        5.328957   -1.226272   -2.728285
     34          6           0        5.586022   -0.272197   -3.822692
     35          6           0        5.578172    0.976111   -3.203409
     36          6           0        5.357914    0.810281   -1.806169
     37          6           0        5.846789   -0.611171   -5.179722
     38          6           0        5.729128    2.409662   -3.393147
     39          8           0        5.838922    3.147858   -4.373201
     40          6           0        5.855039    3.094153   -1.960860
     41          6           0        4.924505    4.276066   -1.938571
     42          8           0        3.687537    4.117352   -1.984243
     43          8           0        5.618267    5.382302   -1.629576
     44          6           0        4.748701    6.587049   -1.561804
     45          1           0        6.143328    0.409183    4.436495
     46          1           0        4.611328   -5.162606    2.082316
     47          1           0        5.322892   -2.959426   -3.755395
     48          1           0        6.671895    3.889203    0.968516
     49          1           0        6.164986    2.836013    3.533917
     50          1           0        8.443350    2.529689    1.615296
     51          1           0        8.188478    1.143660    2.719936
     52          1           0        8.489968    2.710153    3.416919
     53          1           0        4.096886    3.406996    2.481167
     54          1           0        3.979006    4.021008    0.783648
     55          1           0        5.811251    5.661652    2.211291
     56          1           0        4.642051    5.199736    3.389195
     57          1           0        5.255267   -0.530174    6.101374
     58          1           0        5.390675   -2.181890    6.569896
     59          1           0        3.759969   -1.470080    6.462945
     60          1           0        4.223076   -4.086954    6.725544
     61          1           0        2.889099   -5.333212    6.415986
     62          1           0        2.628708   -3.577994    6.230688
     63          1           0        4.158008   -6.082145   -0.252083
     64          1           0        5.946287   -5.246045   -2.481653
     65          1           0        5.938351   -7.440481    0.049070
     66          1           0        6.880461   -5.989591    0.534952
     67          1           0        6.912486   -6.505345   -1.071269
     68          1           0        3.844078   -6.607215   -2.791892
     69          1           0        4.029557   -5.263667   -3.913642
     70          1           0        2.287901   -5.660138   -1.599310
     71          1           0        1.838307   -5.013837   -3.213885
     72          1           0        2.670095   -3.984811   -1.963308
     73          1           0        5.266529    0.085192   -5.784987
     74          1           0        5.570474   -1.644154   -5.389958
     75          1           0        6.923676   -0.449516   -5.224885
     76          1           0        6.896987    3.391231   -1.845918
     77          1           0        5.166964    7.323796   -2.247728
     78          1           0        4.677861    6.859224   -0.508567
     79          1           0        3.741665    6.478019   -1.965945
     80         12           0       -5.586563   -0.093578   -0.397502
     81          6           0       -2.981750    2.363071   -0.154832
     82          6           0       -7.329416    1.746259    1.885491
     83          6           0       -7.694991   -2.459917   -0.247897
     84          6           0       -3.218296   -2.270002   -1.739222
     85          7           0       -5.111793    1.792704    0.655499
     86          6           0       -4.118963    2.668757    0.621542
     87          6           0       -4.392388    3.981396    1.403697
     88          6           0       -5.492350    3.423735    2.432283
     89          6           0       -6.042806    2.268314    1.598809
     90          6           0       -4.890636    2.850628    3.704614
     91          6           0       -4.982495    5.110834    0.488188
     92          6           0       -4.984575    6.508415    1.111502
     93          1           0       -4.745095    7.658033    0.243457
     94          7           0       -7.456192   -0.107648    0.267971
     95          6           0       -8.002196    0.725672    1.178318
     96          6           0       -9.397426    0.287767    1.338762
     97          6           0       -9.584187   -0.973947    0.572021
     98          6           0       -8.217109   -1.246531    0.175949
     99          6           0      -10.419987    1.088158    2.091868
    100          6           0      -10.791330   -1.805320    0.259228
    101          8           0      -10.687581   -2.988972   -0.221411
    102          6           0      -12.095233   -1.229322    0.619174
    103          7           0       -5.432285   -2.141881   -0.718398
    104          6           0       -6.513421   -2.937397   -0.639328
    105          6           0       -6.215954   -4.317034   -1.176451
    106          6           0       -4.773388   -4.210695   -1.858557
    107          6           0       -4.433110   -2.746495   -1.503970
    108          6           0       -6.209046   -5.445186   -0.145135
    109          6           0       -4.661775   -4.657019   -3.342137
    110          6           0       -5.430815   -3.702914   -4.227386
    111          7           0       -3.529966    0.051948   -1.043498
    112          6           0       -2.719398   -0.987552   -1.549955
    113          6           0       -1.365016   -0.429534   -1.741535
    114          6           0       -1.476827    0.900183   -1.308144
    115          6           0       -2.801879    1.147356   -0.857985
    116          6           0       -0.228396   -1.146848   -2.210242
    117          6           0       -0.772500    2.147942   -1.119165
    118          8           0        0.350405    2.563202   -1.402691
    119          6           0       -1.682845    3.114858   -0.245817
    120          6           0       -1.699193    4.463843   -0.911013
    121          8           0       -2.221973    4.610541   -2.029852
    122          8           0       -1.292509    5.395017   -0.029038
    123          6           0       -1.302297    6.751382   -0.638944
    124          1           0       -7.859233    2.123560    2.760611
    125          1           0       -8.410863   -3.282032   -0.319456
    126          1           0       -2.448855   -2.857039   -2.245204
    127          1           0       -3.540307    4.372634    1.946516
    128          1           0       -6.267797    4.161873    2.619882
    129          1           0       -3.812820    2.805245    3.655655
    130          1           0       -5.306979    1.856848    3.805220
    131          1           0       -5.241229    3.413723    4.574289
    132          1           0       -6.062986    4.953276    0.376587
    133          1           0       -4.476973    5.137696   -0.457509
    134          1           0       -4.350125    6.562395    2.004534
    135          1           0       -5.989750    6.720926    1.483609
    136          1           0       -9.951424    1.883396    2.684698
    137          1           0      -10.863917    0.419404    2.837216
    138          1           0      -11.212163    1.473444    1.446361
    139          1           0      -12.116811   -1.023514    1.686710
    140          1           0      -12.839874   -1.930269    0.236996
    141          1           0      -12.204121   -0.264959    0.110482
    142          1           0       -6.940277   -4.603494   -1.929044
    143          1           0       -4.031902   -4.839163   -1.343716
    144          1           0       -6.917273   -6.260524   -0.385395
    145          1           0       -6.431589   -5.021862    0.825327
    146          1           0       -5.239681   -5.911322    0.022921
    147          1           0       -5.117433   -5.641082   -3.476869
    148          1           0       -3.638813   -4.724469   -3.697115
    149          1           0       -6.457983   -4.072775   -4.155097
    150          1           0       -5.065113   -3.751016   -5.251095
    151          1           0       -5.416689   -2.686722   -3.816520
    152          1           0        0.273672   -0.504426   -2.921378
    153          1           0       -0.514752   -2.094211   -2.662210
    154          1           0        0.314299   -1.287262   -1.271607
    155          1           0       -1.250400    3.156935    0.754586
    156          1           0       -0.295990    7.163854   -0.516869
    157          1           0       -2.131994    7.293782   -0.147863
    158          1           0       -1.428842    6.816945   -1.713256
 ---------------------------------------------------------------------

 SCF Done:  E(RCAM-B3LYP) =  -4069.80798617     A.U. after   19 cycles

 Excitation energies and oscillator strengths:

 Excited State   1:      Singlet-A      1.6601 eV  746.86 nm  f=0.2567  <S**2>=0.000
     309 -> 315        0.12677
     310 -> 316       -0.11241
     311 -> 313        0.51329
     312 -> 314       -0.45620
 This state for optimization and/or second-order correction.
 Total Energy, E(TD-HF/TD-DFT) =  -4069.74697929
 Copying the excited state density for this state as the 1-particle RhoCI density.

 Excited State   2:      Singlet-A      1.6935 eV  732.12 nm  f=0.5203  <S**2>=0.000
     309 -> 315        0.11767
     310 -> 316        0.13269
     311 -> 313        0.45500
     312 -> 314        0.51174

 Excited State   3:      Singlet-A      2.1812 eV  568.41 nm  f=0.0007  <S**2>=0.000
     309 -> 313       -0.45001
     310 -> 314        0.46092
     311 -> 315        0.18872
     312 -> 316       -0.19288

 Excited State   4:      Singlet-A      2.1942 eV  565.06 nm  f=0.1749  <S**2>=0.000
     309 -> 313        0.45728
     310 -> 314        0.44584
     311 -> 315       -0.19928
     312 -> 316       -0.19649

 Excited State   5:      Singlet-A      2.4618 eV  503.64 nm  f=0.0000  <S**2>=0.000
     312 -> 313        0.70557

 The electronic state is 1-A.
 Alpha  occ. eigenvalues --  -46.87452 -46.87445 -19.26043 -19.25612 -19.18803
 Alpha  occ. eigenvalues --  -19.18561 -19.18519 -19.18136 -19.17720 -19.17505
 Alpha  occ. eigenvalues --  -14.42301 -14.42097 -14.41142 -14.41133 -14.39133
 Alpha  occ. eigenvalues --  -14.39071 -14.38362 -14.38206 -10.38754 -10.38246
 Alpha  occ. eigenvalues --  -10.35201 -10.35201 -10.33925 -10.33696 -10.31538
 Alpha  occ. eigenvalues --  -10.31178 -10.31082 -10.31023 -10.30828 -10.30534
 Alpha  occ. eigenvalues --  -10.30198 -10.30168 -10.30159 -10.30110 -10.29962
 Alpha  occ. eigenvalues --  -10.29952 -10.29664 -10.29607 -10.29287 -10.29242
 Alpha  occ. eigenvalues --  -10.29159 -10.28951 -10.28563 -10.28540 -10.28346
 Alpha  occ. eigenvalues --  -10.28174 -10.28164 -10.27989 -10.27979 -10.27757
 Alpha  occ. eigenvalues --  -10.27737 -10.27470 -10.27443 -10.27398 -10.27346
 Alpha  occ. eigenvalues --  -10.27336 -10.27291 -10.27262 -10.27262 -10.27254
 Alpha  occ. eigenvalues --  -10.27233 -10.27232 -10.27194 -10.27014 -10.26712
 Alpha  occ. eigenvalues --  -10.26638 -10.26538 -10.26259 -10.26220 -10.26199
 Alpha  occ. eigenvalues --  -10.26128 -10.25994 -10.25926 -10.25924 -10.25727
 Alpha  occ. eigenvalues --  -10.25724 -10.25608 -10.25531 -10.25262 -10.25226
 Alpha  occ. eigenvalues --  -10.24735 -10.24607 -10.24584 -10.24466 -10.24465
 Alpha  occ. eigenvalues --  -10.24456  -3.16195  -3.16190  -1.91078  -1.91072
 Alpha  occ. eigenvalues --   -1.90666  -1.90659  -1.90502  -1.90501  -1.16322
 Alpha  occ. eigenvalues --   -1.15934  -1.08149  -1.08106  -1.06969  -1.06776
 Alpha  occ. eigenvalues --   -1.06581  -1.05800  -1.04287  -1.04217  -1.03446
 Alpha  occ. eigenvalues --   -1.03438  -1.02891  -1.02816  -1.02067  -1.01884
 Alpha  occ. eigenvalues --   -0.91722  -0.91558  -0.89288  -0.89284  -0.88990
 Alpha  occ. eigenvalues --   -0.88808  -0.88049  -0.88027  -0.87547  -0.87525
 Alpha  occ. eigenvalues --   -0.87482  -0.87330  -0.86983  -0.86915  -0.84820
 Alpha  occ. eigenvalues --   -0.84620  -0.83730  -0.83683  -0.82746  -0.82731
 Alpha  occ. eigenvalues --   -0.82464  -0.82298  -0.81350  -0.81157  -0.80220
 Alpha  occ. eigenvalues --   -0.80217  -0.78485  -0.78416  -0.76962  -0.76937
 Alpha  occ. eigenvalues --   -0.76703  -0.76583  -0.75632  -0.75544  -0.74634
 Alpha  occ. eigenvalues --   -0.74603  -0.72477  -0.72451  -0.71374  -0.71341
 Alpha  occ. eigenvalues --   -0.69755  -0.69585  -0.68637  -0.68528  -0.67362
 Alpha  occ. eigenvalues --   -0.67301  -0.67020  -0.66849  -0.65072  -0.64908
 Alpha  occ. eigenvalues --   -0.64555  -0.64507  -0.64437  -0.64262  -0.63999
 Alpha  occ. eigenvalues --   -0.63997  -0.62021  -0.61822  -0.60160  -0.60129
 Alpha  occ. eigenvalues --   -0.59608  -0.59436  -0.58764  -0.58645  -0.58179
 Alpha  occ. eigenvalues --   -0.58145  -0.57236  -0.57149  -0.56999  -0.56895
 Alpha  occ. eigenvalues --   -0.55979  -0.55975  -0.55642  -0.55485  -0.55236
 Alpha  occ. eigenvalues --   -0.55214  -0.55032  -0.55019  -0.54251  -0.54104
 Alpha  occ. eigenvalues --   -0.53739  -0.53507  -0.53016  -0.53002  -0.52930
 Alpha  occ. eigenvalues --   -0.52870  -0.52671  -0.52525  -0.52492  -0.52471
 Alpha  occ. eigenvalues --   -0.52214  -0.52167  -0.51640  -0.51555  -0.51472
 Alpha  occ. eigenvalues --   -0.51242  -0.50913  -0.50843  -0.50338  -0.50299
 Alpha  occ. eigenvalues --   -0.49841  -0.49801  -0.49671  -0.49623  -0.49295
 Alpha  occ. eigenvalues --   -0.49164  -0.48983  -0.48850  -0.48812  -0.48742
 Alpha  occ. eigenvalues --   -0.48320  -0.48256  -0.48165  -0.48136  -0.48082
 Alpha  occ. eigenvalues --   -0.47982  -0.47378  -0.47364  -0.46975  -0.46915
 Alpha  occ. eigenvalues --   -0.46509  -0.46496  -0.46375  -0.46175  -0.46059
 Alpha  occ. eigenvalues --   -0.46046  -0.45864  -0.45770  -0.45563  -0.45416
 Alpha  occ. eigenvalues --   -0.45009  -0.44953  -0.44323  -0.44254  -0.44222
 Alpha  occ. eigenvalues --   -0.44183  -0.43906  -0.43892  -0.43871  -0.43753
 Alpha  occ. eigenvalues --   -0.43662  -0.43619  -0.43327  -0.43166  -0.43094
 Alpha  occ. eigenvalues --   -0.43064  -0.42692  -0.42691  -0.42612  -0.42494
 Alpha  occ. eigenvalues --   -0.42364  -0.42081  -0.41772  -0.41726  -0.41346
 Alpha  occ. eigenvalues --   -0.41333  -0.41277  -0.41186  -0.40815  -0.40768
 Alpha  occ. eigenvalues --   -0.40588  -0.40557  -0.40545  -0.40530  -0.40295
 Alpha  occ. eigenvalues --   -0.40287  -0.40073  -0.39834  -0.39317  -0.39255
 Alpha  occ. eigenvalues --   -0.38231  -0.38172  -0.37486  -0.37374  -0.37071
 Alpha  occ. eigenvalues --   -0.37048  -0.36998  -0.36876  -0.36483  -0.36233
 Alpha  occ. eigenvalues --   -0.35982  -0.35623  -0.34024  -0.33930  -0.33531
 Alpha  occ. eigenvalues --   -0.33054  -0.32944  -0.32703  -0.31090  -0.31080
 Alpha  occ. eigenvalues --   -0.30756  -0.30665  -0.29567  -0.29398  -0.29126
 Alpha  occ. eigenvalues --   -0.29095  -0.28944  -0.28921  -0.23817  -0.23717
 Alpha  occ. eigenvalues --   -0.20897  -0.20793
 Alpha virt. eigenvalues --   -0.08553  -0.08431  -0.01479  -0.01430   0.00195
 Alpha virt. eigenvalues --    0.00270   0.02467   0.02587   0.03258   0.03454
 Alpha virt. eigenvalues --    0.04910   0.05054   0.05523   0.05836   0.06315

 Mulliken charges:
               1
     1  Mg   0.837152
     2  C    0.005045
     3  C   -0.094230
     4  C   -0.046951
     5  C   -0.065347
     6  N   -0.256242
     7  C   -0.051162
     8  C   -0.015068
     9  C   -0.087013
    10  C    0.046486
    11  C    0.105119
    12  C    0.052861
    13  C   -0.070134
    14  H    0.033921
    15  N   -0.432876
    16  C    0.167977
    17  C   -0.177909
    18  C   -0.004972
    19  C    0.148228
    20  C    0.110504
    21  C    0.011442
    22  O   -0.251031
    23  C    0.062842
    24  N   -0.340856
    25  C    0.040413
    26  C   -0.027832
    27  C   -0.024079
    28  C    0.074869
    29  C    0.076472
    30  C    0.035800
    31  C   -0.006017
    32  N   -0.311709
    33  C    0.081523
    34  C   -0.170035
    35  C    0.008527
    36  C    0.088244
    37  C    0.126878
    38  C    0.051094
    39  O   -0.187834
    40  C   -0.007522
    41  C    0.207370
    42  O   -0.239823
    43  O   -0.307237
    44  C    0.158834
    45  H   -0.018611
    46  H   -0.018247
    47  H   -0.042947
    48  H    0.000352
    49  H   -0.005065
    50  H    0.025222
    51  H    0.015855
    52  H    0.015507
    53  H    0.010105
    54  H    0.053378
    55  H    0.016600
    56  H    0.016001
    57  H    0.005328
    58  H    0.025864
    59  H    0.038160
    60  H    0.037068
    61  H    0.034541
    62  H    0.030865
    63  H    0.015078
    64  H    0.009289
    65  H    0.022309
    66  H    0.012798
    67  H    0.004223
    68  H    0.005753
    69  H    0.004705
    70  H    0.008176
    71  H    0.015131
    72  H    0.030195
    73  H    0.048762
    74  H    0.007820
    75  H    0.045407
    76  H    0.033272
    77  H    0.040517
    78  H    0.043756
    79  H    0.054396
    80  Mg   0.837125
    81  C   -0.016703
    82  C   -0.087980
    83  C   -0.045799
    84  C   -0.065419
    85  N   -0.254139
    86  C   -0.050341
    87  C   -0.014622
    88  C   -0.090361
    89  C    0.045126
    90  C    0.114674
    91  C    0.062698
    92  C   -0.077337
    93  H    0.034592
    94  N   -0.423311
    95  C    0.162299
    96  C   -0.175211
    97  C   -0.008323
    98  C    0.151752
    99  C    0.099628
   100  C    0.015179
   101  O   -0.253800
   102  C    0.061352
   103  N   -0.350182
   104  C    0.037205
   105  C   -0.019646
   106  C   -0.034844
   107  C    0.089333
   108  C    0.073722
   109  C    0.034855
   110  C   -0.007545
   111  N   -0.324430
   112  C    0.079378
   113  C   -0.165711
   114  C    0.004908
   115  C    0.096261
   116  C    0.129834
   117  C    0.037685
   118  O   -0.168645
   119  C    0.000191
   120  C    0.215720
   121  O   -0.250808
   122  O   -0.306597
   123  C    0.153468
   124  H   -0.020587
   125  H   -0.016141
   126  H   -0.040830
   127  H   -0.001505
   128  H   -0.004861
   129  H    0.021422
   130  H    0.014301
   131  H    0.015203
   132  H    0.013854
   133  H    0.038353
   134  H    0.019805
   135  H    0.019150
   136  H    0.008115
   137  H    0.025370
   138  H    0.039187
   139  H    0.037894
   140  H    0.035831
   141  H    0.033690
   142  H    0.013988
   143  H    0.012615
   144  H    0.024616
   145  H    0.011499
   146  H    0.005785
   147  H    0.005801
   148  H    0.003030
   149  H    0.010787
   150  H    0.017521
   151  H    0.030587
   152  H    0.052069
   153  H    0.008265
   154  H    0.045914
   155  H    0.033098
   156  H    0.041168
   157  H    0.047735
   158  H    0.054751
 Sum of Mulliken charges =  -0.00000

 Dipole moment (field-independent basis, Debye):
    X=             -0.6435    Y=              1.4626    Z=              7.0341  Tot=              7.2133
 Quadrupole moment (field-independent basis, Debye-Ang):
   XX=           -490.7949   YY=           -491.5894   ZZ=           -498.6345
   XY=            -28.6776   XZ=              3.0454   YZ=             53.4034

 Normal termination of Gaussian 16 at Fri Sep 10 19:39:26 2021.
