 Gaussian 16, Revision A.03,
 Gaussian 16:  ES64L-G16RevA.03 25-Dec-2016

 -----------------------------------
 #p cam-b3lyp/Def2SVP td=(nstates=5)
 -----------------------------------

 --------------------------------
 TDDFT excited states in gaussian
 --------------------------------
 Symbolic Z-matrix:
 Charge =  0 Multiplicity = 1

                         Standard orientation:
 ---------------------------------------------------------------------
 Center     Atomic      Atomic             Coordinates (Angstroms)
 Number     Number       Type             X           Y           Z
 ---------------------------------------------------------------------
      1         12           0        3.987508    0.416426    1.322312
      2          6           0        4.752892   -2.557615   -0.516568
      3          6           0        5.696437    2.154270   -1.065684
      4          6           0        3.716475    2.989687    3.155749
      5          6           0        3.351516   -1.625574    4.073932
      6          7           0        5.044491   -0.231620   -0.511664
      7          6           0        5.212933   -1.393262   -1.135672
      8          6           0        5.857921   -1.248869   -2.546528
      9          6           0        6.600975    0.146847   -2.341971
     10          6           0        5.708226    0.742116   -1.267457
     11          6           0        8.014347    0.008798   -1.785352
     12          6           0        4.785815   -1.165721   -3.684687
     13          6           0        5.325692   -1.351652   -5.105714
     14          1           0        4.500870   -2.045943   -6.082943
     15          7           0        4.175869    2.332038    0.877565
     16          6           0        4.897602    2.859989   -0.140106
     17          6           0        4.719454    4.325127   -0.048926
     18          6           0        3.990483    4.616977    1.216585
     19          6           0        3.954372    3.309881    1.821213
     20          6           0        5.172822    5.276931   -1.113011
     21          6           0        3.426588    5.876257    1.794832
     22          8           0        3.037613    5.951958    3.010374
     23          6           0        3.423382    7.059173    0.915207
     24          7           0        3.804032    0.677236    3.385308
     25          6           0        3.643682    1.894735    3.915372
     26          6           0        3.253183    1.813607    5.361355
     27          6           0        2.941250    0.274280    5.649321
     28          6           0        3.306678   -0.304445    4.260145
     29          6           0        4.297649    2.319288    6.366037
     30          6           0        1.551536   -0.061918    6.246049
     31          6           0        0.471589    0.231911    5.228957
     32          7           0        3.861867   -1.718489    1.692982
     33          6           0        3.607189   -2.347621    2.920176
     34          6           0        3.728472   -3.799679    2.694592
     35          6           0        4.063743   -3.914366    1.346896
     36          6           0        4.172377   -2.615190    0.773632
     37          6           0        3.591686   -4.811307    3.685719
     38          6           0        4.379625   -4.831355    0.263749
     39          8           0        4.355309   -6.055599    0.129111
     40          6           0        4.957647   -3.986140   -0.955813
     41          6           0        4.252472   -4.446403   -2.202486
     42          8           0        3.033186   -4.234452   -2.363058
     43          8           0        5.161063   -4.847096   -3.104955
     44          6           0        4.528934   -5.288876   -4.376724
     45          1           0        6.402986    2.772921   -1.622461
     46          1           0        3.507889    3.846586    3.799685
     47          1           0        3.084193   -2.327828    4.865659
     48          1           0        6.583087   -2.023610   -2.796199
     49          1           0        6.570471    0.759935   -3.242479
     50          1           0        8.231094   -1.020317   -1.499230
     51          1           0        8.048682    0.661749   -0.913017
     52          1           0        8.747614    0.407322   -2.486975
     53          1           0        4.418379   -0.142179   -3.758263
     54          1           0        3.980272   -1.879505   -3.508794
     55          1           0        6.335767   -1.762257   -5.097786
     56          1           0        5.437024   -0.367198   -5.560307
     57          1           0        5.820765    4.787137   -1.838832
     58          1           0        5.814515    6.013121   -0.629313
     59          1           0        4.335788    5.780341   -1.597041
     60          1           0        4.445454    7.282235    0.608350
     61          1           0        2.902683    7.841877    1.465750
     62          1           0        2.874938    6.819873    0.003674
     63          1           0        2.358199    2.402357    5.558346
     64          1           0        3.646970   -0.160520    6.357546
     65          1           0        3.929631    3.110961    7.019124
     66          1           0        5.172005    2.649337    5.805804
     67          1           0        4.727917    1.548554    7.004986
     68          1           0        1.351290    0.562600    7.116006
     69          1           0        1.456599   -1.102674    6.555991
     70          1           0        0.300279    1.300071    5.357482
     71          1           0       -0.429924   -0.338162    5.455899
     72          1           0        0.831288    0.079734    4.211144
     73          1           0        2.993029   -5.602110    3.233824
     74          1           0        3.118133   -4.421623    4.586550
     75          1           0        4.635804   -5.079839    3.845612
     76          1           0        6.028435   -4.183713   -0.994534
     77          1           0        4.872179   -6.305344   -4.569622
     78          1           0        4.762383   -4.526375   -5.120027
     79          1           0        3.448841   -5.437622   -4.351933
     80         12           0       -3.572148    0.519051   -1.097232
     81          6           0       -6.194903   -1.570003    0.181857
     82          6           0       -5.907231    2.980617   -1.447462
     83          6           0       -1.391785    2.230609   -2.641266
     84          6           0       -1.747884   -2.385903   -1.712854
     85          7           0       -5.738451    0.577348   -0.654550
     86          6           0       -6.614178   -0.256040   -0.113313
     87          6           0       -7.996484    0.377271    0.199269
     88          6           0       -7.954042    1.582623   -0.861001
     89          6           0       -6.440765    1.755156   -0.974508
     90          6           0       -8.495106    1.200421   -2.228673
     91          6           0       -8.090301    0.910685    1.671912
     92          6           0       -9.504585    1.259891    2.140528
     93          1           0       -9.858019    1.007617    3.534769
     94          7           0       -3.498030    2.466297   -1.473147
     95          6           0       -4.540562    3.319208   -1.556550
     96          6           0       -3.960626    4.633798   -1.872281
     97          6           0       -2.506049    4.454893   -2.130972
     98          6           0       -2.410783    3.008986   -2.111812
     99          6           0       -4.756304    5.905953   -1.828345
    100          6           0       -1.388382    5.424283   -2.370351
    101          8           0       -0.246858    5.040780   -2.809285
    102          6           0       -1.698845    6.846559   -2.164824
    103          7           0       -1.912968   -0.006620   -2.234387
    104          6           0       -1.101725    0.933889   -2.749417
    105          6           0        0.168491    0.321939   -3.290226
    106          6           0        0.148110   -1.203777   -2.811329
    107          6           0       -1.233740   -1.234253   -2.122154
    108          6           0        0.339269    0.376364   -4.808210
    109          6           0        1.382619   -1.707940   -2.014786
    110          6           0        1.444127   -1.021559   -0.669250
    111          7           0       -3.803016   -1.584371   -0.660930
    112          6           0       -2.933577   -2.633102   -1.032861
    113          6           0       -3.571022   -3.897333   -0.611182
    114          6           0       -4.787309   -3.494787   -0.039287
    115          6           0       -4.909079   -2.081134   -0.118421
    116          6           0       -3.045265   -5.203718   -0.818708
    117          6           0       -6.000705   -3.945149    0.603789
    118          8           0       -6.415796   -5.028113    1.014409
    119          6           0       -7.023082   -2.729508    0.661744
    120          6           0       -7.584050   -2.660426    2.055674
    121          8           0       -6.848910   -2.383760    3.019848
    122          8           0       -8.926929   -2.717109    1.993546
    123          6           0       -9.529937   -2.640953    3.350903
    124          1           0       -6.598551    3.742039   -1.809679
    125          1           0       -0.560546    2.781726   -3.087121
    126          1           0       -1.198631   -3.327382   -1.780841
    127          1           0       -8.845984   -0.264546   -0.001210
    128          1           0       -8.410954    2.481616   -0.455535
    129          1           0       -8.710205    0.144329   -2.296098
    130          1           0       -7.724824    1.475633   -2.937170
    131          1           0       -9.365151    1.815686   -2.475267
    132          1           0       -7.624806    1.903361    1.723512
    133          1           0       -7.643355    0.217278    2.357508
    134          1           0      -10.272607    0.855343    1.470131
    135          1           0       -9.634577    2.342835    2.074419
    136          1           0       -5.833205    5.705059   -1.770589
    137          1           0       -4.623676    6.399676   -2.797119
    138          1           0       -4.424727    6.583082   -1.038269
    139          1           0       -2.518107    7.135536   -2.818862
    140          1           0       -0.752418    7.374377   -2.297326
    141          1           0       -2.053747    6.982215   -1.137082
    142          1           0        1.040894    0.809636   -2.872889
    143          1           0        0.089890   -1.897414   -3.662985
    144          1           0        1.270167    0.883592   -5.124791
    145          1           0       -0.525513    0.869816   -5.231511
    146          1           0        0.322521   -0.589749   -5.309752
    147          1           0        2.304680   -1.445745   -2.539398
    148          1           0        1.391201   -2.782541   -1.865964
    149          1           0        1.934720   -0.071033   -0.899288
    150          1           0        2.031342   -1.608792    0.033867
    151          1           0        0.438490   -0.792132   -0.298137
    152          1           0       -3.195319   -5.749776    0.103144
    153          1           0       -1.993437   -5.169745   -1.094857
    154          1           0       -3.676314   -5.538733   -1.646241
    155          1           0       -7.797914   -2.917329   -0.082524
    156          1           0      -10.169056   -3.521781    3.466442
    157          1           0      -10.021546   -1.651396    3.404309
    158          1           0       -8.866272   -2.748226    4.200896
 ---------------------------------------------------------------------

 SCF Done:  E(RCAM-B3LYP) =  -4069.81467888     A.U. after   19 cycles

 Excitation energies and oscillator strengths:

 Excited State   1:      Singlet-A      1.6291 eV  761.08 nm  f=0.0038  <S**2>=0.000
     309 -> 315       -0.11110
     310 -> 316        0.11856
     311 -> 313       -0.46598
     312 -> 314        0.50612
 This state for optimization and/or second-order correction.
 Total Energy, E(TD-HF/TD-DFT) =  -4069.75481185
 Copying the excited state density for this state as the 1-particle RhoCI density.

 Excited State   2:      Singlet-A      1.7090 eV  725.49 nm  f=0.6708  <S**2>=0.000
     309 -> 315        0.13587
     310 -> 316        0.12275
     311 -> 313        0.50287
     312 -> 314        0.46314

 Excited State   3:      Singlet-A      2.1771 eV  569.50 nm  f=0.0705  <S**2>=0.000
     309 -> 313        0.24596
     310 -> 314        0.59636
     311 -> 315       -0.10151
     312 -> 316       -0.24456

 Excited State   4:      Singlet-A      2.1938 eV  565.16 nm  f=0.1177  <S**2>=0.000
     309 -> 313        0.58155
     310 -> 314       -0.24272
     311 -> 315       -0.25638
     312 -> 313       -0.11645
     312 -> 316        0.10948

 Excited State   5:      Singlet-A      2.2445 eV  552.40 nm  f=0.0026  <S**2>=0.000
     309 -> 313        0.10783
     312 -> 313        0.69547

 The electronic state is 1-A.
 Alpha  occ. eigenvalues --  -46.87660 -46.87238 -19.26935 -19.26116 -19.19921
 Alpha  occ. eigenvalues --  -19.18911 -19.18696 -19.18531 -19.18314 -19.17727
 Alpha  occ. eigenvalues --  -14.42437 -14.42096 -14.41383 -14.40870 -14.39316
 Alpha  occ. eigenvalues --  -14.38953 -14.38474 -14.38178 -10.39842 -10.38831
 Alpha  occ. eigenvalues --  -10.35319 -10.35215 -10.34563 -10.33901 -10.32195
 Alpha  occ. eigenvalues --  -10.31561 -10.31479 -10.30980 -10.30894 -10.30689
 Alpha  occ. eigenvalues --  -10.30591 -10.30490 -10.30094 -10.29964 -10.29917
 Alpha  occ. eigenvalues --  -10.29909 -10.29613 -10.29573 -10.29376 -10.29166
 Alpha  occ. eigenvalues --  -10.29032 -10.28989 -10.28974 -10.28871 -10.28444
 Alpha  occ. eigenvalues --  -10.28426 -10.28351 -10.28245 -10.28049 -10.27826
 Alpha  occ. eigenvalues --  -10.27747 -10.27725 -10.27619 -10.27525 -10.27506
 Alpha  occ. eigenvalues --  -10.27470 -10.27358 -10.27349 -10.27266 -10.27220
 Alpha  occ. eigenvalues --  -10.27180 -10.27101 -10.27093 -10.27085 -10.26736
 Alpha  occ. eigenvalues --  -10.26700 -10.26465 -10.26439 -10.26335 -10.26321
 Alpha  occ. eigenvalues --  -10.26163 -10.25960 -10.25938 -10.25770 -10.25741
 Alpha  occ. eigenvalues --  -10.25351 -10.25327 -10.25282 -10.25005 -10.24862
 Alpha  occ. eigenvalues --  -10.24757 -10.24499 -10.24395 -10.24265 -10.24065
 Alpha  occ. eigenvalues --  -10.23642  -3.16379  -3.15989  -1.91255  -1.90872
 Alpha  occ. eigenvalues --   -1.90851  -1.90694  -1.90459  -1.90297  -1.17317
 Alpha  occ. eigenvalues --   -1.16405  -1.08833  -1.08339  -1.07504  -1.07093
 Alpha  occ. eigenvalues --   -1.06797  -1.06694  -1.04611  -1.04106  -1.03724
 Alpha  occ. eigenvalues --   -1.03234  -1.03201  -1.02574  -1.02389  -1.01672
 Alpha  occ. eigenvalues --   -0.92093  -0.91602  -0.89462  -0.89339  -0.88906
 Alpha  occ. eigenvalues --   -0.88733  -0.88209  -0.87862  -0.87702  -0.87462
 Alpha  occ. eigenvalues --   -0.87352  -0.87244  -0.87142  -0.86806  -0.85116
 Alpha  occ. eigenvalues --   -0.84654  -0.83887  -0.83198  -0.82867  -0.82692
 Alpha  occ. eigenvalues --   -0.82606  -0.82221  -0.81803  -0.81226  -0.80671
 Alpha  occ. eigenvalues --   -0.80075  -0.78718  -0.78260  -0.77248  -0.77066
 Alpha  occ. eigenvalues --   -0.76762  -0.76435  -0.76035  -0.75478  -0.74869
 Alpha  occ. eigenvalues --   -0.74309  -0.72761  -0.72245  -0.71712  -0.71174
 Alpha  occ. eigenvalues --   -0.69769  -0.69039  -0.68884  -0.68448  -0.67704
 Alpha  occ. eigenvalues --   -0.67334  -0.67209  -0.66917  -0.65463  -0.65026
 Alpha  occ. eigenvalues --   -0.64918  -0.64688  -0.64340  -0.64236  -0.64200
 Alpha  occ. eigenvalues --   -0.63472  -0.62574  -0.61864  -0.60341  -0.59951
 Alpha  occ. eigenvalues --   -0.59896  -0.59447  -0.59040  -0.58590  -0.58544
 Alpha  occ. eigenvalues --   -0.57991  -0.57931  -0.57293  -0.57218  -0.56794
 Alpha  occ. eigenvalues --   -0.56475  -0.56184  -0.55832  -0.55657  -0.55507
 Alpha  occ. eigenvalues --   -0.55416  -0.55155  -0.54857  -0.54681  -0.54157
 Alpha  occ. eigenvalues --   -0.53975  -0.53595  -0.53368  -0.53271  -0.53144
 Alpha  occ. eigenvalues --   -0.52894  -0.52752  -0.52648  -0.52520  -0.52425
 Alpha  occ. eigenvalues --   -0.52282  -0.52011  -0.51807  -0.51455  -0.51357
 Alpha  occ. eigenvalues --   -0.51323  -0.51198  -0.50731  -0.50371  -0.50228
 Alpha  occ. eigenvalues --   -0.50050  -0.49847  -0.49662  -0.49639  -0.49367
 Alpha  occ. eigenvalues --   -0.49226  -0.49198  -0.49137  -0.48884  -0.48789
 Alpha  occ. eigenvalues --   -0.48623  -0.48430  -0.48347  -0.48232  -0.48093
 Alpha  occ. eigenvalues --   -0.47899  -0.47711  -0.47254  -0.47203  -0.46868
 Alpha  occ. eigenvalues --   -0.46778  -0.46701  -0.46485  -0.46296  -0.46189
 Alpha  occ. eigenvalues --   -0.46117  -0.46026  -0.45749  -0.45604  -0.45416
 Alpha  occ. eigenvalues --   -0.45161  -0.44849  -0.44539  -0.44516  -0.44255
 Alpha  occ. eigenvalues --   -0.44215  -0.44074  -0.44051  -0.44004  -0.43830
 Alpha  occ. eigenvalues --   -0.43697  -0.43641  -0.43615  -0.43414  -0.43244
 Alpha  occ. eigenvalues --   -0.43084  -0.43035  -0.42866  -0.42602  -0.42550
 Alpha  occ. eigenvalues --   -0.42484  -0.42039  -0.42004  -0.41826  -0.41599
 Alpha  occ. eigenvalues --   -0.41317  -0.41262  -0.41174  -0.41003  -0.40950
 Alpha  occ. eigenvalues --   -0.40727  -0.40604  -0.40504  -0.40490  -0.40437
 Alpha  occ. eigenvalues --   -0.40185  -0.39973  -0.39440  -0.39261  -0.38655
 Alpha  occ. eigenvalues --   -0.38342  -0.37875  -0.37715  -0.37382  -0.37331
 Alpha  occ. eigenvalues --   -0.37238  -0.37122  -0.36851  -0.36560  -0.36447
 Alpha  occ. eigenvalues --   -0.36178  -0.35545  -0.34504  -0.34178  -0.33805
 Alpha  occ. eigenvalues --   -0.33573  -0.33198  -0.32739  -0.31245  -0.31089
 Alpha  occ. eigenvalues --   -0.31055  -0.30556  -0.30190  -0.29627  -0.29358
 Alpha  occ. eigenvalues --   -0.29257  -0.28972  -0.28820  -0.24094  -0.23606
 Alpha  occ. eigenvalues --   -0.21117  -0.20683
 Alpha virt. eigenvalues --   -0.08750  -0.08395  -0.01745  -0.01258  -0.00036
 Alpha virt. eigenvalues --    0.00264   0.02137   0.02604   0.03167   0.04418
 Alpha virt. eigenvalues --    0.04580   0.04869   0.05123   0.05438   0.05962

 Mulliken charges:
               1
     1  Mg   0.785289
     2  C    0.001192
     3  C   -0.091818
     4  C   -0.044387
     5  C   -0.062136
     6  N   -0.252241
     7  C   -0.059915
     8  C   -0.015939
     9  C   -0.084422
    10  C    0.044663
    11  C    0.104927
    12  C    0.019939
    13  C   -0.063829
    14  H    0.035308
    15  N   -0.427424
    16  C    0.168982
    17  C   -0.171773
    18  C   -0.001593
    19  C    0.149939
    20  C    0.108749
    21  C    0.014337
    22  O   -0.250177
    23  C    0.058769
    24  N   -0.336638
    25  C    0.042380
    26  C   -0.028298
    27  C   -0.023420
    28  C    0.073696
    29  C    0.076290
    30  C    0.034913
    31  C   -0.005935
    32  N   -0.306420
    33  C    0.082807
    34  C   -0.171976
    35  C    0.016490
    36  C    0.049654
    37  C    0.127984
    38  C    0.042596
    39  O   -0.188553
    40  C   -0.006389
    41  C    0.225016
    42  O   -0.255366
    43  O   -0.302837
    44  C    0.156153
    45  H   -0.017868
    46  H   -0.016779
    47  H   -0.041160
    48  H   -0.002602
    49  H   -0.003533
    50  H    0.025437
    51  H    0.017823
    52  H    0.017081
    53  H    0.015132
    54  H    0.075452
    55  H    0.018257
    56  H    0.020038
    57  H    0.005237
    58  H    0.025600
    59  H    0.049232
    60  H    0.036553
    61  H    0.033748
    62  H    0.040041
    63  H    0.017145
    64  H    0.009217
    65  H    0.023278
    66  H    0.012194
    67  H    0.004950
    68  H    0.006212
    69  H    0.005642
    70  H    0.007848
    71  H    0.022297
    72  H    0.029948
    73  H    0.046818
    74  H    0.010707
    75  H    0.045602
    76  H    0.036221
    77  H    0.045779
    78  H    0.048478
    79  H    0.052358
    80  Mg   0.836352
    81  C   -0.018191
    82  C   -0.088763
    83  C   -0.046987
    84  C   -0.067357
    85  N   -0.254752
    86  C   -0.049779
    87  C   -0.015086
    88  C   -0.090306
    89  C    0.045298
    90  C    0.114717
    91  C    0.062656
    92  C   -0.077341
    93  H    0.033755
    94  N   -0.423108
    95  C    0.162317
    96  C   -0.175552
    97  C   -0.009109
    98  C    0.152265
    99  C    0.099515
   100  C    0.014705
   101  O   -0.258245
   102  C    0.061851
   103  N   -0.350042
   104  C    0.037028
   105  C   -0.018845
   106  C   -0.035305
   107  C    0.089287
   108  C    0.075940
   109  C    0.042589
   110  C   -0.065204
   111  N   -0.324251
   112  C    0.078504
   113  C   -0.161377
   114  C    0.001541
   115  C    0.096735
   116  C    0.129602
   117  C    0.042220
   118  O   -0.188502
   119  C    0.001078
   120  C    0.211167
   121  O   -0.251689
   122  O   -0.305616
   123  C    0.152333
   124  H   -0.021215
   125  H   -0.018311
   126  H   -0.029912
   127  H   -0.001292
   128  H   -0.005190
   129  H    0.021949
   130  H    0.014285
   131  H    0.015172
   132  H    0.013996
   133  H    0.037287
   134  H    0.020488
   135  H    0.019273
   136  H    0.008218
   137  H    0.024332
   138  H    0.038771
   139  H    0.038486
   140  H    0.030871
   141  H    0.035396
   142  H    0.013719
   143  H    0.011956
   144  H    0.018705
   145  H    0.009261
   146  H    0.004955
   147  H   -0.012703
   148  H    0.034206
   149  H    0.033044
   150  H    0.076872
   151  H    0.022697
   152  H    0.045391
   153  H    0.016852
   154  H    0.045555
   155  H    0.034246
   156  H    0.043413
   157  H    0.049220
   158  H    0.052987
 Sum of Mulliken charges =  -0.00000

 Dipole moment (field-independent basis, Debye):
    X=              1.5029    Y=              6.3587    Z=             -3.3404  Tot=              7.3383
 Quadrupole moment (field-independent basis, Debye-Ang):
   XX=           -453.6656   YY=           -538.0096   ZZ=           -485.2180
   XY=            -25.6780   XZ=            -11.4354   YZ=             -0.7630

 Normal termination of Gaussian 16 at Wed Sep  8 15:28:18 2021.
