 Gaussian 16, Revision A.03,
 Gaussian 16:  ES64L-G16RevA.03 25-Dec-2016

 -----------------------------------
 #p cam-b3lyp/Def2SVP td=(nstates=5)
 -----------------------------------

 --------------------------------
 TDDFT excited states in gaussian
 --------------------------------
 Symbolic Z-matrix:
 Charge =  0 Multiplicity = 1

                         Standard orientation:
 ---------------------------------------------------------------------
 Center     Atomic      Atomic             Coordinates (Angstroms)
 Number     Number       Type             X           Y           Z
 ---------------------------------------------------------------------
      1         12           0        5.572318    0.271008    0.458854
      2          6           0        5.685466   -2.882024   -1.231648
      3          6           0        6.634691    1.701093   -2.451350
      4          6           0        5.916549    2.993012    2.049081
      5          6           0        5.628057   -1.502211    3.458562
      6          7           0        6.061868   -0.586580   -1.522441
      7          6           0        6.006306   -1.802275   -2.057389
      8          6           0        6.247486   -1.811577   -3.596583
      9          6           0        7.074384   -0.454951   -3.730016
     10          6           0        6.533472    0.279614   -2.516034
     11          6           0        8.579128   -0.639592   -3.562224
     12          6           0        4.909977   -1.749460   -4.408336
     13          6           0        5.033888   -2.081384   -5.898245
     14          1           0        3.946285   -2.795921   -6.549325
     15          7           0        5.710158    2.129396   -0.197079
     16          6           0        6.147943    2.527721   -1.415671
     17          6           0        6.061255    4.003920   -1.417392
     18          6           0        5.717491    4.441146   -0.035815
     19          6           0        5.794388    3.190893    0.675755
     20          6           0        6.245690    4.837551   -2.648161
     21          6           0        5.384425    5.775884    0.552125
     22          8           0        5.345048    5.972200    1.814853
     23          6           0        5.189693    6.883446   -0.400990
     24          7           0        5.969092    0.705066    2.461801
     25          6           0        6.009092    1.968393    2.899281
     26          6           0        6.024694    2.026977    4.398035
     27          6           0        5.740654    0.538521    4.901597
     28          6           0        5.689556   -0.170377    3.525689
     29          6           0        7.323230    2.541875    5.034190
     30          6           0        4.553809    0.340852    5.877684
     31          6           0        3.250358    0.622610    5.164434
     32          7           0        5.465634   -1.815432    1.047436
     33          6           0        5.529811   -2.328027    2.351200
     34          6           0        5.525723   -3.798147    2.238065
     35          6           0        5.475854   -4.040206    0.866655
     36          6           0        5.476899   -2.800037    0.166461
     37          6           0        5.623271   -4.717480    3.319613
     38          6           0        5.446795   -5.058263   -0.170924
     39          8           0        5.336831   -6.285184   -0.179115
     40          6           0        5.704316   -4.350979   -1.574227
     41          6           0        4.667789   -4.861688   -2.537606
     42          8           0        3.460609   -4.584811   -2.384568
     43          8           0        5.278768   -5.390140   -3.609047
     44          6           0        4.306367   -5.889157   -4.617794
     45          1           0        7.187248    2.226990   -3.232410
     46          1           0        5.926540    3.909715    2.642372
     47          1           0        5.558361   -2.121087    4.354992
     48          1           0        6.844906   -2.648786   -3.957962
     49          1           0        6.824501    0.085865   -4.642594
     50          1           0        8.823563   -1.654761   -3.249807
     51          1           0        8.876594    0.076567   -2.795984
     52          1           0        9.108904   -0.345828   -4.468765
     53          1           0        4.578421   -0.713339   -4.476039
     54          1           0        4.154532   -2.393656   -3.957071
     55          1           0        5.990249   -2.554419   -6.123010
     56          1           0        5.057061   -1.145110   -6.455966
     57          1           0        6.650658    4.251222   -3.472032
     58          1           0        7.024397    5.566651   -2.425142
     59          1           0        5.329626    5.354176   -2.934966
     60          1           0        6.097573    7.015166   -0.990017
     61          1           0        4.871178    7.739117    0.193338
     62          1           0        4.404208    6.608874   -1.105669
     63          1           0        5.242096    2.685967    4.771796
     64          1           0        6.594419    0.116313    5.432161
     65          1           0        7.179805    3.404704    5.685082
     66          1           0        8.024390    2.769570    4.231805
     67          1           0        7.879642    1.797795    5.603547
     68          1           0        4.623977    1.043679    6.707176
     69          1           0        4.504659   -0.663902    6.297570
     70          1           0        3.164252    1.706404    5.233782
     71          1           0        2.422437    0.131599    5.676944
     72          1           0        3.312392    0.367706    4.106293
     73          1           0        4.892378   -5.501176    3.120657
     74          1           0        5.429574   -4.228188    4.273907
     75          1           0        6.659581   -5.039390    3.218162
     76          1           0        6.714998   -4.619691   -1.879902
     77          1           0        4.542300   -6.937704   -4.799781
     78          1           0        4.359160   -5.204340   -5.464342
     79          1           0        3.268833   -5.965458   -4.290623
     80         12           0       -4.997592    0.800327    0.047932
     81          6           0       -7.663551   -1.595221    0.229852
     82          6           0       -7.083132    2.757165   -1.811093
     83          6           0       -2.535037    2.721521   -0.510877
     84          6           0       -2.811721   -1.774289    0.907585
     85          7           0       -7.081120    0.509840   -0.635313
     86          6           0       -8.014439   -0.412187   -0.453326
     87          6           0       -9.423532   -0.011031   -0.966261
     88          6           0       -8.980092    1.075999   -2.061983
     89          6           0       -7.646835    1.506308   -1.453759
     90          6           0       -8.708632    0.474504   -3.430872
     91          6           0      -10.307541    0.634302    0.158045
     92          6           0      -11.792374    0.766374   -0.187752
     93          1           0      -12.773916    0.588297    0.878709
     94          7           0       -4.953911    2.684463   -0.573913
     95          6           0       -5.895433    3.324109   -1.298948
     96          6           0       -5.381316    4.685517   -1.514373
     97          6           0       -3.986772    4.747385   -0.998488
     98          6           0       -3.758916    3.350665   -0.686487
     99          6           0       -6.221475    5.792140   -2.082650
    100          6           0       -3.014138    5.874779   -0.827716
    101          8           0       -1.773937    5.662900   -0.583102
    102          6           0       -3.537351    7.231013   -1.047671
    103          7           0       -2.945492    0.475994   -0.029721
    104          6           0       -2.092157    1.493805   -0.239051
    105          6           0       -0.665616    1.071710    0.020188
    106          6           0       -0.761016   -0.380267    0.683693
    107          6           0       -2.288877   -0.593144    0.608111
    108          6           0        0.243746    1.011462   -1.206926
    109          6           0       -0.054287   -0.576159    2.052940
    110          6           0       -0.757553    0.234810    3.117428
    111          7           0       -5.189097   -1.259186    0.672267
    112          6           0       -4.143769   -2.164954    0.956808
    113          6           0       -4.766187   -3.477335    1.226402
    114          6           0       -6.139765   -3.247608    1.056096
    115          6           0       -6.356416   -1.892933    0.685397
    116          6           0       -4.070327   -4.681566    1.529255
    117          6           0       -7.454864   -3.845685    1.095240
    118          8           0       -7.901063   -4.941643    1.432138
    119          6           0       -8.489929   -2.833834    0.438587
    120          6           0       -9.683514   -2.734630    1.348553
    121          8           0       -9.573120   -2.239897    2.484189
    122          8           0      -10.794514   -3.037550    0.652646
    123          6           0      -12.006289   -2.942461    1.509620
    124          1           0       -7.573088    3.343907   -2.588615
    125          1           0       -1.657624    3.368248   -0.584075
    126          1           0       -2.205864   -2.603763    1.278512
    127          1           0       -9.979271   -0.811267   -1.440120
    128          1           0       -9.673404    1.912548   -2.091540
    129          1           0       -8.744451   -0.604601   -3.411068
    130          1           0       -7.720485    0.815170   -3.711170
    131          1           0       -9.394271    0.896994   -4.170964
    132          1           0      -10.042683    1.694853    0.257267
    133          1           0      -10.197797    0.100924    1.082207
    134          1           0      -12.065928    0.168437   -1.065592
    135          1           0      -11.986957    1.797010   -0.494266
    136          1           0       -7.150157    5.407249   -2.521737
    137          1           0       -5.670450    6.207338   -2.933443
    138          1           0       -6.411292    6.589829   -1.361301
    139          1           0       -3.937892    7.304446   -2.055955
    140          1           0       -2.717674    7.905419   -0.792382
    141          1           0       -4.376317    7.397663   -0.362849
    142          1           0       -0.183528    1.745776    0.717562
    143          1           0       -0.304412   -1.150796    0.045245
    144          1           0        1.145642    1.645428   -1.113378
    145          1           0       -0.334712    1.298843   -2.074883
    146          1           0        0.587841    0.014874   -1.478251
    147          1           0        0.971911   -0.203453    2.006205
    148          1           0       -0.006361   -1.612600    2.369907
    149          1           0       -0.323974    1.231825    2.994790
    150          1           0       -0.548170   -0.167729    4.106454
    151          1           0       -1.830516    0.313831    2.907275
    152          1           0       -4.606837   -5.155594    2.340397
    153          1           0       -3.034400   -4.485362    1.797805
    154          1           0       -4.154613   -5.201714    0.571330
    155          1           0       -8.755270   -3.227812   -0.543217
    156          1           0      -12.516419   -3.908843    1.449977
    157          1           0      -12.560657   -2.056933    1.145920
    158          1           0      -11.857745   -2.847356    2.578893
 ---------------------------------------------------------------------

 SCF Done:  E(RCAM-B3LYP) =  -4069.81248504     A.U. after   19 cycles

 Excitation energies and oscillator strengths:

 Excited State   1:      Singlet-A      1.6539 eV  749.65 nm  f=0.0041  <S**2>=0.000
     309 -> 315       -0.11204
     310 -> 316        0.12548
     311 -> 313       -0.45575
     312 -> 314        0.51443
 This state for optimization and/or second-order correction.
 Total Energy, E(TD-HF/TD-DFT) =  -4069.75170584
 Copying the excited state density for this state as the 1-particle RhoCI density.

 Excited State   2:      Singlet-A      1.6980 eV  730.18 nm  f=0.7064  <S**2>=0.000
     309 -> 315        0.13493
     310 -> 316        0.11820
     311 -> 313        0.51255
     312 -> 314        0.45401

 Excited State   3:      Singlet-A      2.1840 eV  567.69 nm  f=0.1089  <S**2>=0.000
     310 -> 314        0.64122
     312 -> 316       -0.27068

 Excited State   4:      Singlet-A      2.1966 eV  564.45 nm  f=0.0937  <S**2>=0.000
     309 -> 313        0.63863
     311 -> 315       -0.27917

 Excited State   5:      Singlet-A      2.4672 eV  502.53 nm  f=0.0000  <S**2>=0.000
     312 -> 313        0.70639

 The electronic state is 1-A.
 Alpha  occ. eigenvalues --  -46.87899 -46.87469 -19.26382 -19.26218 -19.19143
 Alpha  occ. eigenvalues --  -19.19021 -19.18749 -19.18582 -19.18239 -19.17877
 Alpha  occ. eigenvalues --  -14.42531 -14.42312 -14.41535 -14.41153 -14.39478
 Alpha  occ. eigenvalues --  -14.39168 -14.38684 -14.38403 -10.39196 -10.38947
 Alpha  occ. eigenvalues --  -10.35375 -10.35265 -10.34464 -10.34054 -10.31760
 Alpha  occ. eigenvalues --  -10.31641 -10.31495 -10.31120 -10.30969 -10.30864
 Alpha  occ. eigenvalues --  -10.30658 -10.30582 -10.30264 -10.30197 -10.30160
 Alpha  occ. eigenvalues --  -10.30007 -10.29923 -10.29684 -10.29676 -10.29307
 Alpha  occ. eigenvalues --  -10.29246 -10.29209 -10.28821 -10.28607 -10.28578
 Alpha  occ. eigenvalues --  -10.28548 -10.28434 -10.28231 -10.28185 -10.27994
 Alpha  occ. eigenvalues --  -10.27850 -10.27812 -10.27798 -10.27621 -10.27575
 Alpha  occ. eigenvalues --  -10.27511 -10.27486 -10.27479 -10.27452 -10.27340
 Alpha  occ. eigenvalues --  -10.27300 -10.27287 -10.27240 -10.27194 -10.27137
 Alpha  occ. eigenvalues --  -10.26886 -10.26793 -10.26567 -10.26329 -10.26291
 Alpha  occ. eigenvalues --  -10.26289 -10.26229 -10.26098 -10.25916 -10.25892
 Alpha  occ. eigenvalues --  -10.25851 -10.25690 -10.25548 -10.25472 -10.25193
 Alpha  occ. eigenvalues --  -10.24900 -10.24868 -10.24854 -10.24682 -10.24500
 Alpha  occ. eigenvalues --  -10.24480  -3.16640  -3.16220  -1.91523  -1.91108
 Alpha  occ. eigenvalues --   -1.91102  -1.90950  -1.90690  -1.90527  -1.16734
 Alpha  occ. eigenvalues --   -1.16509  -1.08703  -1.08486  -1.07142  -1.06839
 Alpha  occ. eigenvalues --   -1.06805  -1.06760  -1.04658  -1.04315  -1.03837
 Alpha  occ. eigenvalues --   -1.03471  -1.03310  -1.02836  -1.02489  -1.01915
 Alpha  occ. eigenvalues --   -0.92050  -0.91803  -0.89603  -0.89262  -0.89261
 Alpha  occ. eigenvalues --   -0.88996  -0.88363  -0.87989  -0.87940  -0.87743
 Alpha  occ. eigenvalues --   -0.87572  -0.87493  -0.87268  -0.86966  -0.85044
 Alpha  occ. eigenvalues --   -0.84840  -0.84021  -0.83651  -0.82946  -0.82782
 Alpha  occ. eigenvalues --   -0.82673  -0.82495  -0.81662  -0.81425  -0.80651
 Alpha  occ. eigenvalues --   -0.80272  -0.78824  -0.78456  -0.77283  -0.77009
 Alpha  occ. eigenvalues --   -0.76963  -0.76717  -0.75992  -0.75673  -0.74966
 Alpha  occ. eigenvalues --   -0.74599  -0.72844  -0.72494  -0.71738  -0.71395
 Alpha  occ. eigenvalues --   -0.70005  -0.69506  -0.68926  -0.68665  -0.67693
 Alpha  occ. eigenvalues --   -0.67420  -0.67256  -0.67058  -0.65361  -0.65111
 Alpha  occ. eigenvalues --   -0.64931  -0.64693  -0.64575  -0.64476  -0.64348
 Alpha  occ. eigenvalues --   -0.63976  -0.62383  -0.62104  -0.60464  -0.60165
 Alpha  occ. eigenvalues --   -0.59873  -0.59631  -0.59059  -0.58797  -0.58572
 Alpha  occ. eigenvalues --   -0.58237  -0.57668  -0.57382  -0.57367  -0.57040
 Alpha  occ. eigenvalues --   -0.56360  -0.56056  -0.56013  -0.55733  -0.55533
 Alpha  occ. eigenvalues --   -0.55421  -0.55296  -0.55036  -0.54612  -0.54285
 Alpha  occ. eigenvalues --   -0.53965  -0.53761  -0.53350  -0.53236  -0.53047
 Alpha  occ. eigenvalues --   -0.52990  -0.52972  -0.52739  -0.52734  -0.52542
 Alpha  occ. eigenvalues --   -0.52534  -0.52152  -0.51989  -0.51653  -0.51637
 Alpha  occ. eigenvalues --   -0.51512  -0.51274  -0.51009  -0.50521  -0.50339
 Alpha  occ. eigenvalues --   -0.50094  -0.49925  -0.49824  -0.49668  -0.49538
 Alpha  occ. eigenvalues --   -0.49338  -0.49260  -0.49152  -0.49041  -0.48930
 Alpha  occ. eigenvalues --   -0.48664  -0.48524  -0.48427  -0.48390  -0.48197
 Alpha  occ. eigenvalues --   -0.48160  -0.47739  -0.47422  -0.47334  -0.46943
 Alpha  occ. eigenvalues --   -0.46874  -0.46617  -0.46507  -0.46428  -0.46394
 Alpha  occ. eigenvalues --   -0.46240  -0.46069  -0.45900  -0.45874  -0.45624
 Alpha  occ. eigenvalues --   -0.45269  -0.45014  -0.44652  -0.44531  -0.44359
 Alpha  occ. eigenvalues --   -0.44286  -0.44210  -0.44150  -0.44031  -0.43968
 Alpha  occ. eigenvalues --   -0.43883  -0.43786  -0.43570  -0.43452  -0.43378
 Alpha  occ. eigenvalues --   -0.43210  -0.43095  -0.42784  -0.42774  -0.42751
 Alpha  occ. eigenvalues --   -0.42706  -0.42342  -0.42098  -0.41773  -0.41760
 Alpha  occ. eigenvalues --   -0.41598  -0.41488  -0.41288  -0.41204  -0.40946
 Alpha  occ. eigenvalues --   -0.40816  -0.40782  -0.40648  -0.40589  -0.40527
 Alpha  occ. eigenvalues --   -0.40285  -0.40264  -0.40098  -0.39549  -0.39157
 Alpha  occ. eigenvalues --   -0.38545  -0.38134  -0.37821  -0.37505  -0.37395
 Alpha  occ. eigenvalues --   -0.37337  -0.37052  -0.37022  -0.36811  -0.36612
 Alpha  occ. eigenvalues --   -0.36279  -0.36014  -0.34367  -0.34061  -0.33886
 Alpha  occ. eigenvalues --   -0.33712  -0.33264  -0.32980  -0.31294  -0.31140
 Alpha  occ. eigenvalues --   -0.31094  -0.30786  -0.30104  -0.29780  -0.29495
 Alpha  occ. eigenvalues --   -0.29390  -0.29154  -0.29017  -0.24163  -0.23840
 Alpha  occ. eigenvalues --   -0.21199  -0.20923
 Alpha virt. eigenvalues --   -0.08831  -0.08605  -0.01818  -0.01503  -0.00067
 Alpha virt. eigenvalues --    0.00125   0.02123   0.02256   0.02462   0.03411
 Alpha virt. eigenvalues --    0.04638   0.04899   0.04987   0.05312   0.06050

 Mulliken charges:
               1
     1  Mg   0.831016
     2  C   -0.003085
     3  C   -0.093196
     4  C   -0.045297
     5  C   -0.063792
     6  N   -0.256580
     7  C   -0.053390
     8  C   -0.013705
     9  C   -0.087051
    10  C    0.046311
    11  C    0.104721
    12  C    0.053148
    13  C   -0.071940
    14  H    0.036153
    15  N   -0.434298
    16  C    0.168516
    17  C   -0.176318
    18  C   -0.003051
    19  C    0.148568
    20  C    0.110113
    21  C    0.014683
    22  O   -0.248866
    23  C    0.061483
    24  N   -0.340431
    25  C    0.040460
    26  C   -0.028495
    27  C   -0.024191
    28  C    0.073872
    29  C    0.076105
    30  C    0.035513
    31  C   -0.007770
    32  N   -0.310374
    33  C    0.078712
    34  C   -0.170819
    35  C    0.008152
    36  C    0.081294
    37  C    0.127549
    38  C    0.045407
    39  O   -0.188444
    40  C   -0.005331
    41  C    0.213337
    42  O   -0.258885
    43  O   -0.304459
    44  C    0.157563
    45  H   -0.017274
    46  H   -0.016094
    47  H   -0.041952
    48  H    0.001088
    49  H   -0.003676
    50  H    0.025614
    51  H    0.016660
    52  H    0.016973
    53  H    0.011394
    54  H    0.042990
    55  H    0.018142
    56  H    0.018351
    57  H    0.005636
    58  H    0.027082
    59  H    0.041773
    60  H    0.036159
    61  H    0.036942
    62  H    0.035233
    63  H    0.017166
    64  H    0.009816
    65  H    0.023818
    66  H    0.012769
    67  H    0.004939
    68  H    0.007424
    69  H    0.004698
    70  H    0.010816
    71  H    0.019003
    72  H    0.027215
    73  H    0.046956
    74  H    0.008960
    75  H    0.046380
    76  H    0.035548
    77  H    0.043427
    78  H    0.046614
    79  H    0.053438
    80  Mg   0.837595
    81  C   -0.017274
    82  C   -0.088296
    83  C   -0.045548
    84  C   -0.063430
    85  N   -0.254626
    86  C   -0.049739
    87  C   -0.015088
    88  C   -0.090446
    89  C    0.045698
    90  C    0.114526
    91  C    0.062601
    92  C   -0.077651
    93  H    0.034503
    94  N   -0.423293
    95  C    0.162647
    96  C   -0.175335
    97  C   -0.008459
    98  C    0.151997
    99  C    0.099676
   100  C    0.015107
   101  O   -0.253971
   102  C    0.061288
   103  N   -0.350055
   104  C    0.037388
   105  C   -0.020478
   106  C   -0.037785
   107  C    0.088380
   108  C    0.066268
   109  C    0.032590
   110  C   -0.008209
   111  N   -0.324255
   112  C    0.078207
   113  C   -0.162374
   114  C    0.002084
   115  C    0.096458
   116  C    0.131628
   117  C    0.042577
   118  O   -0.187863
   119  C    0.000893
   120  C    0.211211
   121  O   -0.251179
   122  O   -0.305648
   123  C    0.152135
   124  H   -0.020476
   125  H   -0.016276
   126  H   -0.036723
   127  H   -0.000867
   128  H   -0.004775
   129  H    0.022419
   130  H    0.014331
   131  H    0.015659
   132  H    0.013861
   133  H    0.037638
   134  H    0.020639
   135  H    0.019348
   136  H    0.008398
   137  H    0.025070
   138  H    0.039257
   139  H    0.037530
   140  H    0.035578
   141  H    0.034106
   142  H    0.013987
   143  H    0.020536
   144  H    0.027062
   145  H    0.010348
   146  H    0.013169
   147  H    0.007944
   148  H    0.007304
   149  H    0.011216
   150  H    0.017385
   151  H    0.029131
   152  H    0.045412
   153  H    0.010846
   154  H    0.048242
   155  H    0.034857
   156  H    0.043729
   157  H    0.049281
   158  H    0.053441
 Sum of Mulliken charges =  -0.00000

 Dipole moment (field-independent basis, Debye):
    X=              1.4117    Y=              5.9774    Z=             -5.7492  Tot=              8.4128
 Quadrupole moment (field-independent basis, Debye-Ang):
   XX=           -456.1054   YY=           -548.9428   ZZ=           -473.7105
   XY=            -29.2514   XZ=             13.8863   YZ=            -11.8101

 Normal termination of Gaussian 16 at Sat Sep 11 02:05:41 2021.
