 Gaussian 16, Revision A.03,
 Gaussian 16:  ES64L-G16RevA.03 25-Dec-2016

 -----------------------------------
 #p cam-b3lyp/Def2SVP td=(nstates=5)
 -----------------------------------

 --------------------------------
 TDDFT excited states in gaussian
 --------------------------------
 Symbolic Z-matrix:
 Charge =  0 Multiplicity = 1

                         Standard orientation:
 ---------------------------------------------------------------------
 Center     Atomic      Atomic             Coordinates (Angstroms)
 Number     Number       Type             X           Y           Z
 ---------------------------------------------------------------------
      1         12           0        4.799934    1.279064    0.708818
      2          6           0        5.548841   -2.099168   -0.207099
      3          6           0        5.889812    2.203614   -2.389639
      4          6           0        4.576356    4.298965    1.650534
      5          6           0        4.854803    0.234144    4.033091
      6          7           0        5.593137    0.108421   -0.994435
      7          6           0        5.773686   -1.185637   -1.239355
      8          6           0        6.152123   -1.487212   -2.720305
      9          6           0        6.769563   -0.071421   -3.115656
     10          6           0        6.014353    0.805906   -2.132864
     11          6           0        8.263300    0.043270   -2.829129
     12          6           0        4.900198   -1.830839   -3.595712
     13          6           0        5.208312   -2.451806   -4.961296
     14          1           0        4.306958   -3.464723   -5.489412
     15          7           0        4.709742    2.946801   -0.346345
     16          6           0        5.189944    3.140000   -1.598290
     17          6           0        4.878133    4.543971   -1.942266
     18          6           0        4.347355    5.205307   -0.717928
     19          6           0        4.550412    4.170741    0.263814
     20          6           0        5.043311    5.109922   -3.319280
     21          6           0        3.761321    6.559219   -0.469698
     22          8           0        3.577827    7.014953    0.710645
     23          6           0        3.486151    7.384225   -1.659945
     24          7           0        4.941910    2.197938    2.577815
     25          6           0        4.747580    3.514013    2.716263
     26          6           0        4.617911    3.897851    4.160490
     27          6           0        4.521273    2.527849    4.975052
     28          6           0        4.704722    1.539452    3.797050
     29          6           0        5.758825    4.751480    4.731142
     30          6           0        3.295223    2.347633    5.904967
     31          6           0        2.034144    2.242289    5.076909
     32          7           0        4.961912   -0.617205    1.752357
     33          6           0        4.985439   -0.816453    3.140313
     34          6           0        5.217420   -2.254909    3.366361
     35          6           0        5.329987   -2.793346    2.086025
     36          6           0        5.204138   -1.752757    1.121852
     37          6           0        5.356405   -2.887652    4.633149
     38          6           0        5.551885   -4.001858    1.308775
     39          8           0        5.632820   -5.201776    1.575492
     40          6           0        5.824037   -3.582338   -0.203099
     41          6           0        4.969987   -4.458325   -1.078630
     42          8           0        3.725761   -4.364217   -1.058348
     43          8           0        5.749555   -5.094704   -1.966232
     44          6           0        4.960923   -5.958383   -2.885076
     45          1           0        6.423645    2.633799   -3.239288
     46          1           0        4.391582    5.310499    2.018088
     47          1           0        4.799892   -0.178326    5.042203
     48          1           0        6.901313   -2.268794   -2.847845
     49          1           0        6.523470    0.208178   -4.139856
     50          1           0        8.631338   -0.823346   -2.280089
     51          1           0        8.376486    0.948380   -2.232089
     52          1           0        8.821751    0.219232   -3.748883
     53          1           0        4.421009   -0.905849   -3.916385
     54          1           0        4.214826   -2.480724   -3.050515
     55          1           0        6.242371   -2.792670   -5.019969
     56          1           0        5.137968   -1.668709   -5.716287
     57          1           0        5.606590    4.436545   -3.964125
     58          1           0        5.677338    5.991539   -3.227238
     59          1           0        4.088640    5.388653   -3.765648
     60          1           0        4.412706    7.537518   -2.213611
     61          1           0        2.987416    8.281465   -1.295152
     62          1           0        2.819378    6.833994   -2.324482
     63          1           0        3.712753    4.479313    4.330833
     64          1           0        5.378023    2.382127    5.633397
     65          1           0        5.426138    5.697627    5.158728
     66          1           0        6.486602    4.915642    3.936988
     67          1           0        6.368892    4.254197    5.484763
     68          1           0        3.181063    3.214994    6.554273
     69          1           0        3.363031    1.464413    6.540243
     70          1           0        1.776709    3.284542    4.891790
     71          1           0        1.248378    1.740615    5.642688
     72          1           0        2.230360    1.778433    4.110046
     73          1           0        4.775625   -3.808408    4.579564
     74          1           0        5.004073   -2.243370    5.438360
     75          1           0        6.434734   -3.042917    4.664088
     76          1           0        6.887515   -3.735088   -0.384214
     77          1           0        5.370593   -6.965697   -2.809418
     78          1           0        4.984549   -5.474585   -3.861695
     79          1           0        3.922049   -6.137202   -2.605606
     80         12           0       -5.633683   -0.105122   -0.395232
     81          6           0       -3.157367   -2.692394   -0.165183
     82          6           0       -3.294351    1.784329   -2.005220
     83          6           0       -7.637073    2.348856   -0.216646
     84          6           0       -7.351328   -1.712394    2.176166
     85          7           0       -3.532850   -0.511938   -0.954922
     86          6           0       -2.717971   -1.552702   -0.870497
     87          6           0       -1.385831   -1.391529   -1.650881
     88          6           0       -1.316610    0.212607   -1.679724
     89          6           0       -2.808332    0.523527   -1.575952
     90          6           0       -0.619382    0.806787   -0.467221
     91          6           0       -1.465649   -1.989167   -3.099494
     92          6           0       -0.117245   -2.144820   -3.806131
     93          1           0        0.076330   -3.289559   -4.691892
     94          7           0       -5.680430    1.592023   -1.422896
     95          6           0       -4.642312    2.204741   -2.029669
     96          6           0       -5.193172    3.429533   -2.630161
     97          6           0       -6.607034    3.573524   -2.188605
     98          6           0       -6.691875    2.497976   -1.221096
     99          6           0       -4.418329    4.284646   -3.590268
    100          6           0       -7.697947    4.530044   -2.564341
    101          8           0       -8.778513    4.621114   -1.881022
    102          6           0       -7.424861    5.422475   -3.700335
    103          7           0       -7.147358    0.384792    0.943091
    104          6           0       -7.902091    1.482676    0.761533
    105          6           0       -9.096921    1.482082    1.684984
    106          6           0       -9.118843    0.031619    2.358234
    107          6           0       -7.824765   -0.550164    1.748080
    108          6           0       -9.093248    2.550324    2.778255
    109          6           0      -10.432198   -0.786771    2.224073
    110          6           0      -10.653027   -1.175179    0.779859
    111          7           0       -5.436844   -1.969307    0.679060
    112          6           0       -6.249262   -2.434423    1.736290
    113          6           0       -5.653826   -3.696954    2.219919
    114          6           0       -4.514376   -3.868224    1.419413
    115          6           0       -4.396077   -2.778277    0.515242
    116          6           0       -6.141507   -4.487063    3.298823
    117          6           0       -3.378881   -4.717784    1.140858
    118          8           0       -3.004559   -5.823069    1.530698
    119          6           0       -2.379979   -3.929941    0.188024
    120          6           0       -1.982863   -4.851510   -0.932474
    121          8           0       -2.825825   -5.239949   -1.760204
    122          8           0       -0.641282   -4.947116   -0.969884
    123          6           0       -0.198279   -5.841948   -2.072084
    124          1           0       -2.572453    2.540893   -2.314043
    125          1           0       -8.416344    3.113849   -0.185171
    126          1           0       -7.881357   -2.324304    2.909179
    127          1           0       -0.513676   -1.792362   -1.148435
    128          1           0       -0.916589    0.573787   -2.623593
    129          1           0       -0.389228    0.055504    0.273546
    130          1           0       -1.305748    1.539145   -0.062745
    131          1           0        0.268029    1.365187   -0.778702
    132          1           0       -1.942201   -1.256433   -3.763368
    133          1           0       -1.982371   -2.929173   -3.095907
    134          1           0        0.725798   -2.049890   -3.110999
    135          1           0        0.010471   -1.308793   -4.498073
    136          1           0       -3.353490    4.021001   -3.594651
    137          1           0       -4.443272    5.307567   -3.199286
    138          1           0       -4.843772    4.280279   -4.596082
    139          1           0       -6.538543    6.015804   -3.488523
    140          1           0       -8.354247    5.968708   -3.872842
    141          1           0       -7.191080    4.809841   -4.578191
    142          1           0      -10.015372    1.625407    1.129111
    143          1           0       -8.957749    0.084387    3.445018
    144          1           0       -9.985954    3.203415    2.753345
    145          1           0       -8.189813    3.137251    2.678956
    146          1           0       -9.011181    2.170180    3.795092
    147          1           0      -11.290291   -0.176336    2.515982
    148          1           0      -10.448848   -1.680602    2.838704
    149          1           0      -11.121922   -0.283355    0.353392
    150          1           0      -11.311975   -2.038420    0.711788
    151          1           0       -9.698423   -1.325191    0.262276
    152          1           0       -6.093449   -5.518539    2.975928
    153          1           0       -7.155057   -4.202503    3.573602
    154          1           0       -5.417123   -4.225826    4.074891
    155          1           0       -1.523506   -3.625752    0.790948
    156          1           0        0.430694   -6.616135   -1.621848
    157          1           0        0.275757   -5.180630   -2.821552
    158          1           0       -0.953967   -6.443050   -2.564080
 ---------------------------------------------------------------------

 SCF Done:  E(RCAM-B3LYP) =  -4069.81175886     A.U. after   19 cycles

 Excitation energies and oscillator strengths:

 Excited State   1:      Singlet-A      1.6536 eV  749.77 nm  f=0.0017  <S**2>=0.000
     309 -> 315       -0.11778
     310 -> 316       -0.12017
     311 -> 313       -0.47851
     312 -> 314        0.49342
 This state for optimization and/or second-order correction.
 Total Energy, E(TD-HF/TD-DFT) =  -4069.75098926
 Copying the excited state density for this state as the 1-particle RhoCI density.

 Excited State   2:      Singlet-A      1.6977 eV  730.31 nm  f=0.7089  <S**2>=0.000
     309 -> 315        0.12951
     310 -> 316       -0.12436
     311 -> 313        0.49132
     312 -> 314        0.47658

 Excited State   3:      Singlet-A      2.1825 eV  568.09 nm  f=0.0749  <S**2>=0.000
     309 -> 313        0.17635
     310 -> 314        0.61905
     312 -> 316        0.26029

 Excited State   4:      Singlet-A      2.1943 eV  565.04 nm  f=0.1206  <S**2>=0.000
     309 -> 313        0.61577
     310 -> 314       -0.17421
     311 -> 315       -0.26904

 Excited State   5:      Singlet-A      2.3775 eV  521.49 nm  f=0.0000  <S**2>=0.000
     312 -> 313        0.70651

 The electronic state is 1-A.
 Alpha  occ. eigenvalues --  -46.88123 -46.87416 -19.26611 -19.25562 -19.19368
 Alpha  occ. eigenvalues --  -19.19120 -19.18561 -19.18520 -19.18410 -19.17693
 Alpha  occ. eigenvalues --  -14.42766 -14.42245 -14.41746 -14.41117 -14.39724
 Alpha  occ. eigenvalues --  -14.39111 -14.38891 -14.38346 -10.39409 -10.38476
 Alpha  occ. eigenvalues --  -10.35755 -10.35203 -10.34636 -10.33852 -10.32029
 Alpha  occ. eigenvalues --  -10.31701 -10.31237 -10.31034 -10.30914 -10.30863
 Alpha  occ. eigenvalues --  -10.30799 -10.30740 -10.30499 -10.30190 -10.30148
 Alpha  occ. eigenvalues --  -10.30096 -10.29936 -10.29917 -10.29652 -10.29559
 Alpha  occ. eigenvalues --  -10.29220 -10.29157 -10.29083 -10.28890 -10.28674
 Alpha  occ. eigenvalues --  -10.28423 -10.28327 -10.28240 -10.28136 -10.28074
 Alpha  occ. eigenvalues --  -10.28029 -10.27885 -10.27866 -10.27805 -10.27753
 Alpha  occ. eigenvalues --  -10.27733 -10.27709 -10.27681 -10.27443 -10.27435
 Alpha  occ. eigenvalues --  -10.27338 -10.27316 -10.27228 -10.27195 -10.27188
 Alpha  occ. eigenvalues --  -10.27115 -10.26744 -10.26572 -10.26497 -10.26384
 Alpha  occ. eigenvalues --  -10.26327 -10.26301 -10.26274 -10.26012 -10.25980
 Alpha  occ. eigenvalues --  -10.25824 -10.25706 -10.25639 -10.25627 -10.25232
 Alpha  occ. eigenvalues --  -10.25110 -10.25078 -10.24897 -10.24609 -10.24577
 Alpha  occ. eigenvalues --  -10.24445  -3.16864  -3.16166  -1.91746  -1.91332
 Alpha  occ. eigenvalues --   -1.91173  -1.91048  -1.90637  -1.90474  -1.16960
 Alpha  occ. eigenvalues --   -1.15904  -1.08866  -1.08270  -1.07521  -1.06973
 Alpha  occ. eigenvalues --   -1.06776  -1.06326  -1.04894  -1.04232  -1.04059
 Alpha  occ. eigenvalues --   -1.03534  -1.03414  -1.02799  -1.02709  -1.01864
 Alpha  occ. eigenvalues --   -0.92266  -0.91669  -0.89782  -0.89506  -0.89263
 Alpha  occ. eigenvalues --   -0.88850  -0.88542  -0.88121  -0.88007  -0.87977
 Alpha  occ. eigenvalues --   -0.87584  -0.87547  -0.87421  -0.86917  -0.85297
 Alpha  occ. eigenvalues --   -0.84706  -0.84184  -0.83648  -0.83268  -0.82956
 Alpha  occ. eigenvalues --   -0.82743  -0.82357  -0.81888  -0.81142  -0.80900
 Alpha  occ. eigenvalues --   -0.80059  -0.79091  -0.78412  -0.77500  -0.77230
 Alpha  occ. eigenvalues --   -0.76887  -0.76549  -0.76218  -0.75483  -0.75154
 Alpha  occ. eigenvalues --   -0.74536  -0.73051  -0.72453  -0.71954  -0.71308
 Alpha  occ. eigenvalues --   -0.70144  -0.69563  -0.69178  -0.68540  -0.67934
 Alpha  occ. eigenvalues --   -0.67554  -0.67325  -0.66898  -0.65602  -0.65150
 Alpha  occ. eigenvalues --   -0.64935  -0.64916  -0.64534  -0.64496  -0.64280
 Alpha  occ. eigenvalues --   -0.63951  -0.62603  -0.61750  -0.60738  -0.60125
 Alpha  occ. eigenvalues --   -0.60113  -0.59498  -0.59273  -0.58790  -0.58710
 Alpha  occ. eigenvalues --   -0.58121  -0.57875  -0.57586  -0.57151  -0.56920
 Alpha  occ. eigenvalues --   -0.56592  -0.56297  -0.55954  -0.55814  -0.55601
 Alpha  occ. eigenvalues --   -0.55416  -0.55117  -0.54909  -0.54798  -0.54217
 Alpha  occ. eigenvalues --   -0.54075  -0.53612  -0.53592  -0.53526  -0.53216
 Alpha  occ. eigenvalues --   -0.53073  -0.52963  -0.52835  -0.52669  -0.52524
 Alpha  occ. eigenvalues --   -0.52435  -0.52182  -0.52139  -0.51937  -0.51631
 Alpha  occ. eigenvalues --   -0.51469  -0.51349  -0.50891  -0.50874  -0.50299
 Alpha  occ. eigenvalues --   -0.50294  -0.50211  -0.49819  -0.49755  -0.49659
 Alpha  occ. eigenvalues --   -0.49503  -0.49377  -0.49237  -0.48902  -0.48872
 Alpha  occ. eigenvalues --   -0.48797  -0.48749  -0.48707  -0.48220  -0.48157
 Alpha  occ. eigenvalues --   -0.48051  -0.47989  -0.47585  -0.47304  -0.47075
 Alpha  occ. eigenvalues --   -0.46873  -0.46856  -0.46644  -0.46451  -0.46432
 Alpha  occ. eigenvalues --   -0.46268  -0.46085  -0.46022  -0.45765  -0.45456
 Alpha  occ. eigenvalues --   -0.45436  -0.44974  -0.44855  -0.44794  -0.44425
 Alpha  occ. eigenvalues --   -0.44382  -0.44302  -0.44208  -0.44179  -0.43865
 Alpha  occ. eigenvalues --   -0.43828  -0.43786  -0.43680  -0.43620  -0.43306
 Alpha  occ. eigenvalues --   -0.43177  -0.43030  -0.43000  -0.42912  -0.42633
 Alpha  occ. eigenvalues --   -0.42355  -0.42277  -0.42239  -0.41981  -0.41838
 Alpha  occ. eigenvalues --   -0.41700  -0.41424  -0.41358  -0.41172  -0.41160
 Alpha  occ. eigenvalues --   -0.41136  -0.40826  -0.40727  -0.40597  -0.40487
 Alpha  occ. eigenvalues --   -0.40439  -0.40242  -0.39858  -0.39676  -0.39235
 Alpha  occ. eigenvalues --   -0.38734  -0.38130  -0.38081  -0.37592  -0.37585
 Alpha  occ. eigenvalues --   -0.37341  -0.37030  -0.37017  -0.36901  -0.36484
 Alpha  occ. eigenvalues --   -0.36282  -0.35795  -0.34583  -0.34102  -0.33994
 Alpha  occ. eigenvalues --   -0.33486  -0.33346  -0.32896  -0.31648  -0.31334
 Alpha  occ. eigenvalues --   -0.31077  -0.30705  -0.30271  -0.29757  -0.29601
 Alpha  occ. eigenvalues --   -0.29579  -0.29095  -0.28951  -0.24385  -0.23774
 Alpha  occ. eigenvalues --   -0.21423  -0.20875
 Alpha virt. eigenvalues --   -0.09071  -0.08544  -0.02054  -0.01448  -0.00365
 Alpha virt. eigenvalues --    0.00190   0.01928   0.02273   0.02515   0.03462
 Alpha virt. eigenvalues --    0.04375   0.04716   0.05015   0.05579   0.05744

 Mulliken charges:
               1
     1  Mg   0.832031
     2  C   -0.003900
     3  C   -0.094539
     4  C   -0.045254
     5  C   -0.063288
     6  N   -0.256541
     7  C   -0.053694
     8  C   -0.013195
     9  C   -0.086584
    10  C    0.045047
    11  C    0.104674
    12  C    0.049821
    13  C   -0.071795
    14  H    0.036187
    15  N   -0.433541
    16  C    0.166699
    17  C   -0.178288
    18  C   -0.004914
    19  C    0.147900
    20  C    0.110279
    21  C    0.011472
    22  O   -0.248963
    23  C    0.063094
    24  N   -0.340524
    25  C    0.040653
    26  C   -0.028224
    27  C   -0.024256
    28  C    0.074873
    29  C    0.075936
    30  C    0.034937
    31  C   -0.004597
    32  N   -0.310965
    33  C    0.080492
    34  C   -0.168396
    35  C    0.009330
    36  C    0.082702
    37  C    0.126864
    38  C    0.047552
    39  O   -0.186303
    40  C   -0.006025
    41  C    0.213490
    42  O   -0.257803
    43  O   -0.304139
    44  C    0.157886
    45  H   -0.017370
    46  H   -0.016465
    47  H   -0.040264
    48  H    0.001714
    49  H   -0.004216
    50  H    0.025917
    51  H    0.016865
    52  H    0.017211
    53  H    0.009751
    54  H    0.045350
    55  H    0.019065
    56  H    0.018200
    57  H    0.006050
    58  H    0.027600
    59  H    0.037750
    60  H    0.038113
    61  H    0.036141
    62  H    0.029169
    63  H    0.016764
    64  H    0.010207
    65  H    0.023714
    66  H    0.012661
    67  H    0.005337
    68  H    0.007097
    69  H    0.005624
    70  H    0.008823
    71  H    0.019332
    72  H    0.027701
    73  H    0.049775
    74  H    0.009831
    75  H    0.046547
    76  H    0.035923
    77  H    0.044460
    78  H    0.046511
    79  H    0.050807
    80  Mg   0.837123
    81  C   -0.017076
    82  C   -0.087791
    83  C   -0.045908
    84  C   -0.065775
    85  N   -0.254334
    86  C   -0.050050
    87  C   -0.017063
    88  C   -0.091345
    89  C    0.045558
    90  C    0.109667
    91  C    0.062926
    92  C   -0.078890
    93  H    0.031015
    94  N   -0.423381
    95  C    0.162507
    96  C   -0.174967
    97  C   -0.008360
    98  C    0.151937
    99  C    0.099790
   100  C    0.015221
   101  O   -0.253789
   102  C    0.061360
   103  N   -0.350210
   104  C    0.037261
   105  C   -0.019635
   106  C   -0.034789
   107  C    0.089257
   108  C    0.073865
   109  C    0.034875
   110  C   -0.007581
   111  N   -0.324250
   112  C    0.078881
   113  C   -0.163684
   114  C    0.002846
   115  C    0.095822
   116  C    0.131587
   117  C    0.041912
   118  O   -0.185946
   119  C    0.002292
   120  C    0.209696
   121  O   -0.254347
   122  O   -0.298860
   123  C    0.157053
   124  H   -0.020736
   125  H   -0.016260
   126  H   -0.040990
   127  H    0.008414
   128  H   -0.005803
   129  H    0.025614
   130  H    0.014453
   131  H    0.018642
   132  H    0.011597
   133  H    0.037879
   134  H    0.031204
   135  H    0.014950
   136  H    0.007370
   137  H    0.025509
   138  H    0.038647
   139  H    0.037872
   140  H    0.035754
   141  H    0.033387
   142  H    0.013950
   143  H    0.012005
   144  H    0.024605
   145  H    0.011667
   146  H    0.005157
   147  H    0.005787
   148  H    0.003438
   149  H    0.010692
   150  H    0.017551
   151  H    0.030429
   152  H    0.046129
   153  H    0.007890
   154  H    0.046861
   155  H    0.039776
   156  H    0.046311
   157  H    0.050215
   158  H    0.047727
 Sum of Mulliken charges =  -0.00000

 Dipole moment (field-independent basis, Debye):
    X=              4.7616    Y=              5.8677    Z=             -3.7549  Tot=              8.4381
 Quadrupole moment (field-independent basis, Debye-Ang):
   XX=           -499.5919   YY=           -564.5809   ZZ=           -458.2209
   XY=             12.6870   XZ=            -37.4184   YZ=             -1.4694

 Normal termination of Gaussian 16 at Fri Sep 10 20:35:43 2021.
