 Gaussian 16, Revision A.03,
 Gaussian 16:  ES64L-G16RevA.03 25-Dec-2016

 -----------------------------------
 #p cam-b3lyp/Def2SVP td=(nstates=5)
 -----------------------------------

 --------------------------------
 TDDFT excited states in gaussian
 --------------------------------
 Symbolic Z-matrix:
 Charge =  0 Multiplicity = 1

                         Standard orientation:
 ---------------------------------------------------------------------
 Center     Atomic      Atomic             Coordinates (Angstroms)
 Number     Number       Type             X           Y           Z
 ---------------------------------------------------------------------
      1         12           0       -6.659523   -0.430448    0.231400
      2          6           0       -6.655460    3.100649    0.817531
      3          6           0       -7.611537    0.252913   -2.973245
      4          6           0       -7.110247   -3.542009   -0.182916
      5          6           0       -6.823760   -0.854747    3.686636
      6          7           0       -7.049531    1.475378   -0.825182
      7          6           0       -6.954041    2.761829   -0.504094
      8          6           0       -7.126885    3.717207   -1.722598
      9          6           0       -7.965278    2.755962   -2.679208
     10          6           0       -7.488429    1.413652   -2.153146
     11          6           0       -9.473340    2.856370   -2.473858
     12          6           0       -5.755800    4.112899   -2.367024
     13          6           0       -5.809331    5.289151   -3.346268
     14          1           0       -4.684521    6.210947   -3.395697
     15          7           0       -6.793280   -1.496027   -1.426762
     16          6           0       -7.182163   -1.051458   -2.645948
     17          6           0       -7.115369   -2.222069   -3.546997
     18          6           0       -6.838854   -3.423855   -2.711927
     19          6           0       -6.930248   -2.865469   -1.387076
     20          6           0       -7.256495   -2.124145   -5.035031
     21          6           0       -6.550072   -4.851478   -3.053441
     22          8           0       -6.569129   -5.778633   -2.173330
     23          6           0       -6.328382   -5.154011   -4.479052
     24          7           0       -7.150147   -1.980910    1.540213
     25          6           0       -7.226429   -3.246189    1.113324
     26          6           0       -7.308972   -4.206242    2.262857
     27          6           0       -7.027424   -3.346013    3.578338
     28          6           0       -6.906091   -1.947517    2.924308
     29          6           0       -8.641144   -4.952984    2.416825
     30          6           0       -5.882276   -3.829654    4.503079
     31          6           0       -4.552519   -3.666614    3.801467
     32          7           0       -6.550843    0.857890    1.974793
     33          6           0       -6.665609    0.470696    3.317769
     34          6           0       -6.636736    1.703144    4.126661
     35          6           0       -6.523114    2.729443    3.190902
     36          6           0       -6.509944    2.175033    1.879129
     37          6           0       -6.769550    1.774692    5.541467
     38          6           0       -6.434569    4.167079    2.992859
     39          8           0       -6.307840    5.139034    3.739006
     40          6           0       -6.639385    4.473004    1.443573
     41          6           0       -5.554554    5.425903    1.021157
     42          8           0       -4.359145    5.067975    1.005320
     43          8           0       -6.110463    6.520760    0.480051
     44          6           0       -5.087843    7.494493    0.012883
     45          1           0       -8.136103    0.333926   -3.927293
     46          1           0       -7.158764   -4.629115   -0.273933
     47          1           0       -6.785381   -0.914376    4.775868
     48          1           0       -7.696440    4.622780   -1.512912
     49          1           0       -7.682654    2.875200   -3.724975
     50          1           0       -9.717637    3.478485   -1.612922
     51          1           0       -9.813961    1.833307   -2.313192
     52          1           0       -9.966484    3.196802   -3.384733
     53          1           0       -5.435560    3.321641   -3.044828
     54          1           0       -5.012408    4.319065   -1.596187
     55          1           0       -6.748380    5.836654   -3.260616
     56          1           0       -5.820463    4.889192   -4.360225
     57          1           0       -7.616763   -1.142253   -5.339399
     58          1           0       -8.054036   -2.807965   -5.324906
     59          1           0       -6.335701   -2.392563   -5.553127
     60          1           0       -7.211063   -4.864785   -5.049816
     61          1           0       -6.047967   -6.205806   -4.523175
     62          1           0       -5.508926   -4.536379   -4.847794
     63          1           0       -6.552583   -4.985278    2.176814
     64          1           0       -7.898018   -3.303368    4.233259
     65          1           0       -8.538226   -6.038361    2.408399
     66          1           0       -9.309197   -4.617347    1.624144
     67          1           0       -9.212080   -4.690434    3.307059
     68          1           0       -5.998454   -4.889302    4.728011
     69          1           0       -5.838187   -3.292389    5.450525
     70          1           0       -4.484159   -4.569971    3.196400
     71          1           0       -3.741495   -3.621779    4.529094
     72          1           0       -4.564338   -2.817038    3.118410
     73          1           0       -6.020099    2.488845    5.882462
     74          1           0       -6.624779    0.797994    6.002665
     75          1           0       -7.795942    2.130364    5.630200
     76          1           0       -7.631876    4.910186    1.338914
     77          1           0       -5.301371    8.444303    0.503293
     78          1           0       -5.112427    7.470865   -1.076723
     79          1           0       -4.064832    7.316262    0.346081
     80         12           0        6.548281   -1.126533   -0.235990
     81          6           0        7.622177    2.271469    0.187563
     82          6           0        4.721949   -0.058682   -2.911578
     83          6           0        5.233771   -4.011518   -0.364016
     84          6           0        7.508712   -1.695450    3.065471
     85          7           0        6.287501    0.872242   -1.146554
     86          6           0        6.793819    2.078187   -0.937562
     87          6           0        6.454369    3.118011   -2.038977
     88          6           0        5.113598    2.439426   -2.605291
     89          6           0        5.399376    0.985929   -2.233358
     90          6           0        3.858697    2.882341   -1.871541
     91          6           0        7.565691    3.203255   -3.143387
     92          6           0        7.451790    4.409160   -4.078580
     93          1           0        8.680164    5.033874   -4.561581
     94          7           0        5.580359   -2.032413   -1.712837
     95          6           0        4.912824   -1.445909   -2.728570
     96          6           0        4.359848   -2.545354   -3.534542
     97          6           0        4.616332   -3.825547   -2.820362
     98          6           0        5.146628   -3.326711   -1.567348
     99          6           0        3.738245   -2.332096   -4.884191
    100          6           0        4.405712   -5.260768   -3.197158
    101          8           0        4.477430   -6.202052   -2.330164
    102          6           0        4.021116   -5.522784   -4.591765
    103          7           0        6.195154   -2.580396    1.207602
    104          6           0        5.657383   -3.767381    0.876250
    105          6           0        5.752435   -4.747856    2.020809
    106          6           0        6.686910   -4.045190    3.111970
    107          6           0        6.907308   -2.683513    2.417232
    108          6           0        4.425967   -5.145943    2.667647
    109          6           0        7.932102   -4.841353    3.589755
    110          6           0        8.924058   -4.976613    2.457007
    111          7           0        7.576513   -0.007316    1.299629
    112          6           0        7.851330   -0.425105    2.620234
    113          6           0        8.465303    0.721508    3.320764
    114          6           0        8.484183    1.742120    2.358210
    115          6           0        7.903258    1.271449    1.149700
    116          6           0        8.872583    0.742047    4.684515
    117          6           0        8.853775    3.113879    2.092951
    118          8           0        9.462458    3.984985    2.712970
    119          6           0        8.196980    3.556791    0.714968
    120          6           0        9.256213    4.239618   -0.106183
    121          8           0       10.242529    3.604843   -0.519523
    122          8           0        8.824527    5.466819   -0.449698
    123          6           0        9.836267    6.179435   -1.274548
    124          1           0        3.938933    0.206530   -3.622515
    125          1           0        4.894430   -5.049691   -0.386683
    126          1           0        7.925351   -1.822664    4.066918
    127          1           0        6.240355    4.114737   -1.672239
    128          1           0        5.040413    2.549635   -3.684123
    129          1           0        4.089392    3.492034   -1.010618
    130          1           0        3.358947    1.971937   -1.567458
    131          1           0        3.175609    3.384787   -2.562387
    132          1           0        7.415774    2.390523   -3.865689
    133          1           0        8.543382    3.178753   -2.702771
    134          1           0        6.761605    5.168061   -3.690421
    135          1           0        6.991048    4.080975   -5.013481
    136          1           0        3.540490   -1.269659   -5.072641
    137          1           0        2.744652   -2.792304   -4.854935
    138          1           0        4.315673   -2.788860   -5.690792
    139          1           0        3.097806   -4.994402   -4.817110
    140          1           0        4.003907   -6.609878   -4.690841
    141          1           0        4.790922   -5.106497   -5.251084
    142          1           0        6.218972   -5.671536    1.701036
    143          1           0        6.140340   -3.837801    4.043678
    144          1           0        4.246358   -6.237613    2.658876
    145          1           0        3.627151   -4.625031    2.156687
    146          1           0        4.296338   -4.815150    3.696711
    147          1           0        7.645955   -5.856791    3.874630
    148          1           0        8.428358   -4.394721    4.444880
    149          1           0        8.543628   -5.836231    1.897165
    150          1           0        9.923080   -5.168052    2.843462
    151          1           0        8.883320   -4.106016    1.792126
    152          1           0        9.836614    1.232212    4.714191
    153          1           0        8.923522   -0.262469    5.099397
    154          1           0        8.058736    1.326204    5.122332
    155          1           0        7.365970    4.223793    0.947568
    156          1           0       10.047153    7.128477   -0.772007
    157          1           0        9.407421    6.233082   -2.292856
    158          1           0       10.828195    5.747150   -1.335000
 ---------------------------------------------------------------------

 SCF Done:  E(RCAM-B3LYP) =  -4069.81165615     A.U. after   19 cycles

 Excitation energies and oscillator strengths:

 Excited State   1:      Singlet-A      1.6655 eV  744.42 nm  f=0.0471  <S**2>=0.000
     309 -> 315       -0.10942
     310 -> 316        0.13190
     311 -> 313       -0.43675
     312 -> 314        0.52982
 This state for optimization and/or second-order correction.
 Total Energy, E(TD-HF/TD-DFT) =  -4069.75044934
 Copying the excited state density for this state as the 1-particle RhoCI density.

 Excited State   2:      Singlet-A      1.6886 eV  734.23 nm  f=0.7025  <S**2>=0.000
     309 -> 315        0.13743
     310 -> 316        0.11242
     311 -> 313        0.52863
     312 -> 314        0.43585

 Excited State   3:      Singlet-A      2.1844 eV  567.60 nm  f=0.0414  <S**2>=0.000
     309 -> 313       -0.19594
     310 -> 314        0.61266
     312 -> 316       -0.25880

 Excited State   4:      Singlet-A      2.1934 eV  565.25 nm  f=0.1475  <S**2>=0.000
     309 -> 313        0.61012
     310 -> 314        0.19416
     311 -> 315       -0.26593

 Excited State   5:      Singlet-A      2.6347 eV  470.58 nm  f=0.0000  <S**2>=0.000
     312 -> 313        0.70706

 The electronic state is 1-A.
 Alpha  occ. eigenvalues --  -46.87900 -46.87557 -19.26408 -19.26257 -19.19145
 Alpha  occ. eigenvalues --  -19.19069 -19.18907 -19.18634 -19.18267 -19.17947
 Alpha  occ. eigenvalues --  -14.42557 -14.42390 -14.41547 -14.41257 -14.39506
 Alpha  occ. eigenvalues --  -14.39251 -14.38688 -14.38496 -10.39203 -10.38996
 Alpha  occ. eigenvalues --  -10.35541 -10.35314 -10.34488 -10.34124 -10.31808
 Alpha  occ. eigenvalues --  -10.31675 -10.31513 -10.31198 -10.31022 -10.30921
 Alpha  occ. eigenvalues --  -10.30673 -10.30604 -10.30301 -10.30297 -10.30259
 Alpha  occ. eigenvalues --  -10.30045 -10.30010 -10.29791 -10.29730 -10.29355
 Alpha  occ. eigenvalues --  -10.29339 -10.29307 -10.28881 -10.28716 -10.28608
 Alpha  occ. eigenvalues --  -10.28584 -10.28470 -10.28303 -10.28239 -10.28014
 Alpha  occ. eigenvalues --  -10.27901 -10.27893 -10.27834 -10.27687 -10.27605
 Alpha  occ. eigenvalues --  -10.27573 -10.27565 -10.27519 -10.27509 -10.27427
 Alpha  occ. eigenvalues --  -10.27415 -10.27380 -10.27375 -10.27282 -10.27265
 Alpha  occ. eigenvalues --  -10.26941 -10.26871 -10.26606 -10.26515 -10.26363
 Alpha  occ. eigenvalues --  -10.26343 -10.26244 -10.26114 -10.26060 -10.25923
 Alpha  occ. eigenvalues --  -10.25841 -10.25835 -10.25747 -10.25496 -10.25299
 Alpha  occ. eigenvalues --  -10.24932 -10.24882 -10.24771 -10.24742 -10.24658
 Alpha  occ. eigenvalues --  -10.24588  -3.16643  -3.16306  -1.91525  -1.91188
 Alpha  occ. eigenvalues --   -1.91111  -1.90953  -1.90777  -1.90614  -1.16756
 Alpha  occ. eigenvalues --   -1.16551  -1.08726  -1.08554  -1.07307  -1.06887
 Alpha  occ. eigenvalues --   -1.06853  -1.06766  -1.04689  -1.04389  -1.03860
 Alpha  occ. eigenvalues --   -1.03560  -1.03334  -1.02938  -1.02511  -1.02009
 Alpha  occ. eigenvalues --   -0.92076  -0.91882  -0.89605  -0.89399  -0.89313
 Alpha  occ. eigenvalues --   -0.89035  -0.88369  -0.88126  -0.87966  -0.87782
 Alpha  occ. eigenvalues --   -0.87692  -0.87583  -0.87380  -0.87042  -0.85104
 Alpha  occ. eigenvalues --   -0.84895  -0.84015  -0.83785  -0.83065  -0.82858
 Alpha  occ. eigenvalues --   -0.82762  -0.82554  -0.81697  -0.81501  -0.80704
 Alpha  occ. eigenvalues --   -0.80347  -0.78901  -0.78548  -0.77322  -0.77047
 Alpha  occ. eigenvalues --   -0.77047  -0.76799  -0.76035  -0.75730  -0.74983
 Alpha  occ. eigenvalues --   -0.74706  -0.72872  -0.72598  -0.71772  -0.71473
 Alpha  occ. eigenvalues --   -0.69981  -0.69669  -0.68989  -0.68726  -0.67744
 Alpha  occ. eigenvalues --   -0.67506  -0.67350  -0.67114  -0.65406  -0.65168
 Alpha  occ. eigenvalues --   -0.64957  -0.64726  -0.64671  -0.64555  -0.64356
 Alpha  occ. eigenvalues --   -0.64109  -0.62407  -0.62184  -0.60541  -0.60254
 Alpha  occ. eigenvalues --   -0.59921  -0.59686  -0.59087  -0.58892  -0.58604
 Alpha  occ. eigenvalues --   -0.58327  -0.57692  -0.57453  -0.57403  -0.57144
 Alpha  occ. eigenvalues --   -0.56412  -0.56110  -0.56098  -0.55795  -0.55624
 Alpha  occ. eigenvalues --   -0.55429  -0.55363  -0.55153  -0.54620  -0.54395
 Alpha  occ. eigenvalues --   -0.54021  -0.53801  -0.53399  -0.53337  -0.53136
 Alpha  occ. eigenvalues --   -0.53047  -0.53023  -0.52869  -0.52807  -0.52586
 Alpha  occ. eigenvalues --   -0.52511  -0.52318  -0.52005  -0.51782  -0.51740
 Alpha  occ. eigenvalues --   -0.51565  -0.51296  -0.51103  -0.50682  -0.50406
 Alpha  occ. eigenvalues --   -0.50118  -0.50022  -0.49880  -0.49776  -0.49626
 Alpha  occ. eigenvalues --   -0.49393  -0.49320  -0.49209  -0.49102  -0.48991
 Alpha  occ. eigenvalues --   -0.48699  -0.48550  -0.48543  -0.48455  -0.48282
 Alpha  occ. eigenvalues --   -0.48254  -0.47801  -0.47501  -0.47398  -0.47031
 Alpha  occ. eigenvalues --   -0.46896  -0.46679  -0.46612  -0.46457  -0.46451
 Alpha  occ. eigenvalues --   -0.46257  -0.46178  -0.45988  -0.45925  -0.45721
 Alpha  occ. eigenvalues --   -0.45284  -0.45112  -0.44681  -0.44614  -0.44415
 Alpha  occ. eigenvalues --   -0.44376  -0.44240  -0.44202  -0.44124  -0.44019
 Alpha  occ. eigenvalues --   -0.43991  -0.43851  -0.43601  -0.43492  -0.43459
 Alpha  occ. eigenvalues --   -0.43284  -0.43127  -0.42837  -0.42809  -0.42801
 Alpha  occ. eigenvalues --   -0.42740  -0.42464  -0.42104  -0.41872  -0.41805
 Alpha  occ. eigenvalues --   -0.41654  -0.41566  -0.41361  -0.41244  -0.40982
 Alpha  occ. eigenvalues --   -0.40928  -0.40878  -0.40658  -0.40638  -0.40603
 Alpha  occ. eigenvalues --   -0.40396  -0.40379  -0.40138  -0.39513  -0.39339
 Alpha  occ. eigenvalues --   -0.38558  -0.38254  -0.37885  -0.37562  -0.37411
 Alpha  occ. eigenvalues --   -0.37385  -0.37169  -0.37098  -0.36824  -0.36679
 Alpha  occ. eigenvalues --   -0.36296  -0.36120  -0.34388  -0.34151  -0.33892
 Alpha  occ. eigenvalues --   -0.33768  -0.33288  -0.33074  -0.31436  -0.31192
 Alpha  occ. eigenvalues --   -0.31137  -0.30870  -0.30127  -0.29851  -0.29551
 Alpha  occ. eigenvalues --   -0.29421  -0.29234  -0.29110  -0.24183  -0.23932
 Alpha  occ. eigenvalues --   -0.21229  -0.21015
 Alpha virt. eigenvalues --   -0.08876  -0.08693  -0.01849  -0.01583  -0.00161
 Alpha virt. eigenvalues --    0.00064   0.02104   0.02309   0.03002   0.03317
 Alpha virt. eigenvalues --    0.04601   0.04835   0.04978   0.05260   0.06032

 Mulliken charges:
               1
     1  Mg   0.838429
     2  C   -0.003222
     3  C   -0.094640
     4  C   -0.045625
     5  C   -0.063722
     6  N   -0.256780
     7  C   -0.052624
     8  C   -0.013929
     9  C   -0.086933
    10  C    0.046134
    11  C    0.104788
    12  C    0.053659
    13  C   -0.071520
    14  H    0.035233
    15  N   -0.433153
    16  C    0.168242
    17  C   -0.177508
    18  C   -0.004000
    19  C    0.148668
    20  C    0.110254
    21  C    0.012341
    22  O   -0.249034
    23  C    0.062590
    24  N   -0.341134
    25  C    0.041266
    26  C   -0.028281
    27  C   -0.024036
    28  C    0.074862
    29  C    0.076077
    30  C    0.035050
    31  C   -0.004538
    32  N   -0.310496
    33  C    0.080428
    34  C   -0.169522
    35  C    0.008443
    36  C    0.082982
    37  C    0.127282
    38  C    0.046191
    39  O   -0.188135
    40  C   -0.005374
    41  C    0.213004
    42  O   -0.257531
    43  O   -0.304656
    44  C    0.157685
    45  H   -0.017662
    46  H   -0.016475
    47  H   -0.041202
    48  H    0.001127
    49  H   -0.004410
    50  H    0.025633
    51  H    0.016652
    52  H    0.016695
    53  H    0.010455
    54  H    0.043773
    55  H    0.018402
    56  H    0.017634
    57  H    0.005686
    58  H    0.027093
    59  H    0.038707
    60  H    0.037384
    61  H    0.036097
    62  H    0.030620
    63  H    0.016933
    64  H    0.009624
    65  H    0.023519
    66  H    0.012513
    67  H    0.004887
    68  H    0.006662
    69  H    0.004767
    70  H    0.009248
    71  H    0.018200
    72  H    0.028710
    73  H    0.047771
    74  H    0.009299
    75  H    0.046202
    76  H    0.035324
    77  H    0.043356
    78  H    0.046107
    79  H    0.053446
    80  Mg   0.838161
    81  C   -0.016764
    82  C   -0.087674
    83  C   -0.045425
    84  C   -0.064731
    85  N   -0.254583
    86  C   -0.049393
    87  C   -0.015143
    88  C   -0.090654
    89  C    0.045978
    90  C    0.114421
    91  C    0.062596
    92  C   -0.077653
    93  H    0.034424
    94  N   -0.423505
    95  C    0.162991
    96  C   -0.174696
    97  C   -0.007879
    98  C    0.152165
    99  C    0.099538
   100  C    0.015571
   101  O   -0.253112
   102  C    0.061296
   103  N   -0.349936
   104  C    0.037590
   105  C   -0.019872
   106  C   -0.034806
   107  C    0.088975
   108  C    0.073618
   109  C    0.034761
   110  C   -0.007626
   111  N   -0.324182
   112  C    0.078612
   113  C   -0.163013
   114  C    0.002447
   115  C    0.096255
   116  C    0.131427
   117  C    0.042524
   118  O   -0.187837
   119  C    0.000827
   120  C    0.211163
   121  O   -0.251260
   122  O   -0.305423
   123  C    0.152138
   124  H   -0.019879
   125  H   -0.015618
   126  H   -0.040529
   127  H   -0.000325
   128  H   -0.005032
   129  H    0.023508
   130  H    0.015333
   131  H    0.016262
   132  H    0.013629
   133  H    0.037543
   134  H    0.020957
   135  H    0.019195
   136  H    0.008374
   137  H    0.025556
   138  H    0.039281
   139  H    0.037853
   140  H    0.036250
   141  H    0.033604
   142  H    0.014188
   143  H    0.012513
   144  H    0.024916
   145  H    0.012126
   146  H    0.005586
   147  H    0.006084
   148  H    0.003581
   149  H    0.010832
   150  H    0.017728
   151  H    0.030151
   152  H    0.045825
   153  H    0.008328
   154  H    0.047495
   155  H    0.035777
   156  H    0.043887
   157  H    0.049335
   158  H    0.053372
 Sum of Mulliken charges =  -0.00000

 Dipole moment (field-independent basis, Debye):
    X=             -5.7265    Y=             -0.6549    Z=             -6.6113  Tot=              8.7710
 Quadrupole moment (field-independent basis, Debye-Ang):
   XX=           -539.9923   YY=           -534.5203   ZZ=           -460.5139
   XY=            -13.8469   XZ=             10.5480   YZ=            -55.4278

 Normal termination of Gaussian 16 at Sat Sep 11 10:33:27 2021.
