 Gaussian 16, Revision A.03,
 Gaussian 16:  ES64L-G16RevA.03 25-Dec-2016

 -----------------------------------
 #p cam-b3lyp/Def2SVP td=(nstates=5)
 -----------------------------------

 --------------------------------
 TDDFT excited states in gaussian
 --------------------------------
 Symbolic Z-matrix:
 Charge =  0 Multiplicity = 1

                         Standard orientation:
 ---------------------------------------------------------------------
 Center     Atomic      Atomic             Coordinates (Angstroms)
 Number     Number       Type             X           Y           Z
 ---------------------------------------------------------------------
      1         12           0        6.360044   -1.130016    0.231336
      2          6           0        6.795444    2.364663   -0.408866
      3          6           0        7.143475   -0.479140    3.487970
      4          6           0        6.427011   -4.261444    0.727622
      5          6           0        6.730317   -1.653098   -3.194294
      6          7           0        6.882315    0.745855    1.284421
      7          6           0        6.955724    2.026850    0.936808
      8          6           0        7.144212    2.986334    2.149752
      9          6           0        7.796535    1.961549    3.182365
     10          6           0        7.212258    0.667973    2.642729
     11          6           0        9.317361    1.889433    3.090771
     12          6           0        5.782359    3.546784    2.681713
     13          6           0        5.895062    4.733157    3.643571
     14          1           0        4.880208    5.774714    3.592792
     15          7           0        6.250609   -2.163548    1.911422
     16          6           0        6.595823   -1.735481    3.149514
     17          6           0        6.331774   -2.869431    4.061170
     18          6           0        5.984597   -4.053015    3.226489
     19          6           0        6.235631   -3.540293    1.903811
     20          6           0        6.372734   -2.751870    5.553903
     21          6           0        5.513052   -5.431245    3.567456
     22          8           0        5.492905   -6.375768    2.706035
     23          6           0        5.154166   -5.672910    4.976654
     24          7           0        6.768918   -2.756370   -1.011817
     25          6           0        6.671040   -4.011651   -0.560516
     26          6           0        6.730007   -5.002385   -1.685198
     27          6           0        6.644649   -4.148257   -3.031651
     28          6           0        6.633018   -2.729559   -2.410820
     29          6           0        7.977701   -5.895489   -1.725622
     30          6           0        5.523898   -4.524334   -4.033101
     31          6           0        4.172674   -4.198233   -3.437324
     32          7           0        6.525614    0.120010   -1.535318
     33          6           0        6.695063   -0.309785   -2.859416
     34          6           0        6.864444    0.898416   -3.687443
     35          6           0        6.797896    1.953254   -2.779295
     36          6           0        6.625790    1.435508   -1.463769
     37          6           0        7.108547    0.920680   -5.088997
     38          6           0        6.856817    3.396212   -2.611195
     39          8           0        6.895371    4.357942   -3.380014
     40          6           0        6.979703    3.714863   -1.055822
     41          6           0        5.980415    4.791894   -0.732189
     42          8           0        4.754512    4.568970   -0.801703
     43          8           0        6.614164    5.831221   -0.167650
     44          6           0        5.675556    6.923145    0.205004
     45          1           0        7.601933   -0.433702    4.477764
     46          1           0        6.346407   -5.344727    0.839152
     47          1           0        6.766023   -1.734364   -4.282216
     48          1           0        7.825685    3.817977    1.969783
     49          1           0        7.452632    2.136524    4.201598
     50          1           0        9.692809    2.459738    2.241235
     51          1           0        9.551983    0.831378    2.972590
     52          1           0        9.776973    2.195057    4.031052
     53          1           0        5.326203    2.812414    3.345553
     54          1           0        5.125748    3.815317    1.853414
     55          1           0        6.893351    5.171127    3.620999
     56          1           0        5.786355    4.358995    4.661602
     57          1           0        6.817421   -1.808836    5.869314
     58          1           0        7.064929   -3.512575    5.914324
     59          1           0        5.391915   -2.904144    6.004611
     60          1           0        6.019154   -5.469482    5.608289
     61          1           0        4.755035   -6.685830    5.015855
     62          1           0        4.384199   -4.959656    5.272235
     63          1           0        5.886718   -5.690608   -1.644701
     64          1           0        7.560497   -4.218046   -3.619039
     65          1           0        7.753326   -6.962284   -1.707981
     66          1           0        8.618827   -5.616840   -0.889797
     67          1           0        8.638652   -5.719296   -2.573865
     68          1           0        5.536751   -5.595445   -4.231851
     69          1           0        5.610440   -4.008497   -4.989487
     70          1           0        3.958911   -5.073615   -2.825079
     71          1           0        3.427754   -4.081465   -4.225151
     72          1           0        4.229264   -3.338960   -2.768793
     73          1           0        6.471185    1.704967   -5.497202
     74          1           0        6.889568   -0.044830   -5.544454
     75          1           0        8.172094    1.158313   -5.104980
     76          1           0        8.004521    4.041898   -0.882857
     77          1           0        6.029918    7.831378   -0.282619
     78          1           0        5.616813    6.923228    1.293560
     79          1           0        4.666421    6.851260   -0.202203
     80         12           0       -6.843291   -0.344259   -0.302618
     81          6           0       -5.134785    2.807340   -0.468405
     82          6           0       -7.451643    0.327958    2.985643
     83          6           0       -7.957344   -3.300427   -0.007022
     84          6           0       -5.146964   -1.259036   -3.206296
     85          7           0       -6.311591    1.378711    0.978375
     86          6           0       -5.714639    2.546055    0.790538
     87          6           0       -5.810540    3.518902    1.996324
     88          6           0       -6.033584    2.436501    3.161450
     89          6           0       -6.671764    1.319382    2.338365
     90          6           0       -4.735416    1.912387    3.752548
     91          6           0       -7.031877    4.497027    1.879492
     92          6           0       -7.010323    5.672551    2.858996
     93          1           0       -7.534358    6.960349    2.412412
     94          7           0       -8.008684   -1.144208    1.090408
     95          6           0       -8.151925   -0.730998    2.367131
     96          6           0       -9.106545   -1.663034    2.986950
     97          6           0       -9.388910   -2.757774    2.019200
     98          6           0       -8.425602   -2.447624    0.981924
     99          6           0       -9.715133   -1.425288    4.338436
    100          6           0      -10.355954   -3.902707    2.031832
    101          8           0      -10.265771   -4.869513    1.195191
    102          6           0      -11.354395   -3.905654    3.111000
    103          7           0       -6.434642   -2.112949   -1.316064
    104          6           0       -7.097334   -3.245909   -1.024238
    105          6           0       -6.835925   -4.313042   -2.060239
    106          6           0       -6.048115   -3.579689   -3.243079
    107          6           0       -5.905921   -2.174071   -2.619048
    108          6           0       -6.028464   -5.519940   -1.582972
    109          6           0       -6.651469   -3.697531   -4.669521
    110          6           0       -7.963598   -2.949901   -4.738289
    111          7           0       -5.544214    0.640374   -1.720703
    112          6           0       -4.923527    0.065091   -2.851131
    113          6           0       -4.045511    1.097834   -3.438465
    114          6           0       -4.199934    2.203712   -2.588946
    115          6           0       -5.094410    1.876266   -1.534339
    116          6           0       -3.210265    0.929260   -4.578672
    117          6           0       -3.801455    3.570166   -2.338526
    118          8           0       -3.129667    4.404061   -2.944390
    119          6           0       -4.291185    3.980757   -0.883209
    120          6           0       -4.959567    5.324786   -0.980014
    121          8           0       -6.016692    5.460266   -1.620917
    122          8           0       -4.362930    6.176154   -0.125876
    123          6           0       -4.998025    7.519960   -0.177439
    124          1           0       -7.499343    0.334709    4.074934
    125          1           0       -8.396877   -4.300545   -0.014121
    126          1           0       -4.659943   -1.434250   -4.167959
    127          1           0       -4.912316    4.093137    2.189264
    128          1           0       -6.729300    2.802043    3.912269
    129          1           0       -3.872739    2.267799    3.208843
    130          1           0       -4.800575    0.833717    3.695488
    131          1           0       -4.681122    2.155121    4.817666
    132          1           0       -7.937572    3.981707    2.224333
    133          1           0       -7.131392    4.864154    0.876530
    134          1           0       -6.027435    5.799656    3.328808
    135          1           0       -7.678044    5.441901    3.692643
    136          1           0       -9.192512   -0.627303    4.880193
    137          1           0       -9.530107   -2.325010    4.935198
    138          1           0      -10.791713   -1.248303    4.290357
    139          1           0      -10.846755   -3.905469    4.072649
    140          1           0      -12.010389   -4.752395    2.899880
    141          1           0      -11.929189   -2.974272    3.058366
    142          1           0       -7.765415   -4.709563   -2.450023
    143          1           0       -5.028786   -3.975869   -3.360698
    144          1           0       -6.553485   -6.482508   -1.730960
    145          1           0       -5.784850   -5.376296   -0.538680
    146          1           0       -5.044799   -5.626304   -2.037160
    147          1           0       -6.876699   -4.741629   -4.900380
    148          1           0       -5.992270   -3.330325   -5.449026
    149          1           0       -8.680369   -3.671838   -4.335636
    150          1           0       -8.202224   -2.688731   -5.767317
    151          1           0       -7.957830   -2.082353   -4.068230
    152          1           0       -3.323750    1.819992   -5.182162
    153          1           0       -3.475240    0.033617   -5.136684
    154          1           0       -2.234675    0.837238   -4.093895
    155          1           0       -3.412939    4.005890   -0.236968
    156          1           0       -4.203767    8.240551   -0.395638
    157          1           0       -5.532239    7.635022    0.784395
    158          1           0       -5.690266    7.716393   -0.987795
 ---------------------------------------------------------------------

 SCF Done:  E(RCAM-B3LYP) =  -4069.81120800     A.U. after   19 cycles

 Excitation energies and oscillator strengths:

 Excited State   1:      Singlet-A      1.6654 eV  744.46 nm  f=0.0719  <S**2>=0.000
     309 -> 315       -0.11166
     310 -> 316       -0.13003
     311 -> 313       -0.44604
     312 -> 314        0.52198
 This state for optimization and/or second-order correction.
 Total Energy, E(TD-HF/TD-DFT) =  -4069.75000470
 Copying the excited state density for this state as the 1-particle RhoCI density.

 Excited State   2:      Singlet-A      1.6899 eV  733.69 nm  f=0.6792  <S**2>=0.000
     309 -> 315        0.13520
     310 -> 316       -0.11490
     311 -> 313        0.52080
     312 -> 314        0.44516

 Excited State   3:      Singlet-A      2.1851 eV  567.40 nm  f=0.0290  <S**2>=0.000
     309 -> 313        0.24583
     310 -> 314        0.59421
     311 -> 315       -0.10362
     312 -> 316        0.25180

 Excited State   4:      Singlet-A      2.1932 eV  565.30 nm  f=0.1586  <S**2>=0.000
     309 -> 313        0.59165
     310 -> 314       -0.24391
     311 -> 315       -0.25825
     312 -> 316       -0.10680

 Excited State   5:      Singlet-A      2.6628 eV  465.61 nm  f=0.0000  <S**2>=0.000
     312 -> 313        0.70705

 The electronic state is 1-A.
 Alpha  occ. eigenvalues --  -46.87746 -46.87528 -19.26182 -19.26141 -19.18995
 Alpha  occ. eigenvalues --  -19.18866 -19.18784 -19.18601 -19.18072 -19.17840
 Alpha  occ. eigenvalues --  -14.42400 -14.42370 -14.41402 -14.41227 -14.39354
 Alpha  occ. eigenvalues --  -14.39220 -14.38528 -14.38457 -10.38935 -10.38923
 Alpha  occ. eigenvalues --  -10.35419 -10.35281 -10.34292 -10.34019 -10.31606
 Alpha  occ. eigenvalues --  -10.31527 -10.31346 -10.31170 -10.30900 -10.30859
 Alpha  occ. eigenvalues --  -10.30510 -10.30453 -10.30254 -10.30213 -10.30172
 Alpha  occ. eigenvalues --  -10.30025 -10.29869 -10.29754 -10.29576 -10.29310
 Alpha  occ. eigenvalues --  -10.29258 -10.29210 -10.28697 -10.28606 -10.28570
 Alpha  occ. eigenvalues --  -10.28496 -10.28307 -10.28263 -10.28069 -10.28033
 Alpha  occ. eigenvalues --  -10.27849 -10.27733 -10.27679 -10.27544 -10.27535
 Alpha  occ. eigenvalues --  -10.27475 -10.27459 -10.27420 -10.27407 -10.27367
 Alpha  occ. eigenvalues --  -10.27345 -10.27344 -10.27329 -10.27261 -10.27061
 Alpha  occ. eigenvalues --  -10.26862 -10.26652 -10.26591 -10.26399 -10.26327
 Alpha  occ. eigenvalues --  -10.26190 -10.26173 -10.26039 -10.25973 -10.25932
 Alpha  occ. eigenvalues --  -10.25804 -10.25761 -10.25640 -10.25408 -10.25288
 Alpha  occ. eigenvalues --  -10.24767 -10.24739 -10.24714 -10.24691 -10.24634
 Alpha  occ. eigenvalues --  -10.24556  -3.16489  -3.16278  -1.91370  -1.91160
 Alpha  occ. eigenvalues --   -1.90957  -1.90799  -1.90749  -1.90585  -1.16489
 Alpha  occ. eigenvalues --   -1.16476  -1.08523  -1.08441  -1.07186  -1.06856
 Alpha  occ. eigenvalues --   -1.06776  -1.06492  -1.04528  -1.04365  -1.03712
 Alpha  occ. eigenvalues --   -1.03530  -1.03181  -1.02903  -1.02359  -1.01974
 Alpha  occ. eigenvalues --   -0.91904  -0.91835  -0.89481  -0.89368  -0.89138
 Alpha  occ. eigenvalues --   -0.89039  -0.88250  -0.88100  -0.87804  -0.87628
 Alpha  occ. eigenvalues --   -0.87624  -0.87556  -0.87235  -0.87000  -0.84932
 Alpha  occ. eigenvalues --   -0.84883  -0.83899  -0.83755  -0.82939  -0.82822
 Alpha  occ. eigenvalues --   -0.82595  -0.82534  -0.81497  -0.81447  -0.80530
 Alpha  occ. eigenvalues --   -0.80305  -0.78750  -0.78501  -0.77173  -0.77022
 Alpha  occ. eigenvalues --   -0.76874  -0.76773  -0.75855  -0.75707  -0.74853
 Alpha  occ. eigenvalues --   -0.74678  -0.72720  -0.72557  -0.71619  -0.71452
 Alpha  occ. eigenvalues --   -0.69882  -0.69646  -0.68822  -0.68706  -0.67585
 Alpha  occ. eigenvalues --   -0.67464  -0.67174  -0.67088  -0.65229  -0.65146
 Alpha  occ. eigenvalues --   -0.64790  -0.64636  -0.64560  -0.64521  -0.64227
 Alpha  occ. eigenvalues --   -0.64079  -0.62199  -0.62129  -0.60402  -0.60216
 Alpha  occ. eigenvalues --   -0.59752  -0.59672  -0.58931  -0.58856  -0.58443
 Alpha  occ. eigenvalues --   -0.58284  -0.57491  -0.57382  -0.57249  -0.57100
 Alpha  occ. eigenvalues --   -0.56252  -0.56063  -0.55878  -0.55744  -0.55470
 Alpha  occ. eigenvalues --   -0.55320  -0.55279  -0.55112  -0.54445  -0.54352
 Alpha  occ. eigenvalues --   -0.53842  -0.53799  -0.53250  -0.53168  -0.53096
 Alpha  occ. eigenvalues --   -0.53013  -0.52838  -0.52769  -0.52717  -0.52561
 Alpha  occ. eigenvalues --   -0.52408  -0.52287  -0.51838  -0.51698  -0.51563
 Alpha  occ. eigenvalues --   -0.51541  -0.51130  -0.51050  -0.50549  -0.50371
 Alpha  occ. eigenvalues --   -0.50002  -0.49879  -0.49866  -0.49749  -0.49464
 Alpha  occ. eigenvalues --   -0.49369  -0.49148  -0.49065  -0.49038  -0.48962
 Alpha  occ. eigenvalues --   -0.48518  -0.48422  -0.48416  -0.48381  -0.48246
 Alpha  occ. eigenvalues --   -0.48203  -0.47644  -0.47471  -0.47246  -0.46996
 Alpha  occ. eigenvalues --   -0.46748  -0.46582  -0.46502  -0.46440  -0.46306
 Alpha  occ. eigenvalues --   -0.46139  -0.46095  -0.45940  -0.45737  -0.45663
 Alpha  occ. eigenvalues --   -0.45162  -0.45086  -0.44501  -0.44470  -0.44383
 Alpha  occ. eigenvalues --   -0.44340  -0.44103  -0.44040  -0.43996  -0.43953
 Alpha  occ. eigenvalues --   -0.43949  -0.43798  -0.43412  -0.43408  -0.43339
 Alpha  occ. eigenvalues --   -0.43254  -0.42968  -0.42787  -0.42743  -0.42648
 Alpha  occ. eigenvalues --   -0.42550  -0.42436  -0.41964  -0.41845  -0.41640
 Alpha  occ. eigenvalues --   -0.41511  -0.41485  -0.41343  -0.41089  -0.40862
 Alpha  occ. eigenvalues --   -0.40828  -0.40791  -0.40613  -0.40589  -0.40531
 Alpha  occ. eigenvalues --   -0.40372  -0.40189  -0.40124  -0.39421  -0.39316
 Alpha  occ. eigenvalues --   -0.38434  -0.38235  -0.37698  -0.37543  -0.37280
 Alpha  occ. eigenvalues --   -0.37208  -0.37143  -0.37074  -0.36618  -0.36609
 Alpha  occ. eigenvalues --   -0.36111  -0.36085  -0.34231  -0.34116  -0.33701
 Alpha  occ. eigenvalues --   -0.33635  -0.33124  -0.33039  -0.31313  -0.31160
 Alpha  occ. eigenvalues --   -0.30981  -0.30839  -0.29930  -0.29743  -0.29399
 Alpha  occ. eigenvalues --   -0.29256  -0.29192  -0.29050  -0.24026  -0.23900
 Alpha  occ. eigenvalues --   -0.21076  -0.20982
 Alpha virt. eigenvalues --   -0.08721  -0.08651  -0.01703  -0.01555  -0.00011
 Alpha virt. eigenvalues --    0.00101   0.02273   0.02379   0.03170   0.03348
 Alpha virt. eigenvalues --    0.04767   0.04849   0.05232   0.05334   0.06229

 Mulliken charges:
               1
     1  Mg   0.838685
     2  C   -0.002627
     3  C   -0.094320
     4  C   -0.045991
     5  C   -0.064105
     6  N   -0.256707
     7  C   -0.052445
     8  C   -0.013956
     9  C   -0.086954
    10  C    0.046193
    11  C    0.104865
    12  C    0.053546
    13  C   -0.071632
    14  H    0.036157
    15  N   -0.433070
    16  C    0.168209
    17  C   -0.177430
    18  C   -0.004233
    19  C    0.148573
    20  C    0.110271
    21  C    0.012092
    22  O   -0.249864
    23  C    0.062586
    24  N   -0.341102
    25  C    0.041061
    26  C   -0.028068
    27  C   -0.024013
    28  C    0.074868
    29  C    0.076209
    30  C    0.035190
    31  C   -0.004429
    32  N   -0.310661
    33  C    0.080640
    34  C   -0.169307
    35  C    0.008806
    36  C    0.083300
    37  C    0.127106
    38  C    0.046912
    39  O   -0.187354
    40  C   -0.005620
    41  C    0.212907
    42  O   -0.255654
    43  O   -0.305228
    44  C    0.157223
    45  H   -0.017864
    46  H   -0.017093
    47  H   -0.041471
    48  H    0.001077
    49  H   -0.004371
    50  H    0.025546
    51  H    0.016379
    52  H    0.016429
    53  H    0.010696
    54  H    0.044834
    55  H    0.017898
    56  H    0.017351
    57  H    0.005670
    58  H    0.026646
    59  H    0.038965
    60  H    0.037291
    61  H    0.035430
    62  H    0.031144
    63  H    0.016257
    64  H    0.009504
    65  H    0.023023
    66  H    0.012582
    67  H    0.004707
    68  H    0.006157
    69  H    0.004848
    70  H    0.008514
    71  H    0.017502
    72  H    0.029311
    73  H    0.048573
    74  H    0.008943
    75  H    0.045958
    76  H    0.034979
    77  H    0.043013
    78  H    0.045668
    79  H    0.055276
    80  Mg   0.837620
    81  C   -0.016691
    82  C   -0.087978
    83  C   -0.045667
    84  C   -0.064925
    85  N   -0.254432
    86  C   -0.049761
    87  C   -0.015024
    88  C   -0.090530
    89  C    0.045599
    90  C    0.114388
    91  C    0.062611
    92  C   -0.077620
    93  H    0.034695
    94  N   -0.423403
    95  C    0.162644
    96  C   -0.175029
    97  C   -0.008091
    98  C    0.151904
    99  C    0.099541
   100  C    0.015325
   101  O   -0.253512
   102  C    0.061303
   103  N   -0.350060
   104  C    0.037365
   105  C   -0.019740
   106  C   -0.034817
   107  C    0.089144
   108  C    0.073725
   109  C    0.034751
   110  C   -0.007609
   111  N   -0.324317
   112  C    0.078670
   113  C   -0.162897
   114  C    0.003177
   115  C    0.096018
   116  C    0.131509
   117  C    0.043534
   118  O   -0.185408
   119  C    0.000524
   120  C    0.211362
   121  O   -0.251406
   122  O   -0.305302
   123  C    0.152114
   124  H   -0.020307
   125  H   -0.015886
   126  H   -0.040395
   127  H   -0.000443
   128  H   -0.004780
   129  H    0.022997
   130  H    0.014235
   131  H    0.015328
   132  H    0.013767
   133  H    0.037832
   134  H    0.020554
   135  H    0.019213
   136  H    0.008347
   137  H    0.025611
   138  H    0.039404
   139  H    0.037996
   140  H    0.036055
   141  H    0.033756
   142  H    0.014145
   143  H    0.012405
   144  H    0.024831
   145  H    0.011664
   146  H    0.005657
   147  H    0.005992
   148  H    0.003609
   149  H    0.010788
   150  H    0.017783
   151  H    0.030251
   152  H    0.046456
   153  H    0.007776
   154  H    0.049025
   155  H    0.036570
   156  H    0.044177
   157  H    0.048830
   158  H    0.053453
 Sum of Mulliken charges =  -0.00000

 Dipole moment (field-independent basis, Debye):
    X=              1.4433    Y=             -1.5195    Z=              8.1657  Tot=              8.4303
 Quadrupole moment (field-independent basis, Debye-Ang):
   XX=           -492.1747   YY=           -533.2915   ZZ=           -463.8915
   XY=            -15.1476   XZ=             -4.6600   YZ=             57.3469

 Normal termination of Gaussian 16 at Sat Sep 11 13:44:57 2021.
