 Gaussian 16, Revision A.03,
 Gaussian 16:  ES64L-G16RevA.03 25-Dec-2016

 -----------------------------------
 #p cam-b3lyp/Def2SVP td=(nstates=5)
 -----------------------------------

 --------------------------------
 TDDFT excited states in gaussian
 --------------------------------
 Symbolic Z-matrix:
 Charge =  0 Multiplicity = 1

                         Standard orientation:
 ---------------------------------------------------------------------
 Center     Atomic      Atomic             Coordinates (Angstroms)
 Number     Number       Type             X           Y           Z
 ---------------------------------------------------------------------
      1         12           0       -5.156168    0.491411   -0.825193
      2          6           0       -5.597204   -2.474941    1.128894
      3          6           0       -6.481779    2.233706    1.792101
      4          6           0       -5.199073    3.053418   -2.693588
      5          6           0       -4.944815   -1.565488   -3.630574
      6          7           0       -5.905380   -0.151241    1.156303
      7          6           0       -5.963625   -1.309596    1.805911
      8          6           0       -6.379336   -1.159855    3.299944
      9          6           0       -7.156996    0.228880    3.206880
     10          6           0       -6.449800    0.822981    2.001541
     11          6           0       -8.639234    0.076497    2.880918
     12          6           0       -5.141955   -1.060715    4.254298
     13          6           0       -5.449505   -1.240438    5.743749
     14          1           0       -4.475171   -1.921660    6.582771
     15          7           0       -5.288086    2.408721   -0.367624
     16          6           0       -5.844767    2.938627    0.747989
     17          6           0       -5.695484    4.404343    0.621211
     18          6           0       -5.177583    4.692476   -0.745117
     19          6           0       -5.226299    3.381392   -1.340148
     20          6           0       -5.983395    5.360380    1.737836
     21          6           0       -4.722444    5.951690   -1.412471
     22          8           0       -4.530590    6.021551   -2.674566
     23          6           0       -4.590516    7.140856   -0.551354
     24          7           0       -5.302373    0.738806   -2.892814
     25          6           0       -5.237776    1.953627   -3.448709
     26          6           0       -5.079429    1.865031   -4.937674
     27          6           0       -4.803923    0.326013   -5.262133
     28          6           0       -4.940945   -0.245430   -3.829322
     29          6           0       -6.273404    2.355847   -5.768056
     30          6           0       -3.522885   -0.004245   -6.068539
     31          6           0       -2.298608    0.304756   -5.236216
     32          7           0       -5.072671   -1.645121   -1.198429
     33          6           0       -5.009370   -2.281125   -2.446694
     34          6           0       -5.081425   -3.732383   -2.196241
     35          6           0       -5.199089   -3.839889   -0.811884
     36          6           0       -5.226865   -2.537479   -0.236341
     37          6           0       -5.094126   -4.750040   -3.190548
     38          6           0       -5.332598   -4.751403    0.312915
     39          8           0       -5.277121   -5.974442    0.449259
     40          6           0       -5.718199   -3.901753    1.603355
     41          6           0       -4.821497   -4.347910    2.725931
     42          8           0       -3.593959   -4.125884    2.690976
     43          8           0       -5.573084   -4.748792    3.762730
     44          6           0       -4.744710   -5.176824    4.921496
     45          1           0       -7.096879    2.851124    2.449663
     46          1           0       -5.101778    3.907199   -3.367406
     47          1           0       -4.799772   -2.271404   -4.450389
     48          1           0       -7.049571   -1.938086    3.665409
     49          1           0       -6.990053    0.848596    4.087677
     50          1           0       -8.889756   -0.956198    2.638633
     51          1           0       -8.816111    0.722927    2.021072
     52          1           0       -9.256042    0.474640    3.687024
     53          1           0       -4.776091   -0.034007    4.262970
     54          1           0       -4.368266   -1.769814    3.957799
     55          1           0       -6.444730   -1.658482    5.897619
     56          1           0       -5.496018   -0.253602    6.204392
     57          1           0       -6.504702    4.871049    2.559626
     58          1           0       -6.699449    6.088369    1.357038
     59          1           0       -5.084767    5.873359    2.080842
     60          1           0       -5.553269    7.358606   -0.088492
     61          1           0       -4.169678    7.923400   -1.181726
     62          1           0       -3.903257    6.912104    0.263690
     63          1           0       -4.231646    2.458903   -5.276798
     64          1           0       -5.608797   -0.119000   -5.847636
     65          1           0       -6.019572    3.145508   -6.475665
     66          1           0       -7.051247    2.683474   -5.078917
     67          1           0       -6.792549    1.577432   -6.326603
     68          1           0       -3.467509    0.615490   -6.962859
     69          1           0       -3.469288   -1.046466   -6.383424
     70          1           0       -2.158642    1.373198   -5.396449
     71          1           0       -1.439402   -0.260300   -5.599105
     72          1           0       -2.492082    0.157225   -4.173536
     73          1           0       -4.425124   -5.533182   -2.834046
     74          1           0       -4.771771   -4.363344   -4.157066
     75          1           0       -6.148110   -5.027355   -3.182210
     76          1           0       -6.767806   -4.106888    1.811605
     77          1           0       -5.044741   -6.194376    5.172102
     78          1           0       -4.864441   -4.410762    5.687797
     79          1           0       -3.680823   -5.317821    4.727578
     80         12           0        5.308957    0.710956    0.786489
     81          6           0        5.549188   -1.782865   -1.782983
     82          6           0        4.156696   -1.744808    2.854378
     83          6           0        4.660486    2.958095    2.930615
     84          6           0        5.373923    3.115964   -1.734897
     85          7           0        4.944242   -1.446342    0.461978
     86          6           0        5.130260   -2.295362   -0.537480
     87          6           0        4.928885   -3.787473   -0.159814
     88          6           0        3.961175   -3.586659    1.105932
     89          6           0        4.399772   -2.186242    1.529178
     90          6           0        2.488383   -3.534250    0.735157
     91          6           0        6.272409   -4.486997    0.249582
     92          6           0        6.203620   -6.013519    0.331750
     93          1           0        7.376457   -6.785692   -0.069086
     94          7           0        4.995325    0.568915    2.740983
     95          6           0        4.547649   -0.509913    3.416998
     96          6           0        4.468454   -0.096962    4.826730
     97          6           0        4.748545    1.362562    4.904425
     98          6           0        4.792796    1.697862    3.495276
     99          6           0        4.230550   -1.067630    5.946832
    100          6           0        4.931890    2.303537    6.056454
    101          8           0        4.930225    3.574953    5.894214
    102          6           0        5.019910    1.695372    7.392070
    103          7           0        4.840840    2.729402    0.615987
    104          6           0        4.656706    3.491073    1.708629
    105          6           0        4.604938    4.956899    1.349357
    106          6           0        5.036261    5.037800   -0.188499
    107          6           0        5.182891    3.530132   -0.489849
    108          6           0        3.249941    5.639680    1.534216
    109          6           0        6.220333    5.980144   -0.538699
    110          6           0        7.501871    5.441264    0.055156
    111          7           0        5.621767    0.715126   -1.351305
    112          6           0        5.581273    1.829942   -2.217113
    113          6           0        5.738955    1.317919   -3.593849
    114          6           0        5.837966   -0.072465   -3.434067
    115          6           0        5.728057   -0.405289   -2.056880
    116          6           0        5.727045    2.104235   -4.780308
    117          6           0        5.999797   -1.335162   -4.118256
    118          8           0        6.228024   -1.670843   -5.279709
    119          6           0        5.693249   -2.509166   -3.091549
    120          6           0        6.793003   -3.528527   -3.209727
    121          8           0        7.958379   -3.241673   -2.883800
    122          8           0        6.252344   -4.730769   -3.479293
    123          6           0        7.302889   -5.777105   -3.594825
    124          1           0        3.574471   -2.386412    3.516380
    125          1           0        4.545980    3.782287    3.638484
    126          1           0        5.502655    3.810433   -2.567848
    127          1           0        4.433147   -4.384499   -0.915840
    128          1           0        4.180345   -4.307823    1.889035
    129          1           0        2.342458   -3.522262   -0.334755
    130          1           0        2.105366   -2.624888    1.179453
    131          1           0        1.949073   -4.355159    1.216378
    132          1           0        6.493163   -4.252122    1.298792
    133          1           0        7.069018   -4.196006   -0.407211
    134          1           0        5.299904   -6.411690   -0.145433
    135          1           0        6.101117   -6.300283    1.381165
    136          1           0        3.896531   -2.042350    5.570309
    137          1           0        3.376779   -0.690954    6.520463
    138          1           0        5.090675   -1.160768    6.613314
    139          1           0        4.116813    1.122266    7.588148
    140          1           0        5.239081    2.519001    8.074335
    141          1           0        5.852296    0.982837    7.397878
    142          1           0        5.310446    5.525618    1.942591
    143          1           0        4.216773    5.406776   -0.822644
    144          1           0        3.291623    6.517576    2.206243
    145          1           0        2.546937    4.907360    1.908437
    146          1           0        2.770612    5.971232    0.614691
    147          1           0        6.063384    6.966430   -0.095110
    148          1           0        6.356465    6.124688   -1.605261
    149          1           0        7.468573    5.805972    1.086160
    150          1           0        8.365781    5.836305   -0.475537
    151          1           0        7.488222    4.345789    0.092410
    152          1           0        6.530488    1.737304   -5.405081
    153          1           0        5.847331    3.162326   -4.557258
    154          1           0        4.726259    1.875141   -5.156082
    155          1           0        4.719320   -2.925687   -3.351462
    156          1           0        7.176361   -6.250189   -4.573527
    157          1           0        7.181527   -6.421935   -2.704193
    158          1           0        8.333950   -5.448110   -3.650669
 ---------------------------------------------------------------------

 SCF Done:  E(RCAM-B3LYP) =  -4069.81237595     A.U. after   19 cycles

 Excitation energies and oscillator strengths:

 Excited State   1:      Singlet-A      1.6716 eV  741.69 nm  f=0.2954  <S**2>=0.000
     310 -> 316        0.15461
     311 -> 313       -0.29954
     312 -> 314        0.61735
 This state for optimization and/or second-order correction.
 Total Energy, E(TD-HF/TD-DFT) =  -4069.75094432
 Copying the excited state density for this state as the 1-particle RhoCI density.

 Excited State   2:      Singlet-A      1.6793 eV  738.29 nm  f=0.4071  <S**2>=0.000
     309 -> 315        0.15802
     311 -> 313        0.61676
     312 -> 314        0.29920

 Excited State   3:      Singlet-A      2.1842 eV  567.64 nm  f=0.0953  <S**2>=0.000
     309 -> 313       -0.10620
     310 -> 314        0.63415
     312 -> 316       -0.26682

 Excited State   4:      Singlet-A      2.1931 eV  565.33 nm  f=0.1020  <S**2>=0.000
     309 -> 313        0.63184
     310 -> 314        0.10537
     311 -> 315       -0.27464

 Excited State   5:      Singlet-A      2.4754 eV  500.87 nm  f=0.0000  <S**2>=0.000
     312 -> 313        0.70709

 The electronic state is 1-A.
 Alpha  occ. eigenvalues --  -46.87897 -46.87477 -19.26523 -19.26170 -19.19266
 Alpha  occ. eigenvalues --  -19.18987 -19.18904 -19.18604 -19.18314 -19.17892
 Alpha  occ. eigenvalues --  -14.42554 -14.42286 -14.41541 -14.41186 -14.39501
 Alpha  occ. eigenvalues --  -14.39175 -14.38694 -14.38423 -10.39313 -10.38915
 Alpha  occ. eigenvalues --  -10.35536 -10.35284 -10.34537 -10.34066 -10.31946
 Alpha  occ. eigenvalues --  -10.31582 -10.31517 -10.31075 -10.31020 -10.30809
 Alpha  occ. eigenvalues --  -10.30677 -10.30609 -10.30282 -10.30237 -10.30175
 Alpha  occ. eigenvalues --  -10.30012 -10.29977 -10.29741 -10.29733 -10.29346
 Alpha  occ. eigenvalues --  -10.29262 -10.29241 -10.28884 -10.28721 -10.28475
 Alpha  occ. eigenvalues --  -10.28425 -10.28393 -10.28234 -10.28222 -10.27898
 Alpha  occ. eigenvalues --  -10.27830 -10.27826 -10.27778 -10.27683 -10.27555
 Alpha  occ. eigenvalues --  -10.27543 -10.27518 -10.27502 -10.27442 -10.27394
 Alpha  occ. eigenvalues --  -10.27318 -10.27310 -10.27304 -10.27294 -10.27270
 Alpha  occ. eigenvalues --  -10.26873 -10.26869 -10.26487 -10.26438 -10.26339
 Alpha  occ. eigenvalues --  -10.26335 -10.26189 -10.26104 -10.26033 -10.25944
 Alpha  occ. eigenvalues --  -10.25764 -10.25714 -10.25480 -10.25465 -10.25335
 Alpha  occ. eigenvalues --  -10.24946 -10.24882 -10.24703 -10.24681 -10.24632
 Alpha  occ. eigenvalues --  -10.24529  -3.16639  -3.16227  -1.91521  -1.91109
 Alpha  occ. eigenvalues --   -1.91107  -1.90950  -1.90698  -1.90535  -1.16871
 Alpha  occ. eigenvalues --   -1.16465  -1.08781  -1.08500  -1.07304  -1.06884
 Alpha  occ. eigenvalues --   -1.06860  -1.06771  -1.04688  -1.04285  -1.03855
 Alpha  occ. eigenvalues --   -1.03479  -1.03333  -1.02869  -1.02510  -1.01935
 Alpha  occ. eigenvalues --   -0.92095  -0.91801  -0.89591  -0.89344  -0.89312
 Alpha  occ. eigenvalues --   -0.88842  -0.88353  -0.88084  -0.87976  -0.87777
 Alpha  occ. eigenvalues --   -0.87628  -0.87479  -0.87364  -0.86973  -0.85105
 Alpha  occ. eigenvalues --   -0.84750  -0.84003  -0.83751  -0.83045  -0.82810
 Alpha  occ. eigenvalues --   -0.82769  -0.82430  -0.81745  -0.81415  -0.80722
 Alpha  occ. eigenvalues --   -0.80263  -0.78892  -0.78472  -0.77316  -0.77063
 Alpha  occ. eigenvalues --   -0.76949  -0.76678  -0.76054  -0.75584  -0.74979
 Alpha  occ. eigenvalues --   -0.74658  -0.72872  -0.72518  -0.71776  -0.71373
 Alpha  occ. eigenvalues --   -0.69951  -0.69627  -0.68991  -0.68594  -0.67752
 Alpha  occ. eigenvalues --   -0.67434  -0.67348  -0.66992  -0.65415  -0.65035
 Alpha  occ. eigenvalues --   -0.64977  -0.64736  -0.64586  -0.64452  -0.64345
 Alpha  occ. eigenvalues --   -0.64053  -0.62465  -0.62105  -0.60528  -0.60193
 Alpha  occ. eigenvalues --   -0.59922  -0.59538  -0.59093  -0.58813  -0.58615
 Alpha  occ. eigenvalues --   -0.58251  -0.57747  -0.57407  -0.57378  -0.57088
 Alpha  occ. eigenvalues --   -0.56423  -0.56159  -0.56027  -0.55699  -0.55628
 Alpha  occ. eigenvalues --   -0.55445  -0.55283  -0.55102  -0.54650  -0.54338
 Alpha  occ. eigenvalues --   -0.54024  -0.53624  -0.53398  -0.53343  -0.53066
 Alpha  occ. eigenvalues --   -0.53056  -0.52952  -0.52857  -0.52709  -0.52480
 Alpha  occ. eigenvalues --   -0.52473  -0.52278  -0.52025  -0.51745  -0.51734
 Alpha  occ. eigenvalues --   -0.51434  -0.51311  -0.51023  -0.50649  -0.50335
 Alpha  occ. eigenvalues --   -0.50096  -0.50010  -0.49800  -0.49702  -0.49632
 Alpha  occ. eigenvalues --   -0.49336  -0.49283  -0.49220  -0.49007  -0.48835
 Alpha  occ. eigenvalues --   -0.48732  -0.48565  -0.48538  -0.48341  -0.48247
 Alpha  occ. eigenvalues --   -0.48185  -0.47801  -0.47399  -0.47397  -0.46954
 Alpha  occ. eigenvalues --   -0.46893  -0.46685  -0.46522  -0.46463  -0.46294
 Alpha  occ. eigenvalues --   -0.46270  -0.46106  -0.45963  -0.45933  -0.45637
 Alpha  occ. eigenvalues --   -0.45274  -0.45073  -0.44711  -0.44603  -0.44345
 Alpha  occ. eigenvalues --   -0.44251  -0.44247  -0.44194  -0.44137  -0.43934
 Alpha  occ. eigenvalues --   -0.43874  -0.43765  -0.43646  -0.43489  -0.43373
 Alpha  occ. eigenvalues --   -0.43175  -0.43136  -0.42895  -0.42755  -0.42723
 Alpha  occ. eigenvalues --   -0.42720  -0.42413  -0.42098  -0.41817  -0.41794
 Alpha  occ. eigenvalues --   -0.41653  -0.41486  -0.41246  -0.41234  -0.40976
 Alpha  occ. eigenvalues --   -0.40920  -0.40763  -0.40643  -0.40568  -0.40482
 Alpha  occ. eigenvalues --   -0.40376  -0.40301  -0.39985  -0.39478  -0.39299
 Alpha  occ. eigenvalues --   -0.38543  -0.38195  -0.37891  -0.37425  -0.37399
 Alpha  occ. eigenvalues --   -0.37391  -0.37096  -0.36970  -0.36902  -0.36604
 Alpha  occ. eigenvalues --   -0.36318  -0.36044  -0.34391  -0.34069  -0.33994
 Alpha  occ. eigenvalues --   -0.33688  -0.33296  -0.32996  -0.31434  -0.31161
 Alpha  occ. eigenvalues --   -0.31141  -0.30787  -0.30177  -0.29795  -0.29550
 Alpha  occ. eigenvalues --   -0.29432  -0.29169  -0.29045  -0.24184  -0.23851
 Alpha  occ. eigenvalues --   -0.21226  -0.20933
 Alpha virt. eigenvalues --   -0.08876  -0.08619  -0.01845  -0.01510  -0.00161
 Alpha virt. eigenvalues --    0.00140   0.02082   0.02366   0.03009   0.03393
 Alpha virt. eigenvalues --    0.04602   0.04880   0.04957   0.05342   0.06018

 Mulliken charges:
               1
     1  Mg   0.838724
     2  C   -0.003602
     3  C   -0.094023
     4  C   -0.045705
     5  C   -0.063643
     6  N   -0.256848
     7  C   -0.052597
     8  C   -0.014057
     9  C   -0.087060
    10  C    0.046320
    11  C    0.104736
    12  C    0.053488
    13  C   -0.071443
    14  H    0.034402
    15  N   -0.433200
    16  C    0.168600
    17  C   -0.176883
    18  C   -0.003803
    19  C    0.148797
    20  C    0.110054
    21  C    0.012243
    22  O   -0.249444
    23  C    0.062409
    24  N   -0.341165
    25  C    0.041444
    26  C   -0.028243
    27  C   -0.024074
    28  C    0.074847
    29  C    0.076088
    30  C    0.035026
    31  C   -0.004775
    32  N   -0.310286
    33  C    0.080097
    34  C   -0.169961
    35  C    0.007970
    36  C    0.082605
    37  C    0.127432
    38  C    0.045404
    39  O   -0.189221
    40  C   -0.005121
    41  C    0.213039
    42  O   -0.259037
    43  O   -0.304185
    44  C    0.158222
    45  H   -0.017371
    46  H   -0.016541
    47  H   -0.041027
    48  H    0.000842
    49  H   -0.003885
    50  H    0.025477
    51  H    0.016716
    52  H    0.016882
    53  H    0.011653
    54  H    0.042859
    55  H    0.018254
    56  H    0.018570
    57  H    0.006036
    58  H    0.027062
    59  H    0.040104
    60  H    0.037610
    61  H    0.035648
    62  H    0.031642
    63  H    0.016802
    64  H    0.009666
    65  H    0.023505
    66  H    0.012437
    67  H    0.005035
    68  H    0.006931
    69  H    0.005172
    70  H    0.008654
    71  H    0.019754
    72  H    0.028198
    73  H    0.046850
    74  H    0.009713
    75  H    0.046195
    76  H    0.035432
    77  H    0.043172
    78  H    0.046679
    79  H    0.051703
    80  Mg   0.837720
    81  C   -0.016895
    82  C   -0.087077
    83  C   -0.046134
    84  C   -0.065030
    85  N   -0.254811
    86  C   -0.049100
    87  C   -0.015262
    88  C   -0.090446
    89  C    0.045610
    90  C    0.113949
    91  C    0.062416
    92  C   -0.077733
    93  H    0.033677
    94  N   -0.423500
    95  C    0.162758
    96  C   -0.174193
    97  C   -0.008541
    98  C    0.152506
    99  C    0.099362
   100  C    0.015136
   101  O   -0.254093
   102  C    0.061363
   103  N   -0.350053
   104  C    0.037600
   105  C   -0.019713
   106  C   -0.034905
   107  C    0.088873
   108  C    0.073836
   109  C    0.034879
   110  C   -0.007561
   111  N   -0.324030
   112  C    0.078389
   113  C   -0.163471
   114  C    0.002092
   115  C    0.096185
   116  C    0.131583
   117  C    0.041947
   118  O   -0.188618
   119  C    0.001192
   120  C    0.211225
   121  O   -0.251317
   122  O   -0.305355
   123  C    0.152200
   124  H   -0.017283
   125  H   -0.016581
   126  H   -0.040825
   127  H    0.000023
   128  H   -0.004366
   129  H    0.022100
   130  H    0.015890
   131  H    0.022361
   132  H    0.013448
   133  H    0.036912
   134  H    0.021982
   135  H    0.019765
   136  H    0.009847
   137  H    0.025638
   138  H    0.039196
   139  H    0.037904
   140  H    0.035588
   141  H    0.034005
   142  H    0.013922
   143  H    0.012654
   144  H    0.023941
   145  H    0.011093
   146  H    0.005758
   147  H    0.005664
   148  H    0.003646
   149  H    0.010567
   150  H    0.017613
   151  H    0.030417
   152  H    0.045572
   153  H    0.008319
   154  H    0.046545
   155  H    0.035382
   156  H    0.043505
   157  H    0.049985
   158  H    0.053153
 Sum of Mulliken charges =  -0.00000

 Dipole moment (field-independent basis, Debye):
    X=             -5.0868    Y=              1.4945    Z=              5.1452  Tot=              7.3880
 Quadrupole moment (field-independent basis, Debye-Ang):
   XX=           -518.8836   YY=           -508.7134   ZZ=           -491.3159
   XY=            -23.3497   XZ=              3.6648   YZ=            -10.4979

 Normal termination of Gaussian 16 at Sat Sep  4 06:36:36 2021.
