 Gaussian 16, Revision A.03,
 Gaussian 16:  ES64L-G16RevA.03 25-Dec-2016

 -----------------------------------
 #p cam-b3lyp/Def2SVP td=(nstates=5)
 -----------------------------------

 --------------------------------
 TDDFT excited states in gaussian
 --------------------------------
 Symbolic Z-matrix:
 Charge =  0 Multiplicity = 1

                         Standard orientation:
 ---------------------------------------------------------------------
 Center     Atomic      Atomic             Coordinates (Angstroms)
 Number     Number       Type             X           Y           Z
 ---------------------------------------------------------------------
      1         12           0       -3.942134   -0.414961    0.019650
      2          6           0       -3.833057    3.101622    0.678407
      3          6           0       -4.700537    0.365335   -3.214392
      4          6           0       -4.489745   -3.498065   -0.481560
      5          6           0       -4.300686   -0.897246    3.452506
      6          7           0       -4.203765    1.524222   -1.015610
      7          6           0       -4.075764    2.799670   -0.663444
      8          6           0       -4.148734    3.783807   -1.869066
      9          6           0       -4.972829    2.874399   -2.886830
     10          6           0       -4.575556    1.504738   -2.365173
     11          6           0       -6.484527    3.030164   -2.756411
     12          6           0       -2.732053    4.137297   -2.434566
     13          6           0       -2.689849    5.332916   -3.390636
     14          1           0       -1.529498    6.210529   -3.363643
     15          7           0       -4.030826   -1.443147   -1.664932
     16          6           0       -4.338924   -0.960825   -2.892828
     17          6           0       -4.270594   -2.116041   -3.813420
     18          6           0       -4.083810   -3.343233   -2.990495
     19          6           0       -4.222027   -2.806647   -1.660702
     20          6           0       -4.330847   -1.984733   -5.304352
     21          6           0       -3.832689   -4.774446   -3.346441
     22          8           0       -3.932670   -5.716489   -2.487876
     23          6           0       -3.549442   -5.058655   -4.764905
     24          7           0       -4.558721   -1.969220    1.269344
     25          6           0       -4.661280   -3.222285    0.812954
     26          6           0       -4.839787   -4.199753    1.936622
     27          6           0       -4.593784   -3.376103    3.282295
     28          6           0       -4.385353   -1.971432    2.664456
     29          6           0       -6.205761   -4.896287    2.007097
     30          6           0       -3.517280   -3.921675    4.253846
     31          6           0       -2.147802   -3.797917    3.624313
     32          7           0       -3.874334    0.835159    1.792683
     33          6           0       -4.073036    0.427642    3.119755
     34          6           0       -4.038769    1.642602    3.954479
     35          6           0       -3.837747    2.681021    3.047219
     36          6           0       -3.778117    2.151239    1.726587
     37          6           0       -4.241615    1.692753    5.361879
     38          6           0       -3.684081    4.117526    2.883823
     39          8           0       -3.558900    5.069571    3.655466
     40          6           0       -3.796760    4.460292    1.332810
     41          6           0       -2.655856    5.377551    0.985991
     42          8           0       -1.475816    4.973249    1.023551
     43          8           0       -3.140730    6.503385    0.440156
     44          6           0       -2.058799    7.444746    0.045922
     45          1           0       -5.171655    0.484805   -4.191999
     46          1           0       -4.575112   -4.580523   -0.597476
     47          1           0       -4.320909   -0.978769    4.540807
     48          1           0       -4.693243    4.706983   -1.669867
     49          1           0       -4.632227    3.002036   -3.914167
     50          1           0       -6.748935    3.645138   -1.896285
     51          1           0       -6.871934    2.018453   -2.634550
     52          1           0       -6.916578    3.406762   -3.683925
     53          1           0       -2.407795    3.346918   -3.111485
     54          1           0       -2.022100    4.299566   -1.622802
     55          1           0       -3.610401    5.915220   -3.341510
     56          1           0       -2.663930    4.952804   -4.411931
     57          1           0       -4.637036   -0.983893   -5.606201
     58          1           0       -5.137970   -2.631099   -5.648551
     59          1           0       -3.395492   -2.279384   -5.780403
     60          1           0       -4.389746   -4.724279   -5.373699
     61          1           0       -3.307626   -6.119650   -4.816533
     62          1           0       -2.688980   -4.466915   -5.078588
     63          1           0       -4.110367   -5.006181    1.873009
     64          1           0       -5.494757   -3.311552    3.892831
     65          1           0       -6.144204   -5.984522    1.981387
     66          1           0       -6.818646   -4.519819    1.188602
     67          1           0       -6.811421   -4.628240    2.872397
     68          1           0       -3.685429   -4.979969    4.450531
     69          1           0       -3.501616   -3.404435    5.213256
     70          1           0       -2.082954   -4.691748    3.004885
     71          1           0       -1.374307   -3.798675    4.393024
     72          1           0       -2.091781   -2.935863    2.959324
     73          1           0       -3.483960    2.370355    5.755304
     74          1           0       -4.158376    0.702633    5.809469
     75          1           0       -5.256838    2.086787    5.405656
     76          1           0       -4.765045    4.938054    1.186903
     77          1           0       -2.260817    8.392846    0.544447
     78          1           0       -2.027980    7.442556   -1.043780
     79          1           0       -1.061937    7.220199    0.426950
     80         12           0        3.968950   -1.138420    0.132076
     81          6           0        4.093735    2.439668   -0.114516
     82          6           0        3.133647   -1.187921   -3.174657
     83          6           0        3.411127   -4.248474    0.421591
     84          6           0        3.683662   -0.751809    3.583856
     85          7           0        3.682144    0.481849   -1.346014
     86          6           0        3.816812    1.799490   -1.340456
     87          6           0        3.724446    2.461384   -2.741499
     88          6           0        2.868627    1.325910   -3.487921
     89          6           0        3.275112    0.119323   -2.644372
     90          6           0        1.367176    1.518351   -3.353945
     91          6           0        5.132614    2.650149   -3.407402
     92          6           0        5.146601    3.565475   -4.633676
     93          1           0        6.314033    4.414243   -4.855392
     94          7           0        3.843833   -2.555054   -1.252152
     95          6           0        3.513691   -2.396656   -2.551064
     96          6           0        3.544388   -3.743882   -3.141156
     97          6           0        3.758542   -4.730222   -2.047547
     98          6           0        3.656459   -3.865607   -0.889050
     99          6           0        3.458434   -3.986603   -4.620047
    100          6           0        4.000745   -6.209249   -2.044312
    101          8           0        3.921824   -6.902134   -0.968898
    102          6           0        4.240987   -6.837078   -3.351829
    103          7           0        3.388738   -2.323235    1.738897
    104          6           0        3.268801   -3.655988    1.607354
    105          6           0        3.112389   -4.324968    2.952114
    106          6           0        3.395893   -3.183275    4.035505
    107          6           0        3.587924   -1.978150    3.088816
    108          6           0        1.748308   -4.958161    3.225481
    109          6           0        4.495085   -3.474487    5.093630
    110          6           0        5.850706   -3.532530    4.427048
    111          7           0        4.083157    0.507045    1.527577
    112          6           0        3.908564    0.451667    2.927770
    113          6           0        3.963824    1.840374    3.428665
    114          6           0        4.145158    2.615383    2.273256
    115          6           0        4.178881    1.771074    1.130673
    116          6           0        3.804256    2.242557    4.784726
    117          6           0        4.305075    3.956639    1.759286
    118          8           0        4.441649    5.070040    2.264675
    119          6           0        4.152222    3.913357    0.177792
    120          6           0        5.285085    4.701811   -0.420109
    121          8           0        6.460035    4.313664   -0.295801
    122          8           0        4.781515    5.659459   -1.219914
    123          6           0        5.867008    6.461305   -1.844874
    124          1           0        2.646957   -1.305005   -4.143318
    125          1           0        3.321960   -5.324228    0.589731
    126          1           0        3.701005   -0.555604    4.658044
    127          1           0        3.191116    3.404162   -2.764236
    128          1           0        3.194011    1.198623   -4.517144
    129          1           0        1.123007    2.323666   -2.677198
    130          1           0        0.982535    0.579055   -2.978681
    131          1           0        0.915325    1.656494   -4.340390
    132          1           0        5.437188    1.704977   -3.874968
    133          1           0        5.850177    2.996930   -2.689432
    134          1           0        4.223421    4.151129   -4.721437
    135          1           0        5.155279    2.942677   -5.531485
    136          1           0        3.139382   -3.085221   -5.157748
    137          1           0        2.643621   -4.701005   -4.780012
    138          1           0        4.379746   -4.403126   -5.032783
    139          1           0        3.388959   -6.654193   -4.002260
    140          1           0        4.481367   -7.879831   -3.135557
    141          1           0        5.104313   -6.351113   -3.819934
    142          1           0        3.840748   -5.116775    3.077189
    143          1           0        2.504441   -2.967147    4.642483
    144          1           0        1.808556   -6.034902    3.472627
    145          1           0        1.119477   -4.801474    2.359137
    146          1           0        1.170731   -4.486316    4.018563
    147          1           0        4.331459   -4.453823    5.550008
    148          1           0        4.525260   -2.745872    5.896866
    149          1           0        5.894567   -4.557137    4.045800
    150          1           0        6.641717   -3.346469    5.150739
    151          1           0        5.894270   -2.857662    3.564320
    152          1           0        4.563828    2.987866    4.979864
    153          1           0        3.892540    1.396685    5.463310
    154          1           0        2.785584    2.638176    4.752246
    155          1           0        3.180111    4.341784   -0.069230
    156          1           0        5.674318    7.509276   -1.595264
    157          1           0        5.859862    6.189359   -2.917130
    158          1           0        6.871187    6.332956   -1.458074
 ---------------------------------------------------------------------

 SCF Done:  E(RCAM-B3LYP) =  -4069.81126599     A.U. after   19 cycles

 Excitation energies and oscillator strengths:

 Excited State   1:      Singlet-A      1.6386 eV  756.64 nm  f=0.0125  <S**2>=0.000
     309 -> 315       -0.11450
     310 -> 316        0.11801
     311 -> 313       -0.47725
     312 -> 314        0.49577
 This state for optimization and/or second-order correction.
 Total Energy, E(TD-HF/TD-DFT) =  -4069.75104764
 Copying the excited state density for this state as the 1-particle RhoCI density.

 Excited State   2:      Singlet-A      1.7106 eV  724.81 nm  f=0.6620  <S**2>=0.000
     309 -> 315        0.13237
     310 -> 316        0.12678
     311 -> 313        0.49247
     312 -> 314        0.47418

 Excited State   3:      Singlet-A      2.1787 eV  569.06 nm  f=0.0094  <S**2>=0.000
     309 -> 313       -0.37560
     310 -> 314        0.52541
     311 -> 315        0.15441
     312 -> 316       -0.21748

 Excited State   4:      Singlet-A      2.1968 eV  564.39 nm  f=0.1606  <S**2>=0.000
     309 -> 313        0.51958
     310 -> 314        0.36964
     311 -> 315       -0.23049
     312 -> 316       -0.16563

 Excited State   5:      Singlet-A      2.2337 eV  555.07 nm  f=0.0000  <S**2>=0.000
     312 -> 313        0.70707

 The electronic state is 1-A.
 Alpha  occ. eigenvalues --  -46.87911 -46.87388 -19.26279 -19.26117 -19.19031
 Alpha  occ. eigenvalues --  -19.18929 -19.18901 -19.18457 -19.18231 -19.17667
 Alpha  occ. eigenvalues --  -14.42576 -14.42239 -14.41564 -14.41093 -14.39520
 Alpha  occ. eigenvalues --  -14.39080 -14.38694 -14.38299 -10.39098 -10.38817
 Alpha  occ. eigenvalues --  -10.35567 -10.35140 -10.34451 -10.33840 -10.31621
 Alpha  occ. eigenvalues --  -10.31593 -10.31529 -10.31040 -10.31033 -10.30775
 Alpha  occ. eigenvalues --  -10.30688 -10.30612 -10.30332 -10.30095 -10.30058
 Alpha  occ. eigenvalues --  -10.30019 -10.29912 -10.29747 -10.29606 -10.29377
 Alpha  occ. eigenvalues --  -10.29177 -10.29102 -10.28912 -10.28762 -10.28564
 Alpha  occ. eigenvalues --  -10.28513 -10.28476 -10.28269 -10.28107 -10.27954
 Alpha  occ. eigenvalues --  -10.27904 -10.27858 -10.27708 -10.27691 -10.27678
 Alpha  occ. eigenvalues --  -10.27622 -10.27542 -10.27514 -10.27428 -10.27326
 Alpha  occ. eigenvalues --  -10.27310 -10.27221 -10.27196 -10.27180 -10.27161
 Alpha  occ. eigenvalues --  -10.26939 -10.26650 -10.26588 -10.26538 -10.26362
 Alpha  occ. eigenvalues --  -10.26334 -10.26214 -10.26142 -10.25976 -10.25940
 Alpha  occ. eigenvalues --  -10.25856 -10.25671 -10.25512 -10.25432 -10.25201
 Alpha  occ. eigenvalues --  -10.24936 -10.24891 -10.24881 -10.24567 -10.24541
 Alpha  occ. eigenvalues --  -10.24408  -3.16653  -3.16139  -1.91535  -1.91122
 Alpha  occ. eigenvalues --   -1.91021  -1.90964  -1.90610  -1.90446  -1.16632
 Alpha  occ. eigenvalues --   -1.16403  -1.08681  -1.08265  -1.07327  -1.06710
 Alpha  occ. eigenvalues --   -1.06683  -1.06652  -1.04705  -1.04229  -1.03877
 Alpha  occ. eigenvalues --   -1.03391  -1.03347  -1.02761  -1.02524  -1.01826
 Alpha  occ. eigenvalues --   -0.92071  -0.91672  -0.89640  -0.89344  -0.89249
 Alpha  occ. eigenvalues --   -0.88949  -0.88402  -0.87991  -0.87979  -0.87808
 Alpha  occ. eigenvalues --   -0.87470  -0.87420  -0.87417  -0.86876  -0.85132
 Alpha  occ. eigenvalues --   -0.84785  -0.84051  -0.83651  -0.83113  -0.82778
 Alpha  occ. eigenvalues --   -0.82709  -0.82433  -0.81652  -0.81338  -0.80695
 Alpha  occ. eigenvalues --   -0.80185  -0.78931  -0.78368  -0.77355  -0.77051
 Alpha  occ. eigenvalues --   -0.76917  -0.76679  -0.76024  -0.75599  -0.75001
 Alpha  occ. eigenvalues --   -0.74572  -0.72891  -0.72416  -0.71780  -0.71333
 Alpha  occ. eigenvalues --   -0.70044  -0.69554  -0.69014  -0.68605  -0.67751
 Alpha  occ. eigenvalues --   -0.67388  -0.67333  -0.66993  -0.65425  -0.65041
 Alpha  occ. eigenvalues --   -0.64955  -0.64725  -0.64513  -0.64417  -0.64384
 Alpha  occ. eigenvalues --   -0.63967  -0.62343  -0.62031  -0.60571  -0.60090
 Alpha  occ. eigenvalues --   -0.59944  -0.59561  -0.59096  -0.58725  -0.58607
 Alpha  occ. eigenvalues --   -0.58152  -0.57653  -0.57407  -0.57222  -0.56969
 Alpha  occ. eigenvalues --   -0.56427  -0.56035  -0.55932  -0.55658  -0.55639
 Alpha  occ. eigenvalues --   -0.55431  -0.55203  -0.55007  -0.54601  -0.54259
 Alpha  occ. eigenvalues --   -0.54048  -0.53711  -0.53423  -0.53357  -0.53007
 Alpha  occ. eigenvalues --   -0.52973  -0.52907  -0.52905  -0.52668  -0.52572
 Alpha  occ. eigenvalues --   -0.52457  -0.52200  -0.52013  -0.51766  -0.51507
 Alpha  occ. eigenvalues --   -0.51441  -0.51297  -0.50925  -0.50746  -0.50275
 Alpha  occ. eigenvalues --   -0.50176  -0.50061  -0.49767  -0.49657  -0.49638
 Alpha  occ. eigenvalues --   -0.49323  -0.49254  -0.49223  -0.48949  -0.48837
 Alpha  occ. eigenvalues --   -0.48681  -0.48576  -0.48532  -0.48302  -0.48140
 Alpha  occ. eigenvalues --   -0.48082  -0.47819  -0.47409  -0.47372  -0.46936
 Alpha  occ. eigenvalues --   -0.46886  -0.46702  -0.46477  -0.46471  -0.46352
 Alpha  occ. eigenvalues --   -0.46250  -0.46027  -0.45901  -0.45813  -0.45537
 Alpha  occ. eigenvalues --   -0.45299  -0.44976  -0.44675  -0.44646  -0.44299
 Alpha  occ. eigenvalues --   -0.44268  -0.44232  -0.44210  -0.44113  -0.43885
 Alpha  occ. eigenvalues --   -0.43843  -0.43671  -0.43565  -0.43514  -0.43318
 Alpha  occ. eigenvalues --   -0.43159  -0.43122  -0.42819  -0.42695  -0.42669
 Alpha  occ. eigenvalues --   -0.42613  -0.42330  -0.42127  -0.41807  -0.41749
 Alpha  occ. eigenvalues --   -0.41680  -0.41371  -0.41256  -0.41247  -0.41016
 Alpha  occ. eigenvalues --   -0.40963  -0.40752  -0.40687  -0.40513  -0.40490
 Alpha  occ. eigenvalues --   -0.40422  -0.40270  -0.40046  -0.39558  -0.39228
 Alpha  occ. eigenvalues --   -0.38593  -0.38138  -0.37915  -0.37473  -0.37439
 Alpha  occ. eigenvalues --   -0.37405  -0.37030  -0.36959  -0.36759  -0.36535
 Alpha  occ. eigenvalues --   -0.36271  -0.35982  -0.34399  -0.33978  -0.33800
 Alpha  occ. eigenvalues --   -0.33593  -0.33291  -0.32899  -0.31457  -0.31147
 Alpha  occ. eigenvalues --   -0.31018  -0.30697  -0.30088  -0.29571  -0.29568
 Alpha  occ. eigenvalues --   -0.29425  -0.29047  -0.28869  -0.24194  -0.23751
 Alpha  occ. eigenvalues --   -0.21248  -0.20841
 Alpha virt. eigenvalues --   -0.08891  -0.08500  -0.01866  -0.01418  -0.00180
 Alpha virt. eigenvalues --    0.00240   0.02103   0.02401   0.02641   0.03602
 Alpha virt. eigenvalues --    0.04578   0.04964   0.05069   0.05445   0.05971

 Mulliken charges:
               1
     1  Mg   0.838571
     2  C   -0.002939
     3  C   -0.095368
     4  C   -0.044968
     5  C   -0.064058
     6  N   -0.256642
     7  C   -0.053035
     8  C   -0.013582
     9  C   -0.086859
    10  C    0.046033
    11  C    0.104804
    12  C    0.051629
    13  C   -0.071671
    14  H    0.035913
    15  N   -0.433294
    16  C    0.168177
    17  C   -0.178331
    18  C   -0.004046
    19  C    0.149237
    20  C    0.110410
    21  C    0.012833
    22  O   -0.248249
    23  C    0.062770
    24  N   -0.341022
    25  C    0.041028
    26  C   -0.028797
    27  C   -0.023866
    28  C    0.074740
    29  C    0.075992
    30  C    0.037285
    31  C   -0.014775
    32  N   -0.310712
    33  C    0.080937
    34  C   -0.169866
    35  C    0.008752
    36  C    0.083509
    37  C    0.127282
    38  C    0.046708
    39  O   -0.186814
    40  C   -0.005685
    41  C    0.213555
    42  O   -0.256865
    43  O   -0.305209
    44  C    0.156221
    45  H   -0.017947
    46  H   -0.016227
    47  H   -0.041638
    48  H    0.001698
    49  H   -0.004969
    50  H    0.025879
    51  H    0.016713
    52  H    0.016647
    53  H    0.010090
    54  H    0.044291
    55  H    0.019076
    56  H    0.016700
    57  H    0.005460
    58  H    0.027276
    59  H    0.037030
    60  H    0.037426
    61  H    0.036069
    62  H    0.028945
    63  H    0.017596
    64  H    0.009798
    65  H    0.023768
    66  H    0.012591
    67  H    0.004842
    68  H    0.006749
    69  H    0.003476
    70  H    0.013482
    71  H    0.021329
    72  H    0.030637
    73  H    0.047936
    74  H    0.008745
    75  H    0.046470
    76  H    0.035310
    77  H    0.044004
    78  H    0.045141
    79  H    0.056976
    80  Mg   0.837020
    81  C   -0.014804
    82  C   -0.088138
    83  C   -0.044988
    84  C   -0.064665
    85  N   -0.254435
    86  C   -0.048570
    87  C   -0.014905
    88  C   -0.091525
    89  C    0.045457
    90  C    0.112154
    91  C    0.062770
    92  C   -0.077098
    93  H    0.034216
    94  N   -0.423425
    95  C    0.162563
    96  C   -0.175563
    97  C   -0.007592
    98  C    0.151341
    99  C    0.099844
   100  C    0.015746
   101  O   -0.253431
   102  C    0.061400
   103  N   -0.350090
   104  C    0.036722
   105  C   -0.020026
   106  C   -0.035423
   107  C    0.089511
   108  C    0.073610
   109  C    0.034686
   110  C   -0.007126
   111  N   -0.325054
   112  C    0.079567
   113  C   -0.160962
   114  C    0.005583
   115  C    0.095884
   116  C    0.129993
   117  C    0.047147
   118  O   -0.186657
   119  C   -0.001258
   120  C    0.210375
   121  O   -0.251914
   122  O   -0.305366
   123  C    0.152327
   124  H   -0.022374
   125  H   -0.015843
   126  H   -0.040637
   127  H   -0.000286
   128  H   -0.006117
   129  H    0.028542
   130  H    0.015055
   131  H    0.011786
   132  H    0.013597
   133  H    0.037846
   134  H    0.019695
   135  H    0.018665
   136  H    0.006709
   137  H    0.024355
   138  H    0.038984
   139  H    0.037832
   140  H    0.035913
   141  H    0.033135
   142  H    0.013676
   143  H    0.011289
   144  H    0.023361
   145  H    0.015147
   146  H    0.003332
   147  H    0.005332
   148  H    0.003459
   149  H    0.010687
   150  H    0.017528
   151  H    0.030492
   152  H    0.045272
   153  H    0.006801
   154  H    0.053383
   155  H    0.042616
   156  H    0.043012
   157  H    0.048444
   158  H    0.053305
 Sum of Mulliken charges =  -0.00000

 Dipole moment (field-independent basis, Debye):
    X=             -4.2349    Y=             -1.5215    Z=             -7.1333  Tot=              8.4341
 Quadrupole moment (field-independent basis, Debye-Ang):
   XX=           -519.9103   YY=           -547.8426   ZZ=           -450.7816
   XY=            -10.0258   XZ=             -3.5362   YZ=            -45.8540

 Normal termination of Gaussian 16 at Thu Sep  9 07:05:39 2021.
