 Gaussian 16, Revision A.03,
 Gaussian 16:  ES64L-G16RevA.03 25-Dec-2016

 -----------------------------------
 #p cam-b3lyp/Def2SVP td=(nstates=5)
 -----------------------------------

 --------------------------------
 TDDFT excited states in gaussian
 --------------------------------
 Symbolic Z-matrix:
 Charge =  0 Multiplicity = 1

                         Standard orientation:
 ---------------------------------------------------------------------
 Center     Atomic      Atomic             Coordinates (Angstroms)
 Number     Number       Type             X           Y           Z
 ---------------------------------------------------------------------
      1         12           0        3.461195   -1.432825    0.368687
      2          6           0        4.453765    1.553100   -1.337559
      3          6           0        4.426615    0.081841    3.269862
      4          6           0        3.020386   -4.208715    1.837272
      5          6           0        3.649872   -3.073078   -2.700455
      6          7           0        4.314934    0.566881    0.784563
      7          6           0        4.590850    1.639702    0.049651
      8          6           0        4.967617    2.890246    0.899099
      9          6           0        5.467538    2.154479    2.222248
     10          6           0        4.662747    0.872024    2.105867
     11          6           0        6.952376    1.806144    2.201689
     12          6           0        3.732057    3.808264    1.186089
     13          6           0        4.065216    5.203187    1.723256
     14          1           0        3.236356    6.327256    1.314835
     15          7           0        3.225656   -1.844452    2.286481
     16          6           0        3.669365   -1.107871    3.333313
     17          6           0        3.244664   -1.832284    4.550496
     18          6           0        2.684150   -3.145281    4.126281
     19          6           0        2.982164   -3.129422    2.716914
     20          6           0        3.343558   -1.254062    5.928766
     21          6           0        1.999444   -4.245042    4.874503
     22          8           0        1.800294   -5.397575    4.358190
     23          6           0        1.642366   -3.962492    6.276538
     24          7           0        3.561813   -3.414357   -0.280190
     25          6           0        3.268752   -4.426112    0.544098
     26          6           0        3.133041   -5.718700   -0.204726
     27          6           0        3.155495   -5.336040   -1.754829
     28          6           0        3.395742   -3.812260   -1.618283
     29          6           0        4.213690   -6.771805    0.076662
     30          6           0        1.962089   -5.820314   -2.616037
     31          6           0        0.699774   -5.102474   -2.193704
     32          7           0        3.785745   -0.855986   -1.698429
     33          6           0        3.846847   -1.706795   -2.811562
     34          6           0        4.192736   -0.870773   -3.975819
     35          6           0        4.325957    0.413962   -3.452797
     36          6           0        4.104728    0.378066   -2.046361
     37          6           0        4.400445   -1.336663   -5.304065
     38          6           0        4.627951    1.804556   -3.750969
     39          8           0        4.805509    2.451045   -4.784418
     40          6           0        4.842621    2.576850   -2.374994
     41          6           0        4.044776    3.850661   -2.439467
     42          8           0        2.797485    3.823474   -2.469299
     43          8           0        4.856784    4.895541   -2.217180
     44          6           0        4.122509    6.188813   -2.238213
     45          1           0        4.911958    0.363472    4.206381
     46          1           0        2.764026   -5.170972    2.285357
     47          1           0        3.643155   -3.501231   -3.704493
     48          1           0        5.772743    3.496328    0.483334
     49          1           0        5.184200    2.699268    3.122607
     50          1           0        7.394954    2.005792    1.225889
     51          1           0        7.004946    0.742093    2.433044
     52          1           0        7.480751    2.314673    3.008532
     53          1           0        3.177832    3.409723    2.035831
     54          1           0        3.107715    3.903922    0.297060
     55          1           0        5.121421    5.439470    1.590922
     56          1           0        3.922546    5.196089    2.803902
     57          1           0        3.946699   -0.347070    5.940239
     58          1           0        3.909056   -1.963966    6.532055
     59          1           0        2.363185   -1.090257    6.376392
     60          1           0        2.545325   -3.714756    6.834965
     61          1           0        1.081798   -4.829353    6.624629
     62          1           0        1.009464   -3.075132    6.307761
     63          1           0        2.188562   -6.208525    0.028635
     64          1           0        4.031389   -5.739872   -2.263163
     65          1           0        3.815888   -7.724755    0.426440
     66          1           0        4.913792   -6.351772    0.798273
     67          1           0        4.872327   -6.986882   -0.764382
     68          1           0        1.791771   -6.885478   -2.463186
     69          1           0        2.108036   -5.657681   -3.683980
     70          1           0        0.359742   -5.689203   -1.341085
     71          1           0       -0.035755   -5.120960   -2.998605
     72          1           0        0.915659   -4.096960   -1.832009
     73          1           0        3.891664   -0.629043   -5.958577
     74          1           0        4.012412   -2.346602   -5.434670
     75          1           0        5.487896   -1.296081   -5.364553
     76          1           0        5.911672    2.767451   -2.285984
     77          1           0        4.609851    6.822599   -2.979190
     78          1           0        4.093056    6.545208   -1.208397
     79          1           0        3.105151    6.159185   -2.629931
     80         12           0       -4.276982    0.221145   -0.315477
     81          6           0       -1.370227    2.222515    0.335910
     82          6           0       -6.096581    2.598922    1.318480
     83          6           0       -6.778220   -1.724485   -0.476083
     84          6           0       -2.130959   -2.470162   -0.860596
     85          7           0       -3.695219    2.120659    0.656968
     86          6           0       -2.570914    2.808473    0.788059
     87          6           0       -2.754528    4.236719    1.367695
     88          6           0       -4.139910    4.004158    2.145838
     89          6           0       -4.703062    2.859778    1.305627
     90          6           0       -3.954295    3.505221    3.569188
     91          6           0       -2.901618    5.323042    0.245075
     92          6           0       -2.774432    6.769212    0.728985
     93          1           0       -2.134604    7.743721   -0.150457
     94          7           0       -6.214811    0.601778   -0.119179
     95          6           0       -6.778867    1.622706    0.559658
     96          6           0       -8.232383    1.446150    0.417242
     97          6           0       -8.482645    0.145974   -0.262191
     98          6           0       -7.139627   -0.397513   -0.294208
     99          6           0       -9.223892    2.493962    0.832480
    100          6           0       -9.726943   -0.506568   -0.783807
    101          8           0       -9.747520   -1.742297   -1.123481
    102          6           0      -10.943669    0.318588   -0.797279
    103          7           0       -4.449418   -1.848317   -0.415283
    104          6           0       -5.652764   -2.436995   -0.530763
    105          6           0       -5.512981   -3.903677   -0.861976
    106          6           0       -3.962385   -4.125369   -1.184629
    107          6           0       -3.435762   -2.704898   -0.884123
    108          6           0       -5.949047   -4.877357    0.232636
    109          6           0       -3.613590   -4.768482   -2.554815
    110          6           0       -3.971957   -3.820132   -3.676232
    111          7           0       -2.139542   -0.059474   -0.459228
    112          6           0       -1.450827   -1.274695   -0.666536
    113          6           0       -0.006598   -0.977848   -0.574212
    114          6           0        0.044560    0.396070   -0.294543
    115          6           0       -1.275026    0.914599   -0.197969
    116          6           0        1.047145   -1.927261   -0.694081
    117          6           0        0.914639    1.523512   -0.048535
    118          8           0        2.130493    1.707477   -0.088567
    119          6           0        0.035724    2.730818    0.495797
    120          6           0        0.424138    3.968448   -0.265724
    121          8           0        0.198823    4.056733   -1.485576
    122          8           0        0.796288    4.923508    0.605912
    123          6           0        1.180197    6.174287   -0.101192
    124          1           0       -6.724387    3.166722    2.005762
    125          1           0       -7.604039   -2.418858   -0.647353
    126          1           0       -1.395363   -3.236020   -1.115634
    127          1           0       -1.984548    4.546872    2.063901
    128          1           0       -4.782217    4.878398    2.078722
    129          1           0       -2.921177    3.275918    3.784228
    130          1           0       -4.564309    2.615134    3.650812
    131          1           0       -4.374019    4.224321    4.278463
    132          1           0       -3.940589    5.333966   -0.108684
    133          1           0       -2.204368    5.145577   -0.550529
    134          1           0       -2.354209    6.830041    1.740251
    135          1           0       -3.777450    7.190902    0.829737
    136          1           0       -8.754725    3.269157    1.450843
    137          1           0       -9.940498    2.008056    1.503477
    138          1           0       -9.765785    2.920267   -0.014444
    139          1           0      -11.160476    0.658799    0.212528
    140          1           0      -11.705390   -0.291899   -1.286121
    141          1           0      -10.751666    1.215259   -1.397049
    142          1           0       -6.094491   -4.159146   -1.739282
    143          1           0       -3.486573   -4.797673   -0.455620
    144          1           0       -6.729046   -5.587757   -0.100531
    145          1           0       -6.295180   -4.303398    1.081928
    146          1           0       -5.147798   -5.472650    0.667180
    147          1           0       -4.207472   -5.672397   -2.711045
    148          1           0       -2.569678   -5.049081   -2.647015
    149          1           0       -5.040982   -4.002354   -3.821380
    150          1           0       -3.405555   -4.057603   -4.574474
    151          1           0       -3.855188   -2.776569   -3.361584
    152          1           0        1.806794   -1.472422   -1.315823
    153          1           0        0.692181   -2.863585   -1.119612
    154          1           0        1.332462   -2.035557    0.355741
    155          1           0        0.236770    2.827108    1.563450
    156          1           0        2.194534    6.426277    0.223312
    157          1           0        0.381736    6.904581    0.128761
    158          1           0        1.308586    6.123165   -1.176062
 ---------------------------------------------------------------------

 SCF Done:  E(RCAM-B3LYP) =  -4069.77618518     A.U. after   19 cycles

 Excitation energies and oscillator strengths:

 Excited State   1:      Singlet-A      1.6176 eV  766.45 nm  f=0.3284  <S**2>=0.000
     310 -> 316        0.12368
     311 -> 313       -0.37561
     312 -> 313        0.29018
     312 -> 314        0.49534
 This state for optimization and/or second-order correction.
 Total Energy, E(TD-HF/TD-DFT) =  -4069.71673812
 Copying the excited state density for this state as the 1-particle RhoCI density.

 Excited State   2:      Singlet-A      1.6599 eV  746.95 nm  f=0.4587  <S**2>=0.000
     309 -> 315        0.13915
     311 -> 313        0.56889
     312 -> 313        0.18422
     312 -> 314        0.33052

 Excited State   3:      Singlet-A      1.8281 eV  678.20 nm  f=0.0397  <S**2>=0.000
     312 -> 313        0.60674
     312 -> 314       -0.33600

 Excited State   4:      Singlet-A      2.0899 eV  593.24 nm  f=0.0340  <S**2>=0.000
     309 -> 313       -0.17987
     310 -> 313        0.25614
     310 -> 314        0.56422
     311 -> 314       -0.11184
     312 -> 316       -0.20878

 Excited State   5:      Singlet-A      2.1711 eV  571.08 nm  f=0.1257  <S**2>=0.000
     309 -> 313        0.61558
     310 -> 314        0.16803
     311 -> 315       -0.25091

 The electronic state is 1-A.
 Alpha  occ. eigenvalues --  -46.87849 -46.86422 -19.26329 -19.25643 -19.18912
 Alpha  occ. eigenvalues --  -19.18811 -19.18682 -19.18028 -19.18016 -19.17310
 Alpha  occ. eigenvalues --  -14.42684 -14.41522 -14.40816 -14.40109 -14.39566
 Alpha  occ. eigenvalues --  -14.38834 -14.38211 -14.37269 -10.38712 -10.38049
 Alpha  occ. eigenvalues --  -10.35584 -10.34790 -10.34682 -10.33483 -10.31576
 Alpha  occ. eigenvalues --  -10.31563 -10.31442 -10.31175 -10.30659 -10.30649
 Alpha  occ. eigenvalues --  -10.30237 -10.30111 -10.30087 -10.29685 -10.29649
 Alpha  occ. eigenvalues --  -10.29479 -10.29392 -10.29379 -10.29345 -10.28944
 Alpha  occ. eigenvalues --  -10.28859 -10.28726 -10.28650 -10.28585 -10.28392
 Alpha  occ. eigenvalues --  -10.28320 -10.28297 -10.27884 -10.27726 -10.27666
 Alpha  occ. eigenvalues --  -10.27662 -10.27539 -10.27458 -10.27448 -10.27415
 Alpha  occ. eigenvalues --  -10.27327 -10.27117 -10.27054 -10.26922 -10.26907
 Alpha  occ. eigenvalues --  -10.26865 -10.26744 -10.26715 -10.26581 -10.26570
 Alpha  occ. eigenvalues --  -10.26568 -10.26289 -10.26231 -10.26168 -10.26135
 Alpha  occ. eigenvalues --  -10.26115 -10.26032 -10.25971 -10.25819 -10.25420
 Alpha  occ. eigenvalues --  -10.25305 -10.25233 -10.25157 -10.25156 -10.25146
 Alpha  occ. eigenvalues --  -10.25072 -10.24928 -10.24891 -10.24761 -10.23903
 Alpha  occ. eigenvalues --  -10.23789  -3.16597  -3.15181  -1.91478  -1.91067
 Alpha  occ. eigenvalues --   -1.90906  -1.90071  -1.89638  -1.89508  -1.16508
 Alpha  occ. eigenvalues --   -1.15937  -1.09736  -1.07755  -1.07158  -1.06553
 Alpha  occ. eigenvalues --   -1.06453  -1.05696  -1.04697  -1.03871  -1.03276
 Alpha  occ. eigenvalues --   -1.03238  -1.02558  -1.02322  -1.02204  -1.01324
 Alpha  occ. eigenvalues --   -0.92227  -0.90888  -0.89637  -0.89327  -0.88988
 Alpha  occ. eigenvalues --   -0.88594  -0.88322  -0.87929  -0.87859  -0.87592
 Alpha  occ. eigenvalues --   -0.87348  -0.86980  -0.86593  -0.86364  -0.85176
 Alpha  occ. eigenvalues --   -0.83988  -0.83948  -0.83551  -0.83092  -0.82813
 Alpha  occ. eigenvalues --   -0.82299  -0.81891  -0.81760  -0.80873  -0.80639
 Alpha  occ. eigenvalues --   -0.79657  -0.79024  -0.77864  -0.77470  -0.77069
 Alpha  occ. eigenvalues --   -0.76604  -0.76183  -0.75857  -0.75067  -0.74943
 Alpha  occ. eigenvalues --   -0.74235  -0.73129  -0.71860  -0.71776  -0.70733
 Alpha  occ. eigenvalues --   -0.69900  -0.69677  -0.69044  -0.67938  -0.67894
 Alpha  occ. eigenvalues --   -0.67375  -0.66766  -0.66187  -0.65473  -0.64979
 Alpha  occ. eigenvalues --   -0.64812  -0.64523  -0.64287  -0.63970  -0.63871
 Alpha  occ. eigenvalues --   -0.63360  -0.62395  -0.61577  -0.60569  -0.60149
 Alpha  occ. eigenvalues --   -0.59640  -0.59318  -0.58978  -0.58457  -0.58240
 Alpha  occ. eigenvalues --   -0.57996  -0.57534  -0.57442  -0.57039  -0.56631
 Alpha  occ. eigenvalues --   -0.56491  -0.56417  -0.55911  -0.55681  -0.55429
 Alpha  occ. eigenvalues --   -0.55183  -0.54788  -0.54708  -0.54617  -0.54190
 Alpha  occ. eigenvalues --   -0.54120  -0.53793  -0.53489  -0.53307  -0.52991
 Alpha  occ. eigenvalues --   -0.52966  -0.52830  -0.52679  -0.52487  -0.52345
 Alpha  occ. eigenvalues --   -0.52286  -0.52145  -0.52023  -0.51737  -0.51639
 Alpha  occ. eigenvalues --   -0.51078  -0.50709  -0.50652  -0.50560  -0.50294
 Alpha  occ. eigenvalues --   -0.50112  -0.49880  -0.49846  -0.49756  -0.49540
 Alpha  occ. eigenvalues --   -0.49483  -0.49168  -0.49036  -0.48804  -0.48655
 Alpha  occ. eigenvalues --   -0.48316  -0.48261  -0.48117  -0.48092  -0.47864
 Alpha  occ. eigenvalues --   -0.47752  -0.47612  -0.47584  -0.47133  -0.46995
 Alpha  occ. eigenvalues --   -0.46822  -0.46686  -0.46594  -0.46276  -0.46192
 Alpha  occ. eigenvalues --   -0.45887  -0.45760  -0.45435  -0.45334  -0.45225
 Alpha  occ. eigenvalues --   -0.45130  -0.44801  -0.44606  -0.44582  -0.44431
 Alpha  occ. eigenvalues --   -0.44224  -0.44157  -0.43759  -0.43652  -0.43516
 Alpha  occ. eigenvalues --   -0.43413  -0.43371  -0.43231  -0.43161  -0.42891
 Alpha  occ. eigenvalues --   -0.42765  -0.42701  -0.42588  -0.42323  -0.42216
 Alpha  occ. eigenvalues --   -0.42048  -0.41988  -0.41865  -0.41639  -0.41490
 Alpha  occ. eigenvalues --   -0.41257  -0.41086  -0.40886  -0.40847  -0.40627
 Alpha  occ. eigenvalues --   -0.40484  -0.40349  -0.40341  -0.40013  -0.39990
 Alpha  occ. eigenvalues --   -0.39789  -0.39507  -0.39351  -0.39208  -0.38755
 Alpha  occ. eigenvalues --   -0.38426  -0.37794  -0.37676  -0.37387  -0.37355
 Alpha  occ. eigenvalues --   -0.36983  -0.36467  -0.36313  -0.36269  -0.35955
 Alpha  occ. eigenvalues --   -0.35616  -0.34839  -0.34475  -0.33653  -0.33293
 Alpha  occ. eigenvalues --   -0.33060  -0.32592  -0.32106  -0.31457  -0.31155
 Alpha  occ. eigenvalues --   -0.30776  -0.30560  -0.29809  -0.29528  -0.29398
 Alpha  occ. eigenvalues --   -0.29090  -0.28432  -0.28296  -0.24213  -0.22689
 Alpha  occ. eigenvalues --   -0.21321  -0.20024
 Alpha virt. eigenvalues --   -0.09107  -0.07666  -0.01870  -0.00902  -0.00263
 Alpha virt. eigenvalues --    0.00872   0.01920   0.03051   0.03143   0.04554
 Alpha virt. eigenvalues --    0.04993   0.05747   0.05990   0.06091   0.06666

 Mulliken charges:
               1
     1  Mg   0.555375
     2  C    0.048736
     3  C   -0.098686
     4  C   -0.047625
     5  C   -0.053631
     6  N   -0.231973
     7  C   -0.020221
     8  C   -0.018450
     9  C   -0.081537
    10  C    0.050773
    11  C    0.107418
    12  C    0.056715
    13  C   -0.068255
    14  H    0.026722
    15  N   -0.417360
    16  C    0.169628
    17  C   -0.180621
    18  C   -0.007688
    19  C    0.147004
    20  C    0.111650
    21  C    0.009272
    22  O   -0.253876
    23  C    0.063872
    24  N   -0.311060
    25  C    0.039187
    26  C   -0.024445
    27  C   -0.022667
    28  C    0.051271
    29  C    0.077762
    30  C    0.062215
    31  C   -0.015353
    32  N   -0.321865
    33  C    0.064503
    34  C   -0.168796
    35  C    0.010715
    36  C    0.078661
    37  C    0.128172
    38  C    0.047219
    39  O   -0.190534
    40  C   -0.017580
    41  C    0.209221
    42  O   -0.239593
    43  O   -0.305887
    44  C    0.151406
    45  H   -0.022708
    46  H   -0.021912
    47  H   -0.049406
    48  H   -0.010192
    49  H   -0.009966
    50  H    0.023695
    51  H    0.014857
    52  H    0.011801
    53  H    0.005056
    54  H    0.055982
    55  H    0.012956
    56  H    0.012349
    57  H    0.004348
    58  H    0.023766
    59  H    0.034963
    60  H    0.036513
    61  H    0.032298
    62  H    0.029373
    63  H    0.010675
    64  H    0.008313
    65  H    0.020368
    66  H    0.014083
    67  H    0.002947
    68  H    0.004318
    69  H    0.002561
    70  H    0.014935
    71  H    0.026982
    72  H    0.011134
    73  H    0.045747
    74  H    0.005893
    75  H    0.044191
    76  H    0.031455
    77  H    0.041313
    78  H    0.043916
    79  H    0.059685
    80  Mg   0.841709
    81  C   -0.021000
    82  C   -0.087889
    83  C   -0.045737
    84  C   -0.066189
    85  N   -0.254867
    86  C   -0.052860
    87  C   -0.014911
    88  C   -0.090547
    89  C    0.047045
    90  C    0.114428
    91  C    0.062764
    92  C   -0.077528
    93  H    0.035583
    94  N   -0.423738
    95  C    0.164411
    96  C   -0.173853
    97  C   -0.006921
    98  C    0.153137
    99  C    0.099127
   100  C    0.016254
   101  O   -0.251966
   102  C    0.060896
   103  N   -0.349545
   104  C    0.040127
   105  C   -0.021019
   106  C   -0.033615
   107  C    0.087345
   108  C    0.072984
   109  C    0.034236
   110  C   -0.006890
   111  N   -0.323908
   112  C    0.080643
   113  C   -0.133626
   114  C    0.010473
   115  C    0.101506
   116  C    0.125137
   117  C    0.080814
   118  O   -0.185926
   119  C    0.019527
   120  C    0.211009
   121  O   -0.221338
   122  O   -0.317109
   123  C    0.183035
   124  H   -0.019176
   125  H   -0.014611
   126  H   -0.040910
   127  H   -0.001588
   128  H   -0.003805
   129  H    0.021766
   130  H    0.014611
   131  H    0.016454
   132  H    0.013744
   133  H    0.040854
   134  H    0.019589
   135  H    0.019286
   136  H    0.009310
   137  H    0.026944
   138  H    0.040853
   139  H    0.038442
   140  H    0.037205
   141  H    0.034348
   142  H    0.014707
   143  H    0.015586
   144  H    0.025303
   145  H    0.011566
   146  H    0.008189
   147  H    0.005507
   148  H    0.001888
   149  H    0.010868
   150  H    0.016809
   151  H    0.030194
   152  H    0.146270
   153  H   -0.045149
   154  H    0.157031
   155  H    0.030209
   156  H   -0.003142
   157  H    0.045866
   158  H    0.051691
 Sum of Mulliken charges =  -0.00000

 Dipole moment (field-independent basis, Debye):
    X=             -3.1840    Y=              3.2525    Z=              5.5500  Tot=              7.1777
 Quadrupole moment (field-independent basis, Debye-Ang):
   XX=           -500.8536   YY=           -479.8199   ZZ=           -513.3530
   XY=            -25.7773   XZ=              7.1391   YZ=             44.7854

 Normal termination of Gaussian 16 at Thu Sep  9 01:49:54 2021.
