 Gaussian 16, Revision A.03,
 Gaussian 16:  ES64L-G16RevA.03 25-Dec-2016

 -----------------------------------
 #p cam-b3lyp/Def2SVP td=(nstates=5)
 -----------------------------------

 --------------------------------
 TDDFT excited states in gaussian
 --------------------------------
 Symbolic Z-matrix:
 Charge =  0 Multiplicity = 1

                         Standard orientation:
 ---------------------------------------------------------------------
 Center     Atomic      Atomic             Coordinates (Angstroms)
 Number     Number       Type             X           Y           Z
 ---------------------------------------------------------------------
      1         12           0      -15.901608   -0.660788    0.077006
      2          6           0      -16.078998    2.913730    0.136754
      3          6           0      -16.769038   -0.500243   -3.219182
      4          6           0      -16.195328   -3.818173    0.112614
      5          6           0      -16.169268   -0.584897    3.550946
      6          7           0      -16.340026    1.048771   -1.259348
      7          6           0      -16.314629    2.371428   -1.128565
      8          6           0      -16.487257    3.129204   -2.478880
      9          6           0      -17.246485    1.997988   -3.307083
     10          6           0      -16.728115    0.772287   -2.575734
     11          6           0      -18.763906    2.051403   -3.161887
     12          6           0      -15.113516    3.495121   -3.135136
     13          6           0      -15.185593    4.511979   -4.278009
     14          1           0      -14.102821    5.472034   -4.430483
     15          7           0      -15.927659   -1.961921   -1.409340
     16          6           0      -16.292712   -1.719799   -2.691291
     17          6           0      -16.140721   -3.004343   -3.407899
     18          6           0      -15.839739   -4.056239   -2.397444
     19          6           0      -16.003534   -3.316103   -1.172394
     20          6           0      -16.233096   -3.131455   -4.897549
     21          6           0      -15.474359   -5.502066   -2.516668
     22          8           0      -15.482548   -6.290887   -1.510553
     23          6           0      -15.188534   -5.997544   -3.875288
     24          7           0      -16.367492   -2.026692    1.585281
     25          6           0      -16.370911   -3.342880    1.347325
     26          6           0      -16.450575   -4.128143    2.622847
     27          6           0      -16.255443   -3.072411    3.804839
     28          6           0      -16.174630   -1.779807    2.955774
     29          6           0      -17.752044   -4.910416    2.846986
     30          6           0      -15.123129   -3.358067    4.823017
     31          6           0      -13.778030   -3.232429    4.143294
     32          7           0      -15.913757    0.871601    1.614108
     33          6           0      -16.058528    0.678918    2.995625
     34          6           0      -16.114544    2.015938    3.614744
     35          6           0      -16.014475    2.899360    2.541713
     36          6           0      -15.929421    2.161130    1.326775
     37          6           0      -16.300752    2.286077    4.999224
     38          6           0      -15.984407    4.295420    2.136779
     39          8           0      -15.928651    5.370830    2.735007
     40          6           0      -16.147645    4.361704    0.554127
     41          6           0      -15.092923    5.296146    0.027163
     42          8           0      -13.882668    5.000199    0.098326
     43          8           0      -15.678434    6.271189   -0.684883
     44          6           0      -14.685174    7.216573   -1.260936
     45          1           0      -17.262452   -0.585521   -4.189342
     46          1           0      -16.191086   -4.907991    0.181292
     47          1           0      -16.167014   -0.483204    4.637734
     48          1           0      -17.104508    4.025916   -2.421148
     49          1           0      -16.932530    1.977640   -4.350511
     50          1           0      -19.066734    2.779247   -2.409252
     51          1           0      -19.063152    1.046865   -2.862139
     52          1           0      -19.239286    2.230314   -4.126658
     53          1           0      -14.733700    2.630646   -3.679639
     54          1           0      -14.408180    3.848444   -2.382149
     55          1           0      -16.151022    5.018277   -4.300738
     56          1           0      -15.142425    3.968522   -5.221932
     57          1           0      -16.626582   -2.223717   -5.353320
     58          1           0      -16.987889   -3.889376   -5.106236
     59          1           0      -15.283190   -3.425917   -5.343983
     60          1           0      -16.062578   -5.839235   -4.507376
     61          1           0      -14.859185   -7.029126   -3.756056
     62          1           0      -14.385408   -5.399868   -4.307400
     63          1           0      -15.656957   -4.872437    2.674063
     64          1           0      -17.149836   -2.978571    4.421223
     65          1           0      -17.599638   -5.978890    3.001390
     66          1           0      -18.406030   -4.727805    1.994785
     67          1           0      -18.365656   -4.549972    3.672200
     68          1           0      -15.198930   -4.378123    5.198097
     69          1           0      -15.137272   -2.686978    5.681906
     70          1           0      -13.647166   -4.209713    3.680020
     71          1           0      -12.996300   -3.041411    4.879242
     72          1           0      -13.804152   -2.493102    3.342544
     73          1           0      -15.597167    3.079002    5.252614
     74          1           0      -16.128222    1.395500    5.603136
     75          1           0      -17.344764    2.598900    5.005291
     76          1           0      -17.154636    4.728592    0.357955
     77          1           0      -14.958996    8.215764   -0.922005
     78          1           0      -14.669856    7.033257   -2.335443
     79          1           0      -13.667625    7.140370   -0.876063
     80         12           0       15.857142   -0.884423    0.135648
     81          6           0       16.489106    2.646709    0.239498
     82          6           0       15.769897   -0.617594   -3.263733
     83          6           0       14.856711   -3.893442    0.024409
     84          6           0       14.871788   -0.665551    3.471346
     85          7           0       16.111672    0.844785   -1.219834
     86          6           0       16.409009    2.126663   -1.069154
     87          6           0       16.712222    2.876630   -2.393984
     88          6           0       15.903575    1.922283   -3.401052
     89          6           0       15.957129    0.622016   -2.601608
     90          6           0       14.446598    2.320544   -3.568204
     91          6           0       18.244628    2.899821   -2.730478
     92          6           0       18.644657    3.874491   -3.840320
     93          1           0       19.930890    4.558027   -3.736120
     94          7           0       15.859470   -2.183961   -1.364278
     95          6           0       15.845952   -1.903174   -2.684228
     96          6           0       15.833270   -3.203516   -3.372049
     97          6           0       15.673977   -4.273334   -2.349876
     98          6           0       15.431020   -3.473062   -1.166394
     99          6           0       16.044250   -3.343480   -4.851691
    100          6           0       15.718578   -5.769392   -2.427328
    101          8           0       15.317317   -6.506069   -1.458236
    102          6           0       16.158167   -6.346846   -3.705920
    103          7           0       14.791402   -2.066318    1.473432
    104          6           0       14.534072   -3.357803    1.201819
    105          6           0       14.001718   -4.075637    2.419072
    106          6           0       14.183582   -3.052702    3.634837
    107          6           0       14.731358   -1.833915    2.860306
    108          6           0       12.541481   -4.520977    2.343100
    109          6           0       14.976845   -3.561128    4.869725
    110          6           0       16.427033   -3.774137    4.499630
    111          7           0       15.871008    0.642054    1.664606
    112          6           0       15.387265    0.529695    2.986519
    113          6           0       15.507988    1.863913    3.609185
    114          6           0       16.036363    2.671708    2.590964
    115          6           0       16.212315    1.900380    1.410452
    116          6           0       15.106934    2.203983    4.931925
    117          6           0       16.475352    4.004000    2.243143
    118          8           0       16.638559    5.054310    2.862778
    119          6           0       16.669660    4.076748    0.667279
    120          6           0       17.997456    4.727919    0.392576
    121          8           0       19.056874    4.168060    0.725421
    122          8           0       17.808596    5.793666   -0.406725
    123          6           0       19.098228    6.466481   -0.716521
    124          1           0       15.497195   -0.605936   -4.319384
    125          1           0       14.596097   -4.953208    0.073885
    126          1           0       14.677479   -0.537752    4.538382
    127          1           0       16.321864    3.886024   -2.444173
    128          1           0       16.428266    1.810581   -4.346347
    129          1           0       14.164553    3.111176   -2.888873
    130          1           0       13.872114    1.425849   -3.366856
    131          1           0       14.244097    2.580356   -4.611197
    132          1           0       18.521237    1.949971   -3.205877
    133          1           0       18.825068    3.096658   -1.850152
    134          1           0       17.845920    4.591061   -4.067260
    135          1           0       18.770860    3.311111   -4.768057
    136          1           0       15.969028   -2.375371   -5.362086
    137          1           0       15.200120   -3.922448   -5.241689
    138          1           0       16.972819   -3.863112   -5.097467
    139          1           0       15.500488   -6.005110   -4.501622
    140          1           0       16.209892   -7.424280   -3.537560
    141          1           0       17.158098   -5.963362   -3.937617
    142          1           0       14.577500   -4.970026    2.623204
    143          1           0       13.215598   -2.746804    4.058229
    144          1           0       12.407882   -5.607881    2.500743
    145          1           0       12.143787   -4.224472    1.381616
    146          1           0       11.868817   -4.018639    3.036195
    147          1           0       14.593150   -4.531971    5.192836
    148          1           0       14.922519   -2.893212    5.722911
    149          1           0       16.422381   -4.770038    4.046580
    150          1           0       17.056725   -3.746967    5.386641
    151          1           0       16.745030   -3.062741    3.728633
    152          1           0       15.893842    2.819365    5.347343
    153          1           0       14.935075    1.315588    5.536059
    154          1           0       14.179411    2.743303    4.721917
    155          1           0       15.838529    4.654468    0.261042
    156          1           0       18.990870    7.514673   -0.420782
    157          1           0       19.292304    6.262274   -1.786282
    158          1           0       19.967975    6.172323   -0.140802
 ---------------------------------------------------------------------

 SCF Done:  E(RCAM-B3LYP) =  -4069.81177095     A.U. after   19 cycles

 Excitation energies and oscillator strengths:

 Excited State   1:      Singlet-A      1.6753 eV  740.07 nm  f=0.2122  <S**2>=0.000
     310 -> 316       -0.16861
     311 -> 314        0.16233
     312 -> 313        0.66657
     310 <- 316       -0.10165
 This state for optimization and/or second-order correction.
 Total Energy, E(TD-HF/TD-DFT) =  -4069.75020487
 Copying the excited state density for this state as the 1-particle RhoCI density.

 Excited State   2:      Singlet-A      1.6801 eV  737.95 nm  f=0.5652  <S**2>=0.000
     309 -> 315        0.17063
     311 -> 314        0.66621
     312 -> 313       -0.16228
     309 <- 315        0.10216

 Excited State   3:      Singlet-A      2.1861 eV  567.16 nm  f=0.0957  <S**2>=0.000
     310 -> 313        0.64212
     312 -> 316        0.27295

 Excited State   4:      Singlet-A      2.1925 eV  565.48 nm  f=0.1045  <S**2>=0.000
     309 -> 314        0.64035
     311 -> 315       -0.27815

 Excited State   5:      Singlet-A      3.0648 eV  404.55 nm  f=0.0000  <S**2>=0.000
     311 -> 313        0.70711

 The electronic state is 1-A.
 Alpha  occ. eigenvalues --  -46.87791 -46.87660 -19.26349 -19.26278 -19.19161
 Alpha  occ. eigenvalues --  -19.19013 -19.18810 -19.18715 -19.18163 -19.18050
 Alpha  occ. eigenvalues --  -14.42498 -14.42444 -14.41443 -14.41359 -14.39397
 Alpha  occ. eigenvalues --  -14.39352 -14.38600 -14.38581 -10.39090 -10.39073
 Alpha  occ. eigenvalues --  -10.35443 -10.35392 -10.34383 -10.34228 -10.31756
 Alpha  occ. eigenvalues --  -10.31673 -10.31399 -10.31309 -10.31024 -10.30903
 Alpha  occ. eigenvalues --  -10.30564 -10.30501 -10.30397 -10.30360 -10.30201
 Alpha  occ. eigenvalues --  -10.30141 -10.29914 -10.29894 -10.29625 -10.29437
 Alpha  occ. eigenvalues --  -10.29401 -10.29248 -10.28743 -10.28720 -10.28656
 Alpha  occ. eigenvalues --  -10.28534 -10.28405 -10.28359 -10.28141 -10.28111
 Alpha  occ. eigenvalues --  -10.28001 -10.27787 -10.27721 -10.27669 -10.27579
 Alpha  occ. eigenvalues --  -10.27516 -10.27495 -10.27484 -10.27477 -10.27469
 Alpha  occ. eigenvalues --  -10.27465 -10.27443 -10.27397 -10.27374 -10.27152
 Alpha  occ. eigenvalues --  -10.27050 -10.26700 -10.26694 -10.26417 -10.26406
 Alpha  occ. eigenvalues --  -10.26229 -10.26177 -10.26136 -10.26025 -10.26013
 Alpha  occ. eigenvalues --  -10.25934 -10.25848 -10.25836 -10.25429 -10.25394
 Alpha  occ. eigenvalues --  -10.24872 -10.24827 -10.24782 -10.24730 -10.24689
 Alpha  occ. eigenvalues --  -10.24680  -3.16533  -3.16410  -1.91415  -1.91292
 Alpha  occ. eigenvalues --   -1.91002  -1.90881  -1.90844  -1.90718  -1.16643
 Alpha  occ. eigenvalues --   -1.16626  -1.08657  -1.08621  -1.07211  -1.06967
 Alpha  occ. eigenvalues --   -1.06945  -1.06636  -1.04575  -1.04495  -1.03754
 Alpha  occ. eigenvalues --   -1.03663  -1.03228  -1.03038  -1.02405  -1.02111
 Alpha  occ. eigenvalues --   -0.91987  -0.91966  -0.89513  -0.89494  -0.89182
 Alpha  occ. eigenvalues --   -0.89152  -0.88281  -0.88219  -0.87864  -0.87793
 Alpha  occ. eigenvalues --   -0.87684  -0.87667  -0.87268  -0.87121  -0.85000
 Alpha  occ. eigenvalues --   -0.84976  -0.83930  -0.83875  -0.82962  -0.82932
 Alpha  occ. eigenvalues --   -0.82653  -0.82643  -0.81596  -0.81579  -0.80590
 Alpha  occ. eigenvalues --   -0.80443  -0.78791  -0.78636  -0.77212  -0.77145
 Alpha  occ. eigenvalues --   -0.76928  -0.76898  -0.75917  -0.75839  -0.74892
 Alpha  occ. eigenvalues --   -0.74802  -0.72768  -0.72699  -0.71666  -0.71580
 Alpha  occ. eigenvalues --   -0.69901  -0.69756  -0.68867  -0.68827  -0.67635
 Alpha  occ. eigenvalues --   -0.67602  -0.67214  -0.67201  -0.65281  -0.65272
 Alpha  occ. eigenvalues --   -0.64847  -0.64770  -0.64654  -0.64615  -0.64263
 Alpha  occ. eigenvalues --   -0.64203  -0.62291  -0.62278  -0.60436  -0.60340
 Alpha  occ. eigenvalues --   -0.59798  -0.59797  -0.58993  -0.58981  -0.58498
 Alpha  occ. eigenvalues --   -0.58425  -0.57578  -0.57554  -0.57303  -0.57236
 Alpha  occ. eigenvalues --   -0.56304  -0.56204  -0.55972  -0.55886  -0.55514
 Alpha  occ. eigenvalues --   -0.55452  -0.55333  -0.55247  -0.54517  -0.54487
 Alpha  occ. eigenvalues --   -0.53913  -0.53889  -0.53293  -0.53228  -0.53216
 Alpha  occ. eigenvalues --   -0.53142  -0.52909  -0.52902  -0.52751  -0.52669
 Alpha  occ. eigenvalues --   -0.52432  -0.52400  -0.51908  -0.51883  -0.51659
 Alpha  occ. eigenvalues --   -0.51611  -0.51201  -0.51190  -0.50567  -0.50476
 Alpha  occ. eigenvalues --   -0.50025  -0.49980  -0.49913  -0.49867  -0.49509
 Alpha  occ. eigenvalues --   -0.49488  -0.49209  -0.49203  -0.49104  -0.49090
 Alpha  occ. eigenvalues --   -0.48587  -0.48558  -0.48455  -0.48439  -0.48375
 Alpha  occ. eigenvalues --   -0.48339  -0.47689  -0.47595  -0.47291  -0.47118
 Alpha  occ. eigenvalues --   -0.46791  -0.46709  -0.46554  -0.46550  -0.46353
 Alpha  occ. eigenvalues --   -0.46270  -0.46156  -0.46085  -0.45822  -0.45815
 Alpha  occ. eigenvalues --   -0.45208  -0.45195  -0.44571  -0.44514  -0.44501
 Alpha  occ. eigenvalues --   -0.44476  -0.44139  -0.44127  -0.44082  -0.44078
 Alpha  occ. eigenvalues --   -0.44013  -0.43940  -0.43553  -0.43488  -0.43386
 Alpha  occ. eigenvalues --   -0.43380  -0.43021  -0.42930  -0.42901  -0.42693
 Alpha  occ. eigenvalues --   -0.42648  -0.42553  -0.42003  -0.41964  -0.41698
 Alpha  occ. eigenvalues --   -0.41669  -0.41528  -0.41459  -0.41135  -0.40989
 Alpha  occ. eigenvalues --   -0.40863  -0.40818  -0.40723  -0.40699  -0.40565
 Alpha  occ. eigenvalues --   -0.40492  -0.40229  -0.40228  -0.39434  -0.39424
 Alpha  occ. eigenvalues --   -0.38463  -0.38350  -0.37743  -0.37655  -0.37314
 Alpha  occ. eigenvalues --   -0.37265  -0.37258  -0.37200  -0.36771  -0.36707
 Alpha  occ. eigenvalues --   -0.36217  -0.36186  -0.34280  -0.34253  -0.33862
 Alpha  occ. eigenvalues --   -0.33764  -0.33180  -0.33175  -0.31339  -0.31274
 Alpha  occ. eigenvalues --   -0.31029  -0.30973  -0.30022  -0.29955  -0.29443
 Alpha  occ. eigenvalues --   -0.29327  -0.29316  -0.29211  -0.24074  -0.24036
 Alpha  occ. eigenvalues --   -0.21122  -0.21117
 Alpha virt. eigenvalues --   -0.08792  -0.08768  -0.01744  -0.01684  -0.00052
 Alpha virt. eigenvalues --   -0.00029   0.02207   0.02208   0.03129   0.03226
 Alpha virt. eigenvalues --    0.04724   0.04730   0.05105   0.05165   0.06182

 Mulliken charges:
               1
     1  Mg   0.838755
     2  C   -0.002983
     3  C   -0.094122
     4  C   -0.045870
     5  C   -0.063975
     6  N   -0.256769
     7  C   -0.052456
     8  C   -0.014026
     9  C   -0.086996
    10  C    0.046318
    11  C    0.104813
    12  C    0.053475
    13  C   -0.071803
    14  H    0.036128
    15  N   -0.433138
    16  C    0.168429
    17  C   -0.177166
    18  C   -0.004004
    19  C    0.148706
    20  C    0.110183
    21  C    0.012281
    22  O   -0.249622
    23  C    0.062475
    24  N   -0.341173
    25  C    0.041256
    26  C   -0.028166
    27  C   -0.024011
    28  C    0.074894
    29  C    0.076169
    30  C    0.035125
    31  C   -0.004506
    32  N   -0.310475
    33  C    0.080414
    34  C   -0.169707
    35  C    0.008360
    36  C    0.082990
    37  C    0.127308
    38  C    0.046126
    39  O   -0.188422
    40  C   -0.005313
    41  C    0.212854
    42  O   -0.257091
    43  O   -0.304795
    44  C    0.157687
    45  H   -0.017615
    46  H   -0.016838
    47  H   -0.041481
    48  H    0.000940
    49  H   -0.004042
    50  H    0.025477
    51  H    0.016447
    52  H    0.016649
    53  H    0.011199
    54  H    0.044130
    55  H    0.017871
    56  H    0.017937
    57  H    0.005866
    58  H    0.026816
    59  H    0.039539
    60  H    0.037339
    61  H    0.035647
    62  H    0.031497
    63  H    0.016556
    64  H    0.009464
    65  H    0.023211
    66  H    0.012541
    67  H    0.004755
    68  H    0.006370
    69  H    0.004740
    70  H    0.008778
    71  H    0.018157
    72  H    0.028980
    73  H    0.047588
    74  H    0.009119
    75  H    0.046011
    76  H    0.035148
    77  H    0.042956
    78  H    0.046390
    79  H    0.053700
    80  Mg   0.837851
    81  C   -0.016848
    82  C   -0.087803
    83  C   -0.045508
    84  C   -0.064843
    85  N   -0.254571
    86  C   -0.049827
    87  C   -0.015107
    88  C   -0.090510
    89  C    0.045777
    90  C    0.114369
    91  C    0.062545
    92  C   -0.077905
    93  H    0.034901
    94  N   -0.423485
    95  C    0.162913
    96  C   -0.174630
    97  C   -0.007809
    98  C    0.152123
    99  C    0.099374
   100  C    0.015568
   101  O   -0.253177
   102  C    0.061193
   103  N   -0.350061
   104  C    0.037541
   105  C   -0.019850
   106  C   -0.034828
   107  C    0.088908
   108  C    0.073641
   109  C    0.034731
   110  C   -0.007677
   111  N   -0.324131
   112  C    0.078468
   113  C   -0.163107
   114  C    0.002248
   115  C    0.096203
   116  C    0.131492
   117  C    0.042406
   118  O   -0.187832
   119  C    0.000927
   120  C    0.211242
   121  O   -0.251014
   122  O   -0.305618
   123  C    0.152021
   124  H   -0.019667
   125  H   -0.015562
   126  H   -0.040416
   127  H   -0.000631
   128  H   -0.004339
   129  H    0.022491
   130  H    0.014440
   131  H    0.016272
   132  H    0.013907
   133  H    0.037677
   134  H    0.020797
   135  H    0.019581
   136  H    0.008748
   137  H    0.026133
   138  H    0.039783
   139  H    0.038244
   140  H    0.036395
   141  H    0.033890
   142  H    0.014401
   143  H    0.012480
   144  H    0.025153
   145  H    0.011647
   146  H    0.005739
   147  H    0.006291
   148  H    0.003679
   149  H    0.010928
   150  H    0.017940
   151  H    0.030083
   152  H    0.046017
   153  H    0.008536
   154  H    0.047012
   155  H    0.035057
   156  H    0.043931
   157  H    0.049482
   158  H    0.053579
 Sum of Mulliken charges =  -0.00000

 Dipole moment (field-independent basis, Debye):
    X=             -3.3956    Y=             -2.3723    Z=             -8.0207  Tot=              9.0271
 Quadrupole moment (field-independent basis, Debye-Ang):
   XX=           -495.1577   YY=           -554.6025   ZZ=           -446.0405
   XY=              2.7319   XZ=            -17.5906   YZ=            -42.8430

 Normal termination of Gaussian 16 at Sun Sep 12 13:11:32 2021.
