 Gaussian 16, Revision A.03,
 Gaussian 16:  ES64L-G16RevA.03 25-Dec-2016

 -----------------------------------
 #p cam-b3lyp/Def2SVP td=(nstates=5)
 -----------------------------------

 --------------------------------
 TDDFT excited states in gaussian
 --------------------------------
 Symbolic Z-matrix:
 Charge =  0 Multiplicity = 1

                         Standard orientation:
 ---------------------------------------------------------------------
 Center     Atomic      Atomic             Coordinates (Angstroms)
 Number     Number       Type             X           Y           Z
 ---------------------------------------------------------------------
      1         12           0       -6.539554   -0.721438    0.035358
      2          6           0       -6.716131    2.810993    0.585786
      3          6           0       -7.388366   -0.107583   -3.212066
      4          6           0       -6.834483   -3.853325   -0.365789
      5          6           0       -6.826738   -1.124345    3.485119
      6          7           0       -6.969895    1.156332   -1.055253
      7          6           0       -6.944809    2.448352   -0.743440
      8          6           0       -7.109592    3.385038   -1.977474
      9          6           0       -7.864509    2.379474   -2.957749
     10          6           0       -7.350657    1.064175   -2.399298
     11          6           0       -9.382706    2.414045   -2.814975
     12          6           0       -5.732061    3.836335   -2.569481
     13          6           0       -5.797378    5.000960   -3.561820
     14          1           0       -4.713457    5.971682   -3.574646
     15          7           0       -6.557657   -1.805473   -1.616123
     16          6           0       -6.915411   -1.388732   -2.854519
     17          6           0       -6.759800   -2.562526   -3.740337
     18          6           0       -6.464848   -3.743871   -2.882712
     19          6           0       -6.635298   -3.179299   -1.568336
     20          6           0       -6.843830   -2.483198   -5.233788
     21          6           0       -6.099267   -5.159906   -3.197876
     22          8           0       -6.113373   -6.079748   -2.310032
     23          6           0       -5.805959   -5.463891   -4.610181
     24          7           0       -7.014358   -2.281512    1.338571
     25          6           0       -7.016860   -3.552390    0.921620
     26          6           0       -7.103954   -4.505726    2.076394
     27          6           0       -6.915139   -3.623028    3.393568
     28          6           0       -6.829134   -2.225909    2.731050
     29          6           0       -8.406916   -5.309988    2.183473
     30          6           0       -5.788666   -4.047405    4.368955
     31          6           0       -4.439723   -3.830835    3.720459
     32          7           0       -6.559863    0.584704    1.768744
     33          6           0       -6.712469    0.203777    3.109744
     34          6           0       -6.771540    1.442867    3.906761
     35          6           0       -6.665149    2.465522    2.966175
     36          6           0       -6.573495    1.901531    1.661642
     37          6           0       -6.965450    1.519990    5.314200
     38          6           0       -6.632355    3.904009    2.757517
     39          8           0       -6.579621    4.886736    3.498435
     40          6           0       -6.786661    4.187775    1.198192
     41          6           0       -5.728690    5.184725    0.810768
     42          8           0       -4.518950    4.880475    0.847192
     43          8           0       -6.309870    6.249169    0.236547
     44          6           0       -5.313080    7.263785   -0.198331
     45          1           0       -7.876340   -0.057916   -4.187441
     46          1           0       -6.830978   -4.942222   -0.447818
     47          1           0       -6.830569   -1.173276    4.575552
     48          1           0       -7.726870    4.265932   -1.800224
     49          1           0       -7.544693    2.502659   -3.992285
     50          1           0       -9.689531    3.031647   -1.970968
     51          1           0       -9.683957    1.378129   -2.658072
     52          1           0       -9.852590    2.724622   -3.748532
     53          1           0       -5.349464    3.054660   -3.225731
     54          1           0       -5.030861    4.081833   -1.771124
     55          1           0       -6.762502    5.506620   -3.519951
     56          1           0       -5.749073    4.592613   -4.571334
     57          1           0       -7.234453   -1.520918   -5.562385
     58          1           0       -7.597681   -3.204338   -5.549028
     59          1           0       -5.891522   -2.714419   -5.711257
     60          1           0       -6.676381   -5.219096   -5.219271
     61          1           0       -5.477617   -6.502425   -4.632320
     62          1           0       -5.000222   -4.813285   -4.951424
     63          1           0       -6.310877   -5.250850    2.029018
     64          1           0       -7.812958   -3.613981    4.012046
     65          1           0       -8.255724   -6.389712    2.190111
     66          1           0       -9.056036   -5.011053    1.360934
     67          1           0       -9.025047   -5.065941    3.047054
     68          1           0       -5.866905   -5.109310    4.599569
     69          1           0       -5.807427   -3.500965    5.311983
     70          1           0       -4.306566   -4.735158    3.127751
     71          1           0       -3.662086   -3.743833    4.480013
     72          1           0       -4.461100   -2.988259    3.029015
     73          1           0       -6.263048    2.269700    5.678254
     74          1           0       -6.796609    0.554549    5.790665
     75          1           0       -8.009379    1.830139    5.357512
     76          1           0       -7.792414    4.579281    1.048845
     77          1           0       -5.588485    8.207084    0.273446
     78          1           0       -5.291774    7.230159   -1.287744
     79          1           0       -4.297738    7.134198    0.178004
     80         12           0        6.696413   -0.830014    0.114754
     81          6           0        6.521074    2.752099   -0.014902
     82          6           0        5.840805   -0.842322   -3.187123
     83          6           0        6.401650   -3.983469    0.305094
     84          6           0        6.408506   -0.580097    3.578902
     85          7           0        6.263600    0.807514   -1.307717
     86          6           0        6.288235    2.130934   -1.259646
     87          6           0        6.129543    2.827661   -2.637665
     88          6           0        5.365008    1.649439   -3.416212
     89          6           0        5.877421    0.454375   -2.614991
     90          6           0        3.853911    1.711545   -3.267648
     91          6           0        7.511584    3.154617   -3.304819
     92          6           0        7.439240    4.106992   -4.500437
     93          1           0        8.530140    5.056899   -4.700646
     94          7           0        6.678131   -2.206752   -1.314515
     95          6           0        6.325227   -2.034631   -2.605677
     96          6           0        6.463006   -3.354859   -3.239858
     97          6           0        6.767509   -4.354660   -2.180421
     98          6           0        6.603433   -3.539409   -0.993613
     99          6           0        6.385324   -3.556077   -4.725419
    100          6           0        7.131931   -5.807668   -2.227104
    101          8           0        7.119807   -6.539047   -1.174597
    102          6           0        7.412747   -6.370766   -3.555838
    103          7           0        6.230078   -2.110307    1.685010
    104          6           0        6.220337   -3.443489    1.510435
    105          6           0        6.131246   -4.166218    2.833361
    106          6           0        6.327746   -3.040390    3.952053
    107          6           0        6.411021   -1.793542    3.044403
    108          6           0        4.826869   -4.919472    3.093354
    109          6           0        7.456064   -3.272888    4.993940
    110          6           0        8.806243   -3.196121    4.318300
    111          7           0        6.684879    0.773369    1.562885
    112          6           0        6.527077    0.658487    2.961444
    113          6           0        6.470767    2.030070    3.507357
    114          6           0        6.577442    2.854372    2.377032
    115          6           0        6.671836    2.053121    1.207163
    116          6           0        6.289511    2.373592    4.876751
    117          6           0        6.620978    4.220172    1.906501
    118          8           0        6.668627    5.324204    2.447404
    119          6           0        6.459184    4.215331    0.325304
    120          6           0        7.517547    5.114405   -0.252668
    121          8           0        8.721695    4.821808   -0.147695
    122          8           0        6.929464    6.052014   -1.017782
    123          6           0        7.939296    6.961345   -1.622093
    124          1           0        5.357559   -0.968291   -4.156396
    125          1           0        6.403680   -5.067784    0.438310
    126          1           0        6.418348   -0.417883    4.658837
    127          1           0        5.519479    3.722912   -2.626470
    128          1           0        5.691327    1.582995   -4.450843
    129          1           0        3.549212    2.471435   -2.563481
    130          1           0        3.551868    0.731822   -2.921305
    131          1           0        3.383994    1.843265   -4.246508
    132          1           0        7.889849    2.253713   -3.804854
    133          1           0        8.203725    3.536700   -2.579846
    134          1           0        6.469845    4.616125   -4.563788
    135          1           0        7.492273    3.516377   -5.418246
    136          1           0        5.987957   -2.667580   -5.231452
    137          1           0        5.631465   -4.330412   -4.904220
    138          1           0        7.334654   -3.880771   -5.156712
    139          1           0        6.543105   -6.238702   -4.195177
    140          1           0        7.740812   -7.396259   -3.375255
    141          1           0        8.228747   -5.799632   -4.012522
    142          1           0        6.923947   -4.898131    2.928326
    143          1           0        5.426445   -2.919065    4.570751
    144          1           0        4.978516   -5.994837    3.304666
    145          1           0        4.180039   -4.787913    2.236131
    146          1           0        4.218621   -4.523267    3.904694
    147          1           0        7.378237   -4.276665    5.418815
    148          1           0        7.432156   -2.570586    5.820483
    149          1           0        8.932042   -4.200664    3.903370
    150          1           0        9.584994   -2.968165    5.043298
    151          1           0        8.786390   -2.492490    3.477964
    152          1           0        6.986032    3.172967    5.092037
    153          1           0        6.453460    1.516587    5.526699
    154          1           0        5.241227    2.683697    4.862940
    155          1           0        5.452791    4.568925    0.097892
    156          1           0        7.662162    7.980997   -1.337146
    157          1           0        7.945924    6.724483   -2.702646
    158          1           0        8.953821    6.904798   -1.245303
 ---------------------------------------------------------------------

 SCF Done:  E(RCAM-B3LYP) =  -4069.81157541     A.U. after   19 cycles

 Excitation energies and oscillator strengths:

 Excited State   1:      Singlet-A      1.6656 eV  744.40 nm  f=0.0147  <S**2>=0.000
     309 -> 315       -0.11045
     310 -> 316        0.13105
     311 -> 313       -0.44095
     312 -> 314        0.52629
 This state for optimization and/or second-order correction.
 Total Energy, E(TD-HF/TD-DFT) =  -4069.75036692
 Copying the excited state density for this state as the 1-particle RhoCI density.

 Excited State   2:      Singlet-A      1.6891 eV  734.03 nm  f=0.7279  <S**2>=0.000
     309 -> 315        0.13640
     310 -> 316        0.11369
     311 -> 313        0.52511
     312 -> 314        0.44007

 Excited State   3:      Singlet-A      2.1848 eV  567.49 nm  f=0.0409  <S**2>=0.000
     309 -> 313       -0.20311
     310 -> 314        0.61013
     312 -> 316       -0.25831

 Excited State   4:      Singlet-A      2.1931 eV  565.33 nm  f=0.1484  <S**2>=0.000
     309 -> 313        0.60779
     310 -> 314        0.20139
     311 -> 315       -0.26469

 Excited State   5:      Singlet-A      2.6496 eV  467.93 nm  f=0.0000  <S**2>=0.000
     312 -> 313        0.70710

 The electronic state is 1-A.
 Alpha  occ. eigenvalues --  -46.87851 -46.87550 -19.26307 -19.26248 -19.19058
 Alpha  occ. eigenvalues --  -19.19046 -19.18874 -19.18624 -19.18204 -19.17923
 Alpha  occ. eigenvalues --  -14.42505 -14.42390 -14.41502 -14.41250 -14.39458
 Alpha  occ. eigenvalues --  -14.39244 -14.38638 -14.38485 -10.39107 -10.38984
 Alpha  occ. eigenvalues --  -10.35509 -10.35303 -10.34424 -10.34100 -10.31692
 Alpha  occ. eigenvalues --  -10.31670 -10.31457 -10.31197 -10.30967 -10.30922
 Alpha  occ. eigenvalues --  -10.30621 -10.30557 -10.30284 -10.30262 -10.30247
 Alpha  occ. eigenvalues --  -10.30039 -10.29967 -10.29780 -10.29683 -10.29332
 Alpha  occ. eigenvalues --  -10.29310 -10.29291 -10.28811 -10.28623 -10.28620
 Alpha  occ. eigenvalues --  -10.28596 -10.28418 -10.28294 -10.28177 -10.28042
 Alpha  occ. eigenvalues --  -10.27887 -10.27843 -10.27783 -10.27640 -10.27566
 Alpha  occ. eigenvalues --  -10.27559 -10.27547 -10.27493 -10.27455 -10.27418
 Alpha  occ. eigenvalues --  -10.27396 -10.27373 -10.27361 -10.27274 -10.27195
 Alpha  occ. eigenvalues --  -10.26923 -10.26782 -10.26616 -10.26487 -10.26346
 Alpha  occ. eigenvalues --  -10.26287 -10.26230 -10.26071 -10.26049 -10.25912
 Alpha  occ. eigenvalues --  -10.25877 -10.25825 -10.25704 -10.25474 -10.25295
 Alpha  occ. eigenvalues --  -10.24881 -10.24838 -10.24755 -10.24737 -10.24648
 Alpha  occ. eigenvalues --  -10.24581  -3.16594  -3.16300  -1.91476  -1.91182
 Alpha  occ. eigenvalues --   -1.91062  -1.90904  -1.90771  -1.90608  -1.16656
 Alpha  occ. eigenvalues --   -1.16542  -1.08660  -1.08529  -1.07276  -1.06877
 Alpha  occ. eigenvalues --   -1.06841  -1.06668  -1.04636  -1.04387  -1.03813
 Alpha  occ. eigenvalues --   -1.03554  -1.03286  -1.02928  -1.02463  -1.02000
 Alpha  occ. eigenvalues --   -0.92020  -0.91872  -0.89568  -0.89390  -0.89249
 Alpha  occ. eigenvalues --   -0.89053  -0.88335  -0.88119  -0.87916  -0.87729
 Alpha  occ. eigenvalues --   -0.87671  -0.87580  -0.87336  -0.87028  -0.85042
 Alpha  occ. eigenvalues --   -0.84903  -0.83982  -0.83776  -0.83030  -0.82845
 Alpha  occ. eigenvalues --   -0.82704  -0.82558  -0.81625  -0.81491  -0.80645
 Alpha  occ. eigenvalues --   -0.80340  -0.78855  -0.78533  -0.77273  -0.77045
 Alpha  occ. eigenvalues --   -0.76985  -0.76800  -0.75971  -0.75735  -0.74943
 Alpha  occ. eigenvalues --   -0.74700  -0.72825  -0.72588  -0.71721  -0.71474
 Alpha  occ. eigenvalues --   -0.69955  -0.69662  -0.68931  -0.68730  -0.67692
 Alpha  occ. eigenvalues --   -0.67497  -0.67286  -0.67113  -0.65343  -0.65172
 Alpha  occ. eigenvalues --   -0.64901  -0.64670  -0.64664  -0.64552  -0.64318
 Alpha  occ. eigenvalues --   -0.64102  -0.62332  -0.62175  -0.60499  -0.60242
 Alpha  occ. eigenvalues --   -0.59862  -0.59694  -0.59037  -0.58885  -0.58552
 Alpha  occ. eigenvalues --   -0.58318  -0.57623  -0.57437  -0.57356  -0.57132
 Alpha  occ. eigenvalues --   -0.56361  -0.56098  -0.56016  -0.55788  -0.55575
 Alpha  occ. eigenvalues --   -0.55380  -0.55354  -0.55143  -0.54561  -0.54387
 Alpha  occ. eigenvalues --   -0.53955  -0.53817  -0.53352  -0.53279  -0.53125
 Alpha  occ. eigenvalues --   -0.53043  -0.52960  -0.52820  -0.52803  -0.52582
 Alpha  occ. eigenvalues --   -0.52485  -0.52308  -0.51954  -0.51751  -0.51677
 Alpha  occ. eigenvalues --   -0.51566  -0.51241  -0.51092  -0.50643  -0.50394
 Alpha  occ. eigenvalues --   -0.50083  -0.49978  -0.49884  -0.49769  -0.49572
 Alpha  occ. eigenvalues --   -0.49392  -0.49264  -0.49149  -0.49098  -0.48996
 Alpha  occ. eigenvalues --   -0.48636  -0.48514  -0.48491  -0.48452  -0.48272
 Alpha  occ. eigenvalues --   -0.48244  -0.47749  -0.47498  -0.47349  -0.47022
 Alpha  occ. eigenvalues --   -0.46848  -0.46615  -0.46607  -0.46461  -0.46409
 Alpha  occ. eigenvalues --   -0.46205  -0.46167  -0.45975  -0.45860  -0.45709
 Alpha  occ. eigenvalues --   -0.45248  -0.45106  -0.44621  -0.44567  -0.44409
 Alpha  occ. eigenvalues --   -0.44377  -0.44196  -0.44146  -0.44067  -0.44023
 Alpha  occ. eigenvalues --   -0.43981  -0.43840  -0.43533  -0.43452  -0.43441
 Alpha  occ. eigenvalues --   -0.43283  -0.43075  -0.42828  -0.42791  -0.42738
 Alpha  occ. eigenvalues --   -0.42692  -0.42456  -0.42059  -0.41868  -0.41751
 Alpha  occ. eigenvalues --   -0.41593  -0.41557  -0.41365  -0.41192  -0.40928
 Alpha  occ. eigenvalues --   -0.40886  -0.40884  -0.40635  -0.40620  -0.40607
 Alpha  occ. eigenvalues --   -0.40393  -0.40305  -0.40145  -0.39490  -0.39331
 Alpha  occ. eigenvalues --   -0.38520  -0.38252  -0.37813  -0.37568  -0.37371
 Alpha  occ. eigenvalues --   -0.37323  -0.37164  -0.37099  -0.36746  -0.36670
 Alpha  occ. eigenvalues --   -0.36235  -0.36115  -0.34337  -0.34144  -0.33801
 Alpha  occ. eigenvalues --   -0.33757  -0.33236  -0.33066  -0.31403  -0.31182
 Alpha  occ. eigenvalues --   -0.31087  -0.30865  -0.30063  -0.29827  -0.29504
 Alpha  occ. eigenvalues --   -0.29370  -0.29222  -0.29092  -0.24133  -0.23925
 Alpha  occ. eigenvalues --   -0.21181  -0.21008
 Alpha virt. eigenvalues --   -0.08827  -0.08682  -0.01803  -0.01577  -0.00115
 Alpha virt. eigenvalues --    0.00072   0.02157   0.02328   0.03057   0.03324
 Alpha virt. eigenvalues --    0.04660   0.04831   0.05069   0.05273   0.06113

 Mulliken charges:
               1
     1  Mg   0.838571
     2  C   -0.002984
     3  C   -0.094449
     4  C   -0.045824
     5  C   -0.063909
     6  N   -0.256776
     7  C   -0.052508
     8  C   -0.013945
     9  C   -0.086942
    10  C    0.046198
    11  C    0.104809
    12  C    0.053599
    13  C   -0.071686
    14  H    0.035913
    15  N   -0.433125
    16  C    0.168261
    17  C   -0.177421
    18  C   -0.004113
    19  C    0.148643
    20  C    0.110243
    21  C    0.012224
    22  O   -0.249422
    23  C    0.062577
    24  N   -0.341110
    25  C    0.041203
    26  C   -0.028226
    27  C   -0.023985
    28  C    0.074852
    29  C    0.076134
    30  C    0.035109
    31  C   -0.004488
    32  N   -0.310541
    33  C    0.080487
    34  C   -0.169554
    35  C    0.008546
    36  C    0.083044
    37  C    0.127261
    38  C    0.046324
    39  O   -0.187867
    40  C   -0.005425
    41  C    0.213009
    42  O   -0.257037
    43  O   -0.304846
    44  C    0.157484
    45  H   -0.017706
    46  H   -0.016746
    47  H   -0.041342
    48  H    0.001141
    49  H   -0.004332
    50  H    0.025614
    51  H    0.016512
    52  H    0.016631
    53  H    0.010615
    54  H    0.044172
    55  H    0.018181
    56  H    0.017544
    57  H    0.005730
    58  H    0.026903
    59  H    0.038842
    60  H    0.037375
    61  H    0.035710
    62  H    0.030878
    63  H    0.016630
    64  H    0.009588
    65  H    0.023322
    66  H    0.012552
    67  H    0.004836
    68  H    0.006490
    69  H    0.004772
    70  H    0.008925
    71  H    0.017926
    72  H    0.028926
    73  H    0.047914
    74  H    0.009132
    75  H    0.046163
    76  H    0.035252
    77  H    0.043342
    78  H    0.046077
    79  H    0.054124
    80  Mg   0.838053
    81  C   -0.016697
    82  C   -0.087886
    83  C   -0.045493
    84  C   -0.064577
    85  N   -0.254530
    86  C   -0.049467
    87  C   -0.015126
    88  C   -0.090619
    89  C    0.045872
    90  C    0.114388
    91  C    0.062596
    92  C   -0.077656
    93  H    0.034572
    94  N   -0.423458
    95  C    0.162861
    96  C   -0.174901
    97  C   -0.007926
    98  C    0.152029
    99  C    0.099525
   100  C    0.015455
   101  O   -0.253308
   102  C    0.061270
   103  N   -0.349997
   104  C    0.037528
   105  C   -0.019816
   106  C   -0.034881
   107  C    0.089053
   108  C    0.073682
   109  C    0.034762
   110  C   -0.007629
   111  N   -0.324255
   112  C    0.078672
   113  C   -0.162681
   114  C    0.002706
   115  C    0.096261
   116  C    0.131320
   117  C    0.042932
   118  O   -0.187403
   119  C    0.000688
   120  C    0.211140
   121  O   -0.251276
   122  O   -0.305417
   123  C    0.152129
   124  H   -0.020281
   125  H   -0.015713
   126  H   -0.040325
   127  H   -0.000402
   128  H   -0.004947
   129  H    0.023748
   130  H    0.014631
   131  H    0.015252
   132  H    0.013744
   133  H    0.037681
   134  H    0.020694
   135  H    0.019218
   136  H    0.008291
   137  H    0.025711
   138  H    0.039429
   139  H    0.038050
   140  H    0.036175
   141  H    0.033700
   142  H    0.014161
   143  H    0.012621
   144  H    0.024842
   145  H    0.011977
   146  H    0.005624
   147  H    0.006047
   148  H    0.003685
   149  H    0.010801
   150  H    0.017768
   151  H    0.030156
   152  H    0.045869
   153  H    0.008268
   154  H    0.048405
   155  H    0.036126
   156  H    0.043909
   157  H    0.049171
   158  H    0.053419
 Sum of Mulliken charges =  -0.00000

 Dipole moment (field-independent basis, Debye):
    X=             -4.0338    Y=             -2.2497    Z=             -7.5523  Tot=              8.8527
 Quadrupole moment (field-independent basis, Debye-Ang):
   XX=           -517.8993   YY=           -550.7053   ZZ=           -448.4096
   XY=             -9.4442   XZ=              1.1482   YZ=            -47.5958

 Normal termination of Gaussian 16 at Sat Sep  4 10:48:32 2021.
