 Gaussian 16, Revision A.03,
 Gaussian 16:  ES64L-G16RevA.03 25-Dec-2016

 -----------------------------------
 #p cam-b3lyp/Def2SVP td=(nstates=5)
 -----------------------------------

 --------------------------------
 TDDFT excited states in gaussian
 --------------------------------
 Symbolic Z-matrix:
 Charge =  0 Multiplicity = 1

                         Standard orientation:
 ---------------------------------------------------------------------
 Center     Atomic      Atomic             Coordinates (Angstroms)
 Number     Number       Type             X           Y           Z
 ---------------------------------------------------------------------
      1         12           0        7.805468   -0.917868    0.203156
      2          6           0        8.349343    2.255981   -1.359885
      3          6           0        8.885567    0.497758    3.113904
      4          6           0        7.766753   -3.812308    1.498278
      5          6           0        7.865819   -2.330984   -2.981985
      6          7           0        8.500359    1.127054    0.689023
      7          6           0        8.604565    2.267048    0.013208
      8          6           0        8.937561    3.492307    0.916107
      9          6           0        9.624525    2.727606    2.134840
     10          6           0        8.937682    1.380576    1.994551
     11          6           0       11.127492    2.532908    1.962549
     12          6           0        7.652169    4.260717    1.373321
     13          6           0        7.899538    5.644900    1.980117
     14          1           0        6.933806    6.703410    1.726615
     15          7           0        7.787355   -1.473006    2.099032
     16          6           0        8.253589   -0.763901    3.155006
     17          6           0        8.013211   -1.603849    4.348064
     18          6           0        7.543097   -2.936859    3.878840
     19          6           0        7.707410   -2.800878    2.454099
     20          6           0        8.183140   -1.107965    5.751265
     21          6           0        7.037462   -4.145701    4.600760
     22          8           0        6.901863   -5.277042    4.020887
     23          6           0        6.785634   -3.990902    6.044942
     24          7           0        8.033426   -2.833541   -0.594256
     25          6           0        7.914654   -3.920355    0.176273
     26          6           0        7.833840   -5.169472   -0.650235
     27          6           0        7.677288   -4.688118   -2.164680
     28          6           0        7.783505   -3.159746   -1.938699
     29          6           0        9.030747   -6.123993   -0.539266
     30          6           0        6.461069   -5.234246   -2.953967
     31          6           0        5.180582   -4.675940   -2.374533
     32          7           0        7.882417   -0.180167   -1.836677
     33          6           0        7.921306   -0.947503   -3.009860
     34          6           0        8.077847   -0.008084   -4.135495
     35          6           0        8.136176    1.247431   -3.533726
     36          6           0        8.049605    1.099491   -2.119897
     37          6           0        8.205783   -0.364702   -5.506950
     38          6           0        8.276256    2.677612   -3.754671
     39          8           0        8.295939    3.403502   -4.749753
     40          6           0        8.542335    3.378006   -2.349510
     41          6           0        7.624773    4.566312   -2.252987
     42          8           0        6.388243    4.415371   -2.178311
     43          8           0        8.351032    5.671422   -2.025343
     44          6           0        7.498633    6.882685   -1.889656
     45          1           0        9.426063    0.766431    4.023640
     46          1           0        7.645078   -4.822206    1.895441
     47          1           0        7.807440   -2.692514   -4.010255
     48          1           0        9.639939    4.201888    0.478402
     49          1           0        9.374799    3.182301    3.093282
     50          1           0       11.457542    2.838211    0.969685
     51          1           0       11.301764    1.466982    2.110619
     52          1           0       11.677208    3.039491    2.756251
     53          1           0        7.218719    3.754744    2.235977
     54          1           0        6.942484    4.349567    0.550048
     55          1           0        8.911918    5.994531    1.775780
     56          1           0        7.858152    5.554321    3.065604
     57          1           0        8.696054   -0.147345    5.777197
     58          1           0        8.866466   -1.794319    6.250958
     59          1           0        7.236982   -1.072895    6.291530
     60          1           0        7.708538   -3.689554    6.540912
     61          1           0        6.344176   -4.930386    6.375600
     62          1           0        6.077010   -3.175757    6.194410
     63          1           0        6.965536   -5.766020   -0.373460
     64          1           0        8.537060   -4.968154   -2.773815
     65          1           0        8.758947   -7.132634   -0.227061
     66          1           0        9.751238   -5.682491    0.148673
     67          1           0        9.626676   -6.217264   -1.446782
     68          1           0        6.407294   -6.318745   -2.864993
     69          1           0        6.492125   -4.989730   -4.015805
     70          1           0        4.977555   -5.347324   -1.540953
     71          1           0        4.379242   -4.717017   -3.113030
     72          1           0        5.332492   -3.678985   -1.960419
     73          1           0        7.574185    0.328384   -6.062544
     74          1           0        7.904901   -1.398206   -5.677079
     75          1           0        9.274298   -0.210813   -5.656781
     76          1           0        9.592133    3.669420   -2.338311
     77          1           0        7.853481    7.608510   -2.621431
     78          1           0        7.530333    7.167671   -0.837904
     79          1           0        6.456979    6.775673   -2.194362
     80         12           0       -7.974250    0.875317    0.403273
     81          6           0       -8.166146   -2.500069   -0.800472
     82          6           0       -7.029385    1.786164   -2.745089
     83          6           0       -7.360904    3.775900    1.533688
     84          6           0       -7.811259   -0.431741    3.629835
     85          7           0       -7.672986   -0.296414   -1.448361
     86          6           0       -7.835483   -1.562694   -1.801188
     87          6           0       -7.710877   -1.826655   -3.325769
     88          6           0       -6.807168   -0.557953   -3.716399
     89          6           0       -7.215772    0.389263   -2.590127
     90          6           0       -5.315343   -0.822990   -3.599970
     91          6           0       -9.099962   -1.788619   -4.054465
     92          6           0       -9.092735   -2.340399   -5.481787
     93          1           0      -10.269832   -3.064111   -5.954209
     94          7           0       -7.773699    2.607225   -0.544798
     95          6           0       -7.404259    2.793721   -1.829324
     96          6           0       -7.387093    4.250198   -2.035617
     97          6           0       -7.616409    4.912620   -0.722855
     98          6           0       -7.570852    3.766192    0.162418
     99          6           0       -7.247277    4.878343   -3.391823
    100          6           0       -7.827389    6.342918   -0.327970
    101          8           0       -7.769427    6.719127    0.895933
    102          6           0       -8.011071    7.305388   -1.424057
    103          7           0       -7.422561    1.567933    2.284300
    104          6           0       -7.270304    2.883001    2.519517
    105          6           0       -7.144315    3.161639    3.998318
    106          6           0       -7.487412    1.779816    4.726631
    107          6           0       -7.673421    0.879150    3.485833
    108          6           0       -5.776971    3.658175    4.467581
    109          6           0       -8.614557    1.808265    5.794995
    110          6           0       -9.945905    2.082593    5.133456
    111          7           0       -8.169076   -1.080277    1.300903
    112          6           0       -8.039669   -1.407873    2.668391
    113          6           0       -8.140664   -2.877824    2.775390
    114          6           0       -8.300050   -3.308659    1.449689
    115          6           0       -8.278245   -2.188039    0.576047
    116          6           0       -8.034449   -3.633711    3.976836
    117          6           0       -8.471115   -4.457486    0.589682
    118          8           0       -8.647711   -5.661215    0.772978
    119          6           0       -8.265264   -3.995780   -0.917251
    120          6           0       -9.394127   -4.561449   -1.734693
    121          8           0      -10.564101   -4.186825   -1.541243
    122          8           0       -8.884716   -5.283542   -2.749306
    123          6           0       -9.965633   -5.856216   -3.595163
    124          1           0       -6.508634    2.144710   -3.633437
    125          1           0       -7.254714    4.763983    1.987444
    126          1           0       -7.868170   -0.908471    4.610735
    127          1           0       -7.197062   -2.743869   -3.587478
    128          1           0       -7.095645   -0.149664   -4.681512
    129          1           0       -5.110660   -1.787165   -3.158817
    130          1           0       -4.923608   -0.030514   -2.975817
    131          1           0       -4.834191   -0.704414   -4.575046
    132          1           0       -9.368966   -0.744167   -4.258163
    133          1           0       -9.847982   -2.294307   -3.475341
    134          1           0       -8.179704   -2.907673   -5.699788
    135          1           0       -9.058657   -1.499509   -6.178736
    136          1           0       -6.929698    4.145453   -4.143773
    137          1           0       -6.412762    5.585384   -3.332245
    138          1           0       -8.145494    5.417048   -3.701137
    139          1           0       -7.142069    7.279025   -2.077221
    140          1           0       -8.236438    8.258373   -0.941453
    141          1           0       -8.868507    6.988282   -2.028094
    142          1           0       -7.859565    3.911705    4.312839
    143          1           0       -6.621220    1.382801    5.276120
    144          1           0       -5.822653    4.630345    4.993755
    145          1           0       -5.123319    3.721496    3.607772
    146          1           0       -5.235955    2.974136    5.119194
    147          1           0       -8.445491    2.623964    6.502254
    148          1           0       -8.686558    0.891992    6.371400
    149          1           0       -9.955569    3.172758    5.041058
    150          1           0      -10.764111    1.732262    5.759431
    151          1           0       -9.975174    1.665609    4.120078
    152          1           0       -8.815573   -4.381566    3.944247
    153          1           0       -8.127253   -2.998814    4.855512
    154          1           0       -7.023818   -4.035623    3.865705
    155          1           0       -7.294768   -4.370351   -1.244980
    156          1           0       -9.803393   -6.937889   -3.631899
    157          1           0       -9.917377   -5.306776   -4.554086
    158          1           0      -10.979106   -5.807184   -3.214482
 ---------------------------------------------------------------------

 SCF Done:  E(RCAM-B3LYP) =  -4069.81186733     A.U. after   19 cycles

 Excitation energies and oscillator strengths:

 Excited State   1:      Singlet-A      1.6719 eV  741.56 nm  f=0.1394  <S**2>=0.000
     310 -> 316        0.14305
     311 -> 313        0.38354
     312 -> 314        0.56902
 This state for optimization and/or second-order correction.
 Total Energy, E(TD-HF/TD-DFT) =  -4069.75042463
 Copying the excited state density for this state as the 1-particle RhoCI density.

 Excited State   2:      Singlet-A      1.6833 eV  736.54 nm  f=0.6126  <S**2>=0.000
     309 -> 315        0.14630
     311 -> 313        0.56840
     312 -> 314       -0.38323

 Excited State   3:      Singlet-A      2.1861 eV  567.16 nm  f=0.0813  <S**2>=0.000
     310 -> 314        0.63576
     312 -> 316       -0.26998

 Excited State   4:      Singlet-A      2.1929 eV  565.39 nm  f=0.1155  <S**2>=0.000
     309 -> 313        0.63400
     311 -> 315       -0.27537

 Excited State   5:      Singlet-A      2.7641 eV  448.55 nm  f=0.0000  <S**2>=0.000
     312 -> 313        0.70710

 The electronic state is 1-A.
 Alpha  occ. eigenvalues --  -46.87837 -46.87588 -19.26340 -19.26290 -19.19100
 Alpha  occ. eigenvalues --  -19.19078 -19.18841 -19.18644 -19.18221 -19.17984
 Alpha  occ. eigenvalues --  -14.42490 -14.42421 -14.41489 -14.41290 -14.39442
 Alpha  occ. eigenvalues --  -14.39279 -14.38630 -14.38529 -10.39136 -10.39029
 Alpha  occ. eigenvalues --  -10.35474 -10.35321 -10.34441 -10.34161 -10.31735
 Alpha  occ. eigenvalues --  -10.31702 -10.31448 -10.31231 -10.30946 -10.30944
 Alpha  occ. eigenvalues --  -10.30614 -10.30549 -10.30330 -10.30288 -10.30243
 Alpha  occ. eigenvalues --  -10.30073 -10.29962 -10.29833 -10.29672 -10.29362
 Alpha  occ. eigenvalues --  -10.29330 -10.29293 -10.28786 -10.28635 -10.28581
 Alpha  occ. eigenvalues --  -10.28572 -10.28406 -10.28330 -10.28153 -10.28046
 Alpha  occ. eigenvalues --  -10.27928 -10.27836 -10.27766 -10.27623 -10.27587
 Alpha  occ. eigenvalues --  -10.27538 -10.27511 -10.27482 -10.27471 -10.27445
 Alpha  occ. eigenvalues --  -10.27411 -10.27393 -10.27369 -10.27329 -10.27207
 Alpha  occ. eigenvalues --  -10.26982 -10.26742 -10.26617 -10.26427 -10.26339
 Alpha  occ. eigenvalues --  -10.26268 -10.26225 -10.26104 -10.26061 -10.25906
 Alpha  occ. eigenvalues --  -10.25902 -10.25868 -10.25795 -10.25462 -10.25357
 Alpha  occ. eigenvalues --  -10.24877 -10.24826 -10.24801 -10.24733 -10.24697
 Alpha  occ. eigenvalues --  -10.24622  -3.16580  -3.16338  -1.91462  -1.91220
 Alpha  occ. eigenvalues --   -1.91048  -1.90891  -1.90809  -1.90646  -1.16689
 Alpha  occ. eigenvalues --   -1.16584  -1.08680  -1.08592  -1.07241  -1.06896
 Alpha  occ. eigenvalues --   -1.06885  -1.06700  -1.04621  -1.04419  -1.03800
 Alpha  occ. eigenvalues --   -1.03591  -1.03275  -1.02970  -1.02452  -1.02041
 Alpha  occ. eigenvalues --   -0.92016  -0.91916  -0.89560  -0.89435  -0.89226
 Alpha  occ. eigenvalues --   -0.89065  -0.88325  -0.88166  -0.87918  -0.87727
 Alpha  occ. eigenvalues --   -0.87712  -0.87610  -0.87308  -0.87042  -0.85020
 Alpha  occ. eigenvalues --   -0.84921  -0.83976  -0.83825  -0.82997  -0.82861
 Alpha  occ. eigenvalues --   -0.82686  -0.82576  -0.81633  -0.81531  -0.80638
 Alpha  occ. eigenvalues --   -0.80374  -0.78836  -0.78560  -0.77258  -0.77071
 Alpha  occ. eigenvalues --   -0.76975  -0.76831  -0.75965  -0.75760  -0.74935
 Alpha  occ. eigenvalues --   -0.74745  -0.72817  -0.72629  -0.71711  -0.71509
 Alpha  occ. eigenvalues --   -0.69947  -0.69709  -0.68911  -0.68750  -0.67681
 Alpha  occ. eigenvalues --   -0.67532  -0.67255  -0.67125  -0.65327  -0.65195
 Alpha  occ. eigenvalues --   -0.64897  -0.64702  -0.64662  -0.64585  -0.64309
 Alpha  occ. eigenvalues --   -0.64146  -0.62346  -0.62216  -0.60477  -0.60268
 Alpha  occ. eigenvalues --   -0.59843  -0.59715  -0.59029  -0.58924  -0.58546
 Alpha  occ. eigenvalues --   -0.58358  -0.57634  -0.57488  -0.57349  -0.57173
 Alpha  occ. eigenvalues --   -0.56352  -0.56133  -0.56026  -0.55820  -0.55557
 Alpha  occ. eigenvalues --   -0.55382  -0.55380  -0.55192  -0.54569  -0.54433
 Alpha  occ. eigenvalues --   -0.53933  -0.53829  -0.53338  -0.53259  -0.53160
 Alpha  occ. eigenvalues --   -0.53069  -0.52959  -0.52832  -0.52788  -0.52586
 Alpha  occ. eigenvalues --   -0.52480  -0.52356  -0.51967  -0.51824  -0.51654
 Alpha  occ. eigenvalues --   -0.51580  -0.51240  -0.51136  -0.50601  -0.50396
 Alpha  occ. eigenvalues --   -0.50068  -0.49952  -0.49903  -0.49806  -0.49551
 Alpha  occ. eigenvalues --   -0.49411  -0.49257  -0.49136  -0.49126  -0.49027
 Alpha  occ. eigenvalues --   -0.48637  -0.48499  -0.48485  -0.48481  -0.48320
 Alpha  occ. eigenvalues --   -0.48266  -0.47733  -0.47521  -0.47334  -0.47046
 Alpha  occ. eigenvalues --   -0.46838  -0.46642  -0.46593  -0.46475  -0.46401
 Alpha  occ. eigenvalues --   -0.46206  -0.46202  -0.46025  -0.45871  -0.45758
 Alpha  occ. eigenvalues --   -0.45238  -0.45151  -0.44624  -0.44541  -0.44447
 Alpha  occ. eigenvalues --   -0.44399  -0.44185  -0.44126  -0.44060  -0.44052
 Alpha  occ. eigenvalues --   -0.44015  -0.43865  -0.43543  -0.43491  -0.43423
 Alpha  occ. eigenvalues --   -0.43314  -0.43069  -0.42867  -0.42836  -0.42747
 Alpha  occ. eigenvalues --   -0.42699  -0.42495  -0.42051  -0.41904  -0.41746
 Alpha  occ. eigenvalues --   -0.41600  -0.41571  -0.41387  -0.41179  -0.40914
 Alpha  occ. eigenvalues --   -0.40907  -0.40852  -0.40649  -0.40626  -0.40610
 Alpha  occ. eigenvalues --   -0.40434  -0.40269  -0.40150  -0.39481  -0.39379
 Alpha  occ. eigenvalues --   -0.38506  -0.38293  -0.37786  -0.37580  -0.37359
 Alpha  occ. eigenvalues --   -0.37303  -0.37204  -0.37123  -0.36763  -0.36712
 Alpha  occ. eigenvalues --   -0.36237  -0.36155  -0.34328  -0.34183  -0.33826
 Alpha  occ. eigenvalues --   -0.33799  -0.33229  -0.33105  -0.31371  -0.31203
 Alpha  occ. eigenvalues --   -0.31075  -0.30901  -0.30081  -0.29889  -0.29488
 Alpha  occ. eigenvalues --   -0.29366  -0.29253  -0.29141  -0.24122  -0.23964
 Alpha  occ. eigenvalues --   -0.21168  -0.21045
 Alpha virt. eigenvalues --   -0.08815  -0.08719  -0.01788  -0.01613  -0.00093
 Alpha virt. eigenvalues --    0.00047   0.02155   0.02274   0.03074   0.03289
 Alpha virt. eigenvalues --    0.04679   0.04806   0.05043   0.05228   0.06140

 Mulliken charges:
               1
     1  Mg   0.838568
     2  C   -0.003028
     3  C   -0.094077
     4  C   -0.045813
     5  C   -0.064020
     6  N   -0.256785
     7  C   -0.052485
     8  C   -0.014019
     9  C   -0.086988
    10  C    0.046338
    11  C    0.104782
    12  C    0.053445
    13  C   -0.071878
    14  H    0.036192
    15  N   -0.433172
    16  C    0.168501
    17  C   -0.177082
    18  C   -0.003877
    19  C    0.148760
    20  C    0.110160
    21  C    0.012388
    22  O   -0.249358
    23  C    0.062425
    24  N   -0.341120
    25  C    0.041260
    26  C   -0.028246
    27  C   -0.023936
    28  C    0.074791
    29  C    0.076114
    30  C    0.035129
    31  C   -0.004493
    32  N   -0.310386
    33  C    0.080269
    34  C   -0.169989
    35  C    0.008245
    36  C    0.082845
    37  C    0.127393
    38  C    0.045906
    39  O   -0.188756
    40  C   -0.005252
    41  C    0.212846
    42  O   -0.257372
    43  O   -0.304712
    44  C    0.157762
    45  H   -0.017470
    46  H   -0.016632
    47  H   -0.041637
    48  H    0.000938
    49  H   -0.003940
    50  H    0.025476
    51  H    0.016488
    52  H    0.016774
    53  H    0.011241
    54  H    0.043972
    55  H    0.017904
    56  H    0.018075
    57  H    0.005934
    58  H    0.026989
    59  H    0.039657
    60  H    0.037386
    61  H    0.035941
    62  H    0.031483
    63  H    0.016733
    64  H    0.009479
    65  H    0.023434
    66  H    0.012590
    67  H    0.004780
    68  H    0.006583
    69  H    0.004502
    70  H    0.009136
    71  H    0.017752
    72  H    0.028832
    73  H    0.047139
    74  H    0.008976
    75  H    0.046074
    76  H    0.035212
    77  H    0.042899
    78  H    0.046587
    79  H    0.053438
    80  Mg   0.837896
    81  C   -0.016795
    82  C   -0.087526
    83  C   -0.045447
    84  C   -0.064981
    85  N   -0.254577
    86  C   -0.049794
    87  C   -0.015092
    88  C   -0.090518
    89  C    0.045708
    90  C    0.114208
    91  C    0.062509
    92  C   -0.077843
    93  H    0.034624
    94  N   -0.423566
    95  C    0.162896
    96  C   -0.174156
    97  C   -0.007782
    98  C    0.152255
    99  C    0.099143
   100  C    0.015635
   101  O   -0.253386
   102  C    0.061177
   103  N   -0.350006
   104  C    0.037605
   105  C   -0.019839
   106  C   -0.034710
   107  C    0.088878
   108  C    0.073694
   109  C    0.034807
   110  C   -0.007631
   111  N   -0.324079
   112  C    0.078368
   113  C   -0.163283
   114  C    0.002233
   115  C    0.096142
   116  C    0.131500
   117  C    0.042300
   118  O   -0.188107
   119  C    0.000931
   120  C    0.211224
   121  O   -0.251113
   122  O   -0.305578
   123  C    0.152077
   124  H   -0.018953
   125  H   -0.015705
   126  H   -0.040773
   127  H   -0.000665
   128  H   -0.004231
   129  H    0.022369
   130  H    0.015023
   131  H    0.016822
   132  H    0.013897
   133  H    0.037522
   134  H    0.020851
   135  H    0.019709
   136  H    0.009143
   137  H    0.026803
   138  H    0.039687
   139  H    0.038650
   140  H    0.036209
   141  H    0.033816
   142  H    0.014236
   143  H    0.012154
   144  H    0.024815
   145  H    0.012071
   146  H    0.005324
   147  H    0.005946
   148  H    0.003466
   149  H    0.010862
   150  H    0.017745
   151  H    0.030285
   152  H    0.045827
   153  H    0.008252
   154  H    0.046929
   155  H    0.035112
   156  H    0.043777
   157  H    0.049545
   158  H    0.053475
 Sum of Mulliken charges =  -0.00000

 Dipole moment (field-independent basis, Debye):
    X=              4.3640    Y=              2.3983    Z=              0.9977  Tot=              5.0785
 Quadrupole moment (field-independent basis, Debye-Ang):
   XX=           -520.3090   YY=           -535.4242   ZZ=           -462.9253
   XY=            -20.2524   XZ=             60.9913   YZ=             32.0864

 Normal termination of Gaussian 16 at Sat Sep  4 12:25:47 2021.
