 Gaussian 16, Revision A.03,
 Gaussian 16:  ES64L-G16RevA.03 25-Dec-2016

 -----------------------------------
 #p cam-b3lyp/Def2SVP td=(nstates=5)
 -----------------------------------

 --------------------------------
 TDDFT excited states in gaussian
 --------------------------------
 Symbolic Z-matrix:
 Charge =  0 Multiplicity = 1

                         Standard orientation:
 ---------------------------------------------------------------------
 Center     Atomic      Atomic             Coordinates (Angstroms)
 Number     Number       Type             X           Y           Z
 ---------------------------------------------------------------------
      1         12           0       15.774889   -0.792825    0.199747
      2          6           0       16.127296    2.451697   -1.270321
      3          6           0       16.734735    0.607596    3.159575
      4          6           0       15.911009   -3.718729    1.415140
      5          6           0       15.955426   -2.109881   -3.021810
      6          7           0       16.332000    1.278162    0.748644
      7          6           0       16.368675    2.440876    0.105275
      8          6           0       16.613686    3.659360    1.044765
      9          6           0       17.337325    2.906689    2.249684
     10          6           0       16.740079    1.522773    2.065293
     11          6           0       18.851235    2.813758    2.088614
     12          6           0       15.277286    4.330627    1.508625
     13          6           0       15.429319    5.710395    2.155525
     14          1           0       14.399710    6.711372    1.920364
     15          7           0       15.775228   -1.400573    2.079506
     16          6           0       16.185070   -0.692688    3.159420
     17          6           0       15.988423   -1.579241    4.326482
     18          6           0       15.609557   -2.926095    3.816050
     19          6           0       15.777815   -2.740212    2.397418
     20          6           0       16.113154   -1.112749    5.744430
     21          6           0       15.176321   -4.184543    4.499238
     22          8           0       15.119272   -5.305664    3.887351
     23          6           0       14.901806   -4.086518    5.944256
     24          7           0       16.133191   -2.666955   -0.646947
     25          6           0       16.077682   -3.780191    0.092382
     26          6           0       16.085156   -5.008412   -0.768639
     27          6           0       15.911784   -4.496106   -2.271049
     28          6           0       15.917159   -2.970956   -2.002421
     29          6           0       17.340050   -5.886842   -0.670591
     30          6           0       14.740596   -5.096991   -3.088162
     31          6           0       13.421517   -4.638401   -2.507797
     32          7           0       15.822810    0.004826   -1.818297
     33          6           0       15.921847   -0.725454   -3.011426
     34          6           0       16.027804    0.253067   -4.109305
     35          6           0       15.999540    1.492486   -3.472999
     36          6           0       15.909730    1.299969   -2.064750
     37          6           0       16.191035   -0.056263   -5.488473
     38          6           0       16.049134    2.934308   -3.653405
     39          8           0       16.031093    3.687399   -4.628095
     40          6           0       16.256607    3.610927   -2.226882
     41          6           0       15.263488    4.734723   -2.108109
     42          8           0       14.038631    4.502686   -2.051101
     43          8           0       15.914865    5.877409   -1.842551
     44          6           0       14.984931    7.027198   -1.683294
     45          1           0       17.248420    0.884970    4.082143
     46          1           0       15.851067   -4.745025    1.783325
     47          1           0       15.929908   -2.445631   -4.060113
     48          1           0       17.272834    4.424485    0.634238
     49          1           0       17.050025    3.317540    3.217352
     50          1           0       19.170001    3.167158    1.108095
     51          1           0       19.092507    1.757510    2.209527
     52          1           0       19.359844    3.332283    2.901772
     53          1           0       14.869472    3.774038    2.352401
     54          1           0       14.570927    4.396629    0.680358
     55          1           0       16.418880    6.129856    1.971865
     56          1           0       15.383910    5.587146    3.237628
     57          1           0       16.562803   -0.122277    5.802098
     58          1           0       16.834702   -1.767469    6.232712
     59          1           0       15.161790   -1.153557    6.275065
     60          1           0       15.798775   -3.740473    6.458308
     61          1           0       14.518830   -5.061251    6.244381
     62          1           0       14.140758   -3.323029    6.108084
     63          1           0       15.254622   -5.666952   -0.517713
     64          1           0       16.793371   -4.703291   -2.878135
     65          1           0       17.130999   -6.919157   -0.388937
     66          1           0       18.024238   -5.419330    0.036946
     67          1           0       17.949048   -5.916348   -1.573735
     68          1           0       14.756044   -6.184762   -3.029321
     69          1           0       14.765554   -4.821503   -4.142551
     70          1           0       13.254568   -5.344392   -1.695063
     71          1           0       12.631296   -4.710253   -3.255861
     72          1           0       13.505027   -3.645673   -2.065075
     73          1           0       15.521183    0.610051   -6.031882
     74          1           0       15.958988   -1.101810   -5.689940
     75          1           0       17.248733    0.170021   -5.622363
     76          1           0       17.285283    3.968711   -2.196274
     77          1           0       15.298935    7.794408   -2.391124
     78          1           0       14.988547    7.284225   -0.623894
     79          1           0       13.955182    6.862062   -2.002177
     80         12           0      -15.945210    0.746231    0.359763
     81          6           0      -15.910553   -2.675113   -0.722947
     82          6           0      -15.042215    1.604170   -2.815633
     83          6           0      -15.528089    3.718871    1.387804
     84          6           0      -15.717495   -0.432028    3.631693
     85          7           0      -15.557349   -0.468466   -1.447535
     86          6           0      -15.635264   -1.754357   -1.755353
     87          6           0      -15.484524   -2.063653   -3.269021
     88          6           0      -14.662595   -0.753569   -3.701456
     89          6           0      -15.138595    0.204489   -2.611408
     90          6           0      -13.157463   -0.916778   -3.569975
     91          6           0      -16.868687   -2.141898   -4.003854
     92          6           0      -16.817012   -2.742399   -5.410435
     93          1           0      -17.941812   -3.557401   -5.861056
     94          7           0      -15.851579    2.452751   -0.649003
     95          6           0      -15.487191    2.617113   -1.937989
     96          6           0      -15.563219    4.063380   -2.196285
     97          6           0      -15.842986    4.755706   -0.908996
     98          6           0      -15.728607    3.646839    0.016973
     99          6           0      -15.456156    4.650719   -3.573598
    100          6           0      -16.148651    6.182392   -0.566429
    101          8           0      -16.122654    6.604803    0.643414
    102          6           0      -16.387647    7.091342   -1.696990
    103          7           0      -15.451062    1.539629    2.216825
    104          6           0      -15.385808    2.869332    2.405328
    105          6           0      -15.287163    3.207924    3.873667
    106          6           0      -15.544385    1.833467    4.649732
    107          6           0      -15.664052    0.879107    3.441315
    108          6           0      -13.957761    3.808639    4.329981
    109          6           0      -16.677490    1.826520    5.712133
    110          6           0      -18.019771    1.990052    5.036162
    111          7           0      -16.018331   -1.184769    1.326167
    112          6           0      -15.876291   -1.454468    2.704991
    113          6           0      -15.882439   -2.923152    2.864226
    114          6           0      -16.005472   -3.410252    1.554231
    115          6           0      -16.051032   -2.322324    0.641076
    116          6           0      -15.734763   -3.627379    4.092390
    117          6           0      -16.096464   -4.597595    0.735309
    118          8           0      -16.195766   -5.802977    0.960964
    119          6           0      -15.911798   -4.177303   -0.786412
    120          6           0      -16.996616   -4.843827   -1.587311
    121          8           0      -18.189575   -4.539410   -1.411835
    122          8           0      -16.435292   -5.566871   -2.573460
    123          6           0      -17.471637   -6.238279   -3.402328
    124          1           0      -14.540399    1.964021   -3.714291
    125          1           0      -15.488934    4.727262    1.806242
    126          1           0      -15.749366   -0.876296    4.628832
    127          1           0      -14.910745   -2.954240   -3.495749
    128          1           0      -14.971050   -0.399431   -4.681659
    129          1           0      -12.893406   -1.849328   -3.093781
    130          1           0      -12.821730   -0.078837   -2.973153
    131          1           0      -12.679070   -0.801876   -4.546846
    132          1           0      -17.203584   -1.125029   -4.245861
    133          1           0      -17.585867   -2.674246   -3.409802
    134          1           0      -15.867817   -3.256497   -5.604526
    135          1           0      -16.833260   -1.926351   -6.136951
    136          1           0      -15.087157    3.913769   -4.297590
    137          1           0      -14.669611    5.412174   -3.536256
    138          1           0      -16.385499    5.118568   -3.905410
    139          1           0      -15.514814    7.098335   -2.345500
    140          1           0      -16.677260    8.044195   -1.249703
    141          1           0      -17.219030    6.697912   -2.292498
    142          1           0      -16.051438    3.920617    4.158388
    143          1           0      -14.657650    1.513372    5.216360
    144          1           0      -14.069578    4.793862    4.820801
    145          1           0      -13.304366    3.883736    3.470929
    146          1           0      -13.377515    3.184798    5.007730
    147          1           0      -16.565972    2.676092    6.390319
    148          1           0      -16.693462    0.928557    6.320728
    149          1           0      -18.099527    3.073320    4.904705
    150          1           0      -18.817349    1.609745    5.671193
    151          1           0      -18.015766    1.536325    4.038282
    152          1           0      -16.465549   -4.425111    4.083684
    153          1           0      -15.873879   -2.969051    4.947390
    154          1           0      -14.699544   -3.966434    3.999548
    155          1           0      -14.917079   -4.499397   -1.096838
    156          1           0      -17.239394   -7.307735   -3.399652
    157          1           0      -17.453249   -5.721271   -4.380136
    158          1           0      -18.488453   -6.241729   -3.027463
 ---------------------------------------------------------------------

 SCF Done:  E(RCAM-B3LYP) =  -4069.81178953     A.U. after   19 cycles

 Excitation energies and oscillator strengths:

 Excited State   1:      Singlet-A      1.6755 eV  740.01 nm  f=0.2892  <S**2>=0.000
     310 -> 316        0.17061
     311 -> 314        0.12597
     312 -> 313        0.67438
     310 <- 316        0.10284
 This state for optimization and/or second-order correction.
 Total Energy, E(TD-HF/TD-DFT) =  -4069.75021785
 Copying the excited state density for this state as the 1-particle RhoCI density.

 Excited State   2:      Singlet-A      1.6800 eV  737.99 nm  f=0.4875  <S**2>=0.000
     309 -> 315        0.17261
     311 -> 314        0.67403
     312 -> 313       -0.12594
     309 <- 315        0.10336

 Excited State   3:      Singlet-A      2.1861 eV  567.14 nm  f=0.0987  <S**2>=0.000
     310 -> 313        0.64229
     312 -> 316       -0.27304

 Excited State   4:      Singlet-A      2.1926 eV  565.47 nm  f=0.1018  <S**2>=0.000
     309 -> 314        0.64052
     311 -> 315       -0.27824

 Excited State   5:      Singlet-A      3.0660 eV  404.38 nm  f=0.0000  <S**2>=0.000
     311 -> 313        0.70711

 The electronic state is 1-A.
 Alpha  occ. eigenvalues --  -46.87796 -46.87660 -19.26348 -19.26287 -19.19160
 Alpha  occ. eigenvalues --  -19.19023 -19.18812 -19.18713 -19.18171 -19.18051
 Alpha  occ. eigenvalues --  -14.42496 -14.42450 -14.41449 -14.41359 -14.39402
 Alpha  occ. eigenvalues --  -14.39352 -14.38600 -14.38587 -10.39090 -10.39082
 Alpha  occ. eigenvalues --  -10.35445 -10.35390 -10.34391 -10.34228 -10.31754
 Alpha  occ. eigenvalues --  -10.31683 -10.31405 -10.31308 -10.31021 -10.30908
 Alpha  occ. eigenvalues --  -10.30570 -10.30508 -10.30398 -10.30360 -10.30206
 Alpha  occ. eigenvalues --  -10.30141 -10.29921 -10.29896 -10.29631 -10.29436
 Alpha  occ. eigenvalues --  -10.29401 -10.29254 -10.28749 -10.28715 -10.28649
 Alpha  occ. eigenvalues --  -10.28538 -10.28404 -10.28365 -10.28136 -10.28116
 Alpha  occ. eigenvalues --  -10.28001 -10.27793 -10.27727 -10.27667 -10.27584
 Alpha  occ. eigenvalues --  -10.27521 -10.27501 -10.27483 -10.27478 -10.27466
 Alpha  occ. eigenvalues --  -10.27461 -10.27449 -10.27404 -10.27379 -10.27160
 Alpha  occ. eigenvalues --  -10.27050 -10.26704 -10.26689 -10.26412 -10.26405
 Alpha  occ. eigenvalues --  -10.26234 -10.26185 -10.26143 -10.26019 -10.26018
 Alpha  occ. eigenvalues --  -10.25935 -10.25854 -10.25847 -10.25434 -10.25401
 Alpha  occ. eigenvalues --  -10.24873 -10.24833 -10.24787 -10.24736 -10.24690
 Alpha  occ. eigenvalues --  -10.24688  -3.16539  -3.16410  -1.91421  -1.91292
 Alpha  occ. eigenvalues --   -1.91007  -1.90881  -1.90849  -1.90718  -1.16642
 Alpha  occ. eigenvalues --   -1.16636  -1.08659  -1.08629  -1.07213  -1.06966
 Alpha  occ. eigenvalues --   -1.06944  -1.06645  -1.04581  -1.04494  -1.03760
 Alpha  occ. eigenvalues --   -1.03663  -1.03234  -1.03039  -1.02411  -1.02112
 Alpha  occ. eigenvalues --   -0.91987  -0.91973  -0.89520  -0.89496  -0.89187
 Alpha  occ. eigenvalues --   -0.89148  -0.88287  -0.88222  -0.87871  -0.87794
 Alpha  occ. eigenvalues --   -0.87683  -0.87673  -0.87272  -0.87118  -0.84997
 Alpha  occ. eigenvalues --   -0.84982  -0.83937  -0.83879  -0.82965  -0.82931
 Alpha  occ. eigenvalues --   -0.82650  -0.82648  -0.81596  -0.81587  -0.80597
 Alpha  occ. eigenvalues --   -0.80442  -0.78796  -0.78635  -0.77218  -0.77143
 Alpha  occ. eigenvalues --   -0.76935  -0.76897  -0.75924  -0.75837  -0.74898
 Alpha  occ. eigenvalues --   -0.74804  -0.72775  -0.72699  -0.71672  -0.71580
 Alpha  occ. eigenvalues --   -0.69907  -0.69761  -0.68873  -0.68825  -0.67641
 Alpha  occ. eigenvalues --   -0.67601  -0.67219  -0.67197  -0.65286  -0.65269
 Alpha  occ. eigenvalues --   -0.64854  -0.64770  -0.64653  -0.64621  -0.64269
 Alpha  occ. eigenvalues --   -0.64205  -0.62299  -0.62278  -0.60441  -0.60339
 Alpha  occ. eigenvalues --   -0.59804  -0.59794  -0.58993  -0.58988  -0.58504
 Alpha  occ. eigenvalues --   -0.58425  -0.57586  -0.57554  -0.57309  -0.57237
 Alpha  occ. eigenvalues --   -0.56310  -0.56204  -0.55980  -0.55885  -0.55519
 Alpha  occ. eigenvalues --   -0.55451  -0.55340  -0.55249  -0.54525  -0.54489
 Alpha  occ. eigenvalues --   -0.53909  -0.53895  -0.53298  -0.53227  -0.53221
 Alpha  occ. eigenvalues --   -0.53140  -0.52915  -0.52901  -0.52754  -0.52665
 Alpha  occ. eigenvalues --   -0.52439  -0.52404  -0.51917  -0.51887  -0.51656
 Alpha  occ. eigenvalues --   -0.51616  -0.51201  -0.51197  -0.50569  -0.50473
 Alpha  occ. eigenvalues --   -0.50031  -0.49978  -0.49917  -0.49868  -0.49514
 Alpha  occ. eigenvalues --   -0.49486  -0.49215  -0.49201  -0.49102  -0.49096
 Alpha  occ. eigenvalues --   -0.48594  -0.48557  -0.48461  -0.48445  -0.48378
 Alpha  occ. eigenvalues --   -0.48337  -0.47694  -0.47593  -0.47296  -0.47117
 Alpha  occ. eigenvalues --   -0.46797  -0.46709  -0.46555  -0.46551  -0.46359
 Alpha  occ. eigenvalues --   -0.46271  -0.46163  -0.46087  -0.45824  -0.45822
 Alpha  occ. eigenvalues --   -0.45210  -0.45201  -0.44579  -0.44514  -0.44506
 Alpha  occ. eigenvalues --   -0.44474  -0.44144  -0.44126  -0.44088  -0.44078
 Alpha  occ. eigenvalues --   -0.44019  -0.43937  -0.43553  -0.43496  -0.43385
 Alpha  occ. eigenvalues --   -0.43385  -0.43027  -0.42930  -0.42901  -0.42700
 Alpha  occ. eigenvalues --   -0.42656  -0.42555  -0.42010  -0.41965  -0.41704
 Alpha  occ. eigenvalues --   -0.41669  -0.41533  -0.41457  -0.41141  -0.40988
 Alpha  occ. eigenvalues --   -0.40869  -0.40821  -0.40720  -0.40697  -0.40571
 Alpha  occ. eigenvalues --   -0.40495  -0.40233  -0.40223  -0.39441  -0.39429
 Alpha  occ. eigenvalues --   -0.38469  -0.38352  -0.37748  -0.37651  -0.37320
 Alpha  occ. eigenvalues --   -0.37267  -0.37263  -0.37197  -0.36771  -0.36715
 Alpha  occ. eigenvalues --   -0.36217  -0.36193  -0.34286  -0.34253  -0.33861
 Alpha  occ. eigenvalues --   -0.33773  -0.33186  -0.33175  -0.31342  -0.31272
 Alpha  occ. eigenvalues --   -0.31035  -0.30972  -0.30031  -0.29956  -0.29448
 Alpha  occ. eigenvalues --   -0.29327  -0.29322  -0.29212  -0.24080  -0.24036
 Alpha  occ. eigenvalues --   -0.21127  -0.21117
 Alpha virt. eigenvalues --   -0.08791  -0.08774  -0.01749  -0.01684  -0.00057
 Alpha virt. eigenvalues --   -0.00027   0.02200   0.02207   0.03122   0.03227
 Alpha virt. eigenvalues --    0.04719   0.04732   0.05095   0.05166   0.06178

 Mulliken charges:
               1
     1  Mg   0.838735
     2  C   -0.002965
     3  C   -0.094106
     4  C   -0.045871
     5  C   -0.063968
     6  N   -0.256782
     7  C   -0.052461
     8  C   -0.014025
     9  C   -0.086981
    10  C    0.046324
    11  C    0.104799
    12  C    0.053454
    13  C   -0.071812
    14  H    0.036120
    15  N   -0.433147
    16  C    0.168429
    17  C   -0.177123
    18  C   -0.003989
    19  C    0.148731
    20  C    0.110170
    21  C    0.012307
    22  O   -0.249596
    23  C    0.062464
    24  N   -0.341142
    25  C    0.041233
    26  C   -0.028178
    27  C   -0.023967
    28  C    0.074845
    29  C    0.076168
    30  C    0.035134
    31  C   -0.004503
    32  N   -0.310460
    33  C    0.080393
    34  C   -0.169756
    35  C    0.008336
    36  C    0.082979
    37  C    0.127323
    38  C    0.046094
    39  O   -0.188509
    40  C   -0.005332
    41  C    0.212877
    42  O   -0.257131
    43  O   -0.304792
    44  C    0.157711
    45  H   -0.017574
    46  H   -0.016811
    47  H   -0.041524
    48  H    0.000928
    49  H   -0.004010
    50  H    0.025464
    51  H    0.016454
    52  H    0.016678
    53  H    0.011227
    54  H    0.044100
    55  H    0.017869
    56  H    0.017983
    57  H    0.005889
    58  H    0.026855
    59  H    0.039602
    60  H    0.037358
    61  H    0.035702
    62  H    0.031527
    63  H    0.016571
    64  H    0.009448
    65  H    0.023236
    66  H    0.012555
    67  H    0.004745
    68  H    0.006374
    69  H    0.004692
    70  H    0.008812
    71  H    0.018102
    72  H    0.028984
    73  H    0.047509
    74  H    0.009086
    75  H    0.045995
    76  H    0.035146
    77  H    0.042917
    78  H    0.046426
    79  H    0.053653
    80  Mg   0.837888
    81  C   -0.016847
    82  C   -0.087756
    83  C   -0.045519
    84  C   -0.064903
    85  N   -0.254574
    86  C   -0.049830
    87  C   -0.015111
    88  C   -0.090499
    89  C    0.045755
    90  C    0.114348
    91  C    0.062521
    92  C   -0.077914
    93  H    0.034900
    94  N   -0.423503
    95  C    0.162918
    96  C   -0.174576
    97  C   -0.007795
    98  C    0.152136
    99  C    0.099337
   100  C    0.015584
   101  O   -0.253188
   102  C    0.061195
   103  N   -0.350066
   104  C    0.037527
   105  C   -0.019833
   106  C   -0.034796
   107  C    0.088900
   108  C    0.073652
   109  C    0.034760
   110  C   -0.007688
   111  N   -0.324095
   112  C    0.078444
   113  C   -0.163165
   114  C    0.002229
   115  C    0.096182
   116  C    0.131495
   117  C    0.042375
   118  O   -0.187889
   119  C    0.000947
   120  C    0.211242
   121  O   -0.251031
   122  O   -0.305612
   123  C    0.152026
   124  H   -0.019562
   125  H   -0.015571
   126  H   -0.040497
   127  H   -0.000620
   128  H   -0.004278
   129  H    0.022472
   130  H    0.014449
   131  H    0.016387
   132  H    0.013920
   133  H    0.037656
   134  H    0.020823
   135  H    0.019629
   136  H    0.008827
   137  H    0.026225
   138  H    0.039823
   139  H    0.038311
   140  H    0.036407
   141  H    0.033903
   142  H    0.014390
   143  H    0.012393
   144  H    0.025126
   145  H    0.011685
   146  H    0.005655
   147  H    0.006232
   148  H    0.003620
   149  H    0.010937
   150  H    0.017909
   151  H    0.030126
   152  H    0.045983
   153  H    0.008476
   154  H    0.046934
   155  H    0.035055
   156  H    0.043914
   157  H    0.049526
   158  H    0.053567
 Sum of Mulliken charges =  -0.00000

 Dipole moment (field-independent basis, Debye):
    X=              4.1300    Y=              2.4377    Z=              0.9570  Tot=              4.8903
 Quadrupole moment (field-independent basis, Debye-Ang):
   XX=           -518.5298   YY=           -538.3165   ZZ=           -460.4679
   XY=            -37.0666   XZ=            116.7080   YZ=             35.7203

 Normal termination of Gaussian 16 at Sat Sep  4 17:09:06 2021.
