 Gaussian 16, Revision A.03,
 Gaussian 16:  ES64L-G16RevA.03 25-Dec-2016

 -----------------------------------
 #p cam-b3lyp/Def2SVP td=(nstates=5)
 -----------------------------------

 --------------------------------
 TDDFT excited states in gaussian
 --------------------------------
 Symbolic Z-matrix:
 Charge =  0 Multiplicity = 1

                         Standard orientation:
 ---------------------------------------------------------------------
 Center     Atomic      Atomic             Coordinates (Angstroms)
 Number     Number       Type             X           Y           Z
 ---------------------------------------------------------------------
      1         12           0       -6.710997   -0.350871    0.014240
      2          6           0       -6.693187    3.226598   -0.102435
      3          6           0       -7.523356   -0.306528   -3.299545
      4          6           0       -7.177624   -3.482169    0.198230
      5          6           0       -7.021393   -0.089320    3.475584
      6          7           0       -7.036903    1.311856   -1.410460
      7          6           0       -6.940902    2.636049   -1.343617
      8          6           0       -7.053369    3.334496   -2.731745
      9          6           0       -7.862049    2.206465   -3.516335
     10          6           0       -7.421582    0.992128   -2.718025
     11          6           0       -9.376105    2.348879   -3.398634
     12          6           0       -5.652842    3.592837   -3.382523
     13          6           0       -5.653556    4.554474   -4.574415
     14          1           0       -4.517863    5.445937   -4.755643
     15          7           0       -6.788007   -1.720445   -1.407445
     16          6           0       -7.121759   -1.522502   -2.705410
     17          6           0       -7.030587   -2.847171   -3.356269
     18          6           0       -6.801447   -3.862653   -2.291194
     19          6           0       -6.941140   -3.055208   -1.106333
     20          6           0       -7.109485   -3.042451   -4.839304
     21          6           0       -6.514195   -5.330227   -2.334152
     22          8           0       -6.579269   -6.066851   -1.291211
     23          6           0       -6.237451   -5.906853   -3.662292
     24          7           0       -7.271476   -1.613528    1.579231
     25          6           0       -7.343719   -2.937743    1.405400
     26          6           0       -7.483629   -3.653664    2.716057
     27          6           0       -7.247099   -2.552984    3.848449
     28          6           0       -7.084070   -1.310103    2.939088
     29          6           0       -8.828912   -4.352470    2.956667
     30          6           0       -6.146099   -2.848811    4.897594
     31          6           0       -4.787005   -2.829715    4.234572
     32          7           0       -6.660154    1.253908    1.474769
     33          6           0       -6.834063    1.137726    2.861467
     34          6           0       -6.825211    2.504736    3.413983
     35          6           0       -6.662312    3.327441    2.301120
     36          6           0       -6.601268    2.526650    1.124983
     37          6           0       -7.015188    2.852520    4.780507
     38          6           0       -6.550332    4.698155    1.829462
     39          8           0       -6.443926    5.797187    2.375630
     40          6           0       -6.688123    4.694993    0.243010
     41          6           0       -5.576736    5.543949   -0.311430
     42          8           0       -4.385584    5.186923   -0.206289
     43          8           0       -6.098224    6.512879   -1.079393
     44          6           0       -5.046933    7.373647   -1.684389
     45          1           0       -8.007439   -0.412788   -4.272331
     46          1           0       -7.234000   -4.565907    0.319771
     47          1           0       -7.028377    0.065601    4.556049
     48          1           0       -7.621322    4.265000   -2.727655
     49          1           0       -7.535496    2.117728   -4.552294
     50          1           0       -9.648847    3.128267   -2.687237
     51          1           0       -9.733963    1.377990   -3.055406
     52          1           0       -9.827789    2.505391   -4.378564
     53          1           0       -5.313550    2.683294   -3.878178
     54          1           0       -4.939538    3.944259   -2.636181
     55          1           0       -6.589414    5.110451   -4.637407
     56          1           0       -5.627358    3.963568   -5.490027
     57          1           0       -7.446430   -2.138376   -5.344933
     58          1           0       -7.901735   -3.767861   -5.023232
     59          1           0       -6.171135   -3.409470   -5.255393
     60          1           0       -7.092824   -5.732936   -4.315468
     61          1           0       -5.966737   -6.947581   -3.487794
     62          1           0       -5.396991   -5.375487   -4.109760
     63          1           0       -6.732729   -4.436311    2.816249
     64          1           0       -8.143324   -2.380664    4.444905
     65          1           0       -8.737359   -5.418696    3.165198
     66          1           0       -9.460249   -4.177065    2.086071
     67          1           0       -9.433050   -3.919126    3.753315
     68          1           0       -6.282744   -3.843532    5.320447
     69          1           0       -6.135171   -2.136379    5.722562
     70          1           0       -4.703552   -3.834308    3.821460
     71          1           0       -4.006085   -2.645130    4.973018
     72          1           0       -4.761695   -2.130468    3.398571
     73          1           0       -6.272757    3.617812    5.006547
     74          1           0       -6.899925    1.984806    5.429653
     75          1           0       -8.040490    3.221207    4.754383
     76          1           0       -7.670748    5.105621    0.012892
     77          1           0       -5.270223    8.401675   -1.398848
     78          1           0       -5.027042    7.136978   -2.748343
     79          1           0       -4.040421    7.261665   -1.279751
     80         12           0        6.501025   -1.158445    0.256386
     81          6           0        7.630671    2.247817    0.274592
     82          6           0        6.793348   -1.080455   -3.141119
     83          6           0        5.086095   -3.997055    0.168816
     84          6           0        5.230722   -0.608474    3.454756
     85          7           0        7.140398    0.435455   -1.137498
     86          6           0        7.606061    1.668986   -1.011394
     87          6           0        8.146634    2.290069   -2.327307
     88          6           0        7.311237    1.402641   -3.372993
     89          6           0        7.093435    0.156673   -2.516955
     90          6           0        5.952468    1.992515   -3.712294
     91          6           0        9.691688    2.076671   -2.498412
     92          6           0       10.339056    2.918639   -3.600117
     93          1           0       11.694775    3.418305   -3.388400
     94          7           0        6.462248   -2.530401   -1.177068
     95          6           0        6.621785   -2.327903   -2.501760
     96          6           0        6.487126   -3.651224   -3.130140
     97          6           0        6.071463   -4.626377   -2.085614
     98          6           0        5.831726   -3.732207   -0.970674
     99          6           0        6.821796   -3.905569   -4.571220
    100          6           0        5.903586   -6.115650   -2.093100
    101          8           0        5.303966   -6.730460   -1.141635
    102          6           0        6.379001   -6.822966   -3.291090
    103          7           0        5.145363   -2.097784    1.522170
    104          6           0        4.729727   -3.353503    1.280635
    105          6           0        3.979103   -3.916695    2.463748
    106          6           0        4.186909   -2.860680    3.646649
    107          6           0        4.982053   -1.778828    2.883278
    108          6           0        2.484264   -4.154708    2.251133
    109          6           0        4.769822   -3.403371    4.980207
    110          6           0        6.202667   -3.840521    4.777126
    111          7           0        6.586132    0.437191    1.710617
    112          6           0        5.961734    0.471562    2.976724
    113          6           0        6.214193    1.809284    3.550484
    114          6           0        6.954251    2.473529    2.560747
    115          6           0        7.131984    1.617632    1.440323
    116          6           0        5.737471    2.279137    4.806705
    117          6           0        7.616429    3.707808    2.204682
    118          8           0        7.869344    4.758785    2.792248
    119          6           0        7.975496    3.660421    0.657031
    120          6           0        9.405168    4.100152    0.498231
    121          8           0       10.332448    3.416440    0.966525
    122          8           0        9.455375    5.133506   -0.362020
    123          6           0       10.854168    5.597969   -0.560691
    124          1           0        6.631964   -1.091871   -4.219410
    125          1           0        4.669195   -5.004626    0.235864
    126          1           0        4.951821   -0.392538    4.488334
    127          1           0        7.915554    3.339869   -2.462598
    128          1           0        7.905493    1.162974   -4.250926
    129          1           0        5.723142    2.853310   -3.101905
    130          1           0        5.235754    1.201321   -3.535142
    131          1           0        5.895321    2.217152   -4.781224
    132          1           0        9.871973    1.071175   -2.899940
    133          1           0       10.204005    2.240387   -1.570321
    134          1           0        9.680761    3.726511   -3.942065
    135          1           0       10.473135    2.289999   -4.483768
    136          1           0        6.940711   -2.967946   -5.128106
    137          1           0        5.945015   -4.381079   -5.023995
    138          1           0        7.683916   -4.564729   -4.693430
    139          1           0        5.861252   -6.438595   -4.166673
    140          1           0        6.255036   -7.885222   -3.071738
    141          1           0        7.442445   -6.598900   -3.430703
    142          1           0        4.394168   -4.870090    2.766854
    143          1           0        3.236926   -2.396826    3.950303
    144          1           0        2.177596   -5.200757    2.440404
    145          1           0        2.232268   -3.861465    1.240666
    146          1           0        1.826838   -3.522782    2.845842
    147          1           0        4.217567   -4.289705    5.302024
    148          1           0        4.729265   -2.685933    5.792992
    149          1           0        6.097170   -4.850434    4.369666
    150          1           0        6.737892   -3.851053    5.724473
    151          1           0        6.696896   -3.227389    4.014597
    152          1           0        6.560745    2.800190    5.277030
    153          1           0        5.377746    1.460693    5.426799
    154          1           0        4.924722    2.931049    4.475446
    155          1           0        7.282823    4.325221    0.139523
    156          1           0       10.872791    6.666245   -0.323741
    157          1           0       11.121889    5.306392   -1.593679
    158          1           0       11.609548    5.217804    0.117047
 ---------------------------------------------------------------------

 SCF Done:  E(RCAM-B3LYP) =  -4069.81162836     A.U. after   19 cycles

 Excitation energies and oscillator strengths:

 Excited State   1:      Singlet-A      1.6654 eV  744.45 nm  f=0.0076  <S**2>=0.000
     309 -> 315       -0.10919
     310 -> 316        0.13210
     311 -> 313       -0.43602
     312 -> 314        0.53041
 This state for optimization and/or second-order correction.
 Total Energy, E(TD-HF/TD-DFT) =  -4069.75042441
 Copying the excited state density for this state as the 1-particle RhoCI density.

 Excited State   2:      Singlet-A      1.6894 eV  733.89 nm  f=0.7360  <S**2>=0.000
     309 -> 315        0.13757
     310 -> 316        0.11246
     311 -> 313        0.52922
     312 -> 314        0.43511

 Excited State   3:      Singlet-A      2.1847 eV  567.51 nm  f=0.0504  <S**2>=0.000
     309 -> 313       -0.18644
     310 -> 314        0.61545
     312 -> 316       -0.26048

 Excited State   4:      Singlet-A      2.1935 eV  565.23 nm  f=0.1403  <S**2>=0.000
     309 -> 313        0.61305
     310 -> 314        0.18469
     311 -> 315       -0.26713

 Excited State   5:      Singlet-A      2.6570 eV  466.63 nm  f=0.0000  <S**2>=0.000
     312 -> 313        0.70706

 The electronic state is 1-A.
 Alpha  occ. eigenvalues --  -46.87827 -46.87551 -19.26300 -19.26256 -19.19065
 Alpha  occ. eigenvalues --  -19.19038 -19.18830 -19.18627 -19.18187 -19.17933
 Alpha  occ. eigenvalues --  -14.42481 -14.42391 -14.41481 -14.41248 -14.39431
 Alpha  occ. eigenvalues --  -14.39246 -14.38616 -14.38487 -10.39098 -10.38992
 Alpha  occ. eigenvalues --  -10.35463 -10.35307 -10.34408 -10.34110 -10.31692
 Alpha  occ. eigenvalues --  -10.31673 -10.31436 -10.31200 -10.30938 -10.30925
 Alpha  occ. eigenvalues --  -10.30600 -10.30535 -10.30285 -10.30249 -10.30239
 Alpha  occ. eigenvalues --  -10.30035 -10.29951 -10.29777 -10.29658 -10.29331
 Alpha  occ. eigenvalues --  -10.29293 -10.29282 -10.28784 -10.28628 -10.28589
 Alpha  occ. eigenvalues --  -10.28587 -10.28392 -10.28298 -10.28151 -10.28046
 Alpha  occ. eigenvalues --  -10.27890 -10.27818 -10.27758 -10.27610 -10.27566
 Alpha  occ. eigenvalues --  -10.27540 -10.27513 -10.27482 -10.27432 -10.27406
 Alpha  occ. eigenvalues --  -10.27399 -10.27376 -10.27364 -10.27260 -10.27179
 Alpha  occ. eigenvalues --  -10.26936 -10.26748 -10.26614 -10.26420 -10.26354
 Alpha  occ. eigenvalues --  -10.26264 -10.26239 -10.26052 -10.26042 -10.25926
 Alpha  occ. eigenvalues --  -10.25865 -10.25822 -10.25700 -10.25461 -10.25265
 Alpha  occ. eigenvalues --  -10.24858 -10.24816 -10.24762 -10.24758 -10.24642
 Alpha  occ. eigenvalues --  -10.24580  -3.16570  -3.16301  -1.91452  -1.91183
 Alpha  occ. eigenvalues --   -1.91038  -1.90880  -1.90772  -1.90609  -1.16649
 Alpha  occ. eigenvalues --   -1.16549  -1.08644  -1.08539  -1.07230  -1.06881
 Alpha  occ. eigenvalues --   -1.06849  -1.06660  -1.04611  -1.04389  -1.03791
 Alpha  occ. eigenvalues --   -1.03555  -1.03263  -1.02928  -1.02440  -1.02001
 Alpha  occ. eigenvalues --   -0.91999  -0.91877  -0.89557  -0.89387  -0.89222
 Alpha  occ. eigenvalues --   -0.89057  -0.88322  -0.88111  -0.87896  -0.87705
 Alpha  occ. eigenvalues --   -0.87671  -0.87579  -0.87299  -0.87031  -0.85015
 Alpha  occ. eigenvalues --   -0.84905  -0.83975  -0.83768  -0.82991  -0.82847
 Alpha  occ. eigenvalues --   -0.82678  -0.82560  -0.81610  -0.81494  -0.80622
 Alpha  occ. eigenvalues --   -0.80342  -0.78824  -0.78535  -0.77253  -0.77045
 Alpha  occ. eigenvalues --   -0.76967  -0.76799  -0.75952  -0.75739  -0.74930
 Alpha  occ. eigenvalues --   -0.74691  -0.72804  -0.72588  -0.71701  -0.71473
 Alpha  occ. eigenvalues --   -0.69953  -0.69654  -0.68904  -0.68732  -0.67668
 Alpha  occ. eigenvalues --   -0.67497  -0.67252  -0.67114  -0.65319  -0.65175
 Alpha  occ. eigenvalues --   -0.64882  -0.64665  -0.64652  -0.64554  -0.64305
 Alpha  occ. eigenvalues --   -0.64097  -0.62321  -0.62178  -0.60469  -0.60242
 Alpha  occ. eigenvalues --   -0.59836  -0.59697  -0.59016  -0.58885  -0.58532
 Alpha  occ. eigenvalues --   -0.58319  -0.57607  -0.57444  -0.57337  -0.57131
 Alpha  occ. eigenvalues --   -0.56336  -0.56099  -0.56001  -0.55792  -0.55544
 Alpha  occ. eigenvalues --   -0.55371  -0.55357  -0.55139  -0.54553  -0.54384
 Alpha  occ. eigenvalues --   -0.53929  -0.53819  -0.53326  -0.53249  -0.53126
 Alpha  occ. eigenvalues --   -0.53046  -0.52942  -0.52805  -0.52782  -0.52588
 Alpha  occ. eigenvalues --   -0.52485  -0.52303  -0.51939  -0.51750  -0.51646
 Alpha  occ. eigenvalues --   -0.51569  -0.51225  -0.51094  -0.50597  -0.50396
 Alpha  occ. eigenvalues --   -0.50070  -0.49944  -0.49886  -0.49762  -0.49541
 Alpha  occ. eigenvalues --   -0.49396  -0.49239  -0.49126  -0.49103  -0.49000
 Alpha  occ. eigenvalues --   -0.48619  -0.48489  -0.48465  -0.48455  -0.48263
 Alpha  occ. eigenvalues --   -0.48248  -0.47725  -0.47500  -0.47324  -0.47020
 Alpha  occ. eigenvalues --   -0.46831  -0.46605  -0.46588  -0.46462  -0.46389
 Alpha  occ. eigenvalues --   -0.46190  -0.46166  -0.45971  -0.45846  -0.45710
 Alpha  occ. eigenvalues --   -0.45234  -0.45097  -0.44602  -0.44538  -0.44413
 Alpha  occ. eigenvalues --   -0.44376  -0.44179  -0.44119  -0.44043  -0.44028
 Alpha  occ. eigenvalues --   -0.43979  -0.43844  -0.43519  -0.43453  -0.43418
 Alpha  occ. eigenvalues --   -0.43283  -0.43056  -0.42832  -0.42792  -0.42727
 Alpha  occ. eigenvalues --   -0.42688  -0.42452  -0.42048  -0.41865  -0.41731
 Alpha  occ. eigenvalues --   -0.41568  -0.41560  -0.41364  -0.41170  -0.40906
 Alpha  occ. eigenvalues --   -0.40884  -0.40845  -0.40637  -0.40607  -0.40607
 Alpha  occ. eigenvalues --   -0.40387  -0.40272  -0.40146  -0.39491  -0.39324
 Alpha  occ. eigenvalues --   -0.38506  -0.38243  -0.37786  -0.37566  -0.37355
 Alpha  occ. eigenvalues --   -0.37296  -0.37160  -0.37101  -0.36737  -0.36673
 Alpha  occ. eigenvalues --   -0.36221  -0.36112  -0.34315  -0.34144  -0.33790
 Alpha  occ. eigenvalues --   -0.33763  -0.33215  -0.33067  -0.31360  -0.31185
 Alpha  occ. eigenvalues --   -0.31064  -0.30866  -0.30047  -0.29837  -0.29474
 Alpha  occ. eigenvalues --   -0.29347  -0.29225  -0.29095  -0.24110  -0.23926
 Alpha  occ. eigenvalues --   -0.21157  -0.21009
 Alpha virt. eigenvalues --   -0.08801  -0.08684  -0.01779  -0.01576  -0.00081
 Alpha virt. eigenvalues --    0.00068   0.02177   0.02323   0.03082   0.03326
 Alpha virt. eigenvalues --    0.04684   0.04832   0.05079   0.05265   0.06138

 Mulliken charges:
               1
     1  Mg   0.838600
     2  C   -0.002952
     3  C   -0.094232
     4  C   -0.045817
     5  C   -0.064071
     6  N   -0.256772
     7  C   -0.052505
     8  C   -0.013989
     9  C   -0.086981
    10  C    0.046298
    11  C    0.104801
    12  C    0.053515
    13  C   -0.071684
    14  H    0.035881
    15  N   -0.433168
    16  C    0.168420
    17  C   -0.177189
    18  C   -0.003903
    19  C    0.148709
    20  C    0.110214
    21  C    0.012467
    22  O   -0.249389
    23  C    0.062423
    24  N   -0.341109
    25  C    0.041168
    26  C   -0.028224
    27  C   -0.023935
    28  C    0.074729
    29  C    0.076127
    30  C    0.035151
    31  C   -0.004498
    32  N   -0.310489
    33  C    0.080331
    34  C   -0.169764
    35  C    0.008440
    36  C    0.082941
    37  C    0.127309
    38  C    0.046177
    39  O   -0.188144
    40  C   -0.005367
    41  C    0.212953
    42  O   -0.257105
    43  O   -0.304803
    44  C    0.157590
    45  H   -0.017632
    46  H   -0.016708
    47  H   -0.041539
    48  H    0.001029
    49  H   -0.004190
    50  H    0.025560
    51  H    0.016504
    52  H    0.016641
    53  H    0.010972
    54  H    0.044152
    55  H    0.018027
    56  H    0.017723
    57  H    0.005736
    58  H    0.026904
    59  H    0.039405
    60  H    0.037219
    61  H    0.036016
    62  H    0.031473
    63  H    0.016578
    64  H    0.009581
    65  H    0.023336
    66  H    0.012628
    67  H    0.004799
    68  H    0.006461
    69  H    0.004711
    70  H    0.008950
    71  H    0.017222
    72  H    0.029018
    73  H    0.047701
    74  H    0.008982
    75  H    0.046130
    76  H    0.035215
    77  H    0.043178
    78  H    0.046193
    79  H    0.053870
    80  Mg   0.838116
    81  C   -0.016806
    82  C   -0.087971
    83  C   -0.045571
    84  C   -0.064286
    85  N   -0.254542
    86  C   -0.049612
    87  C   -0.015104
    88  C   -0.090566
    89  C    0.045843
    90  C    0.114421
    91  C    0.062596
    92  C   -0.077720
    93  H    0.034647
    94  N   -0.423432
    95  C    0.162871
    96  C   -0.175012
    97  C   -0.007996
    98  C    0.152025
    99  C    0.099567
   100  C    0.015332
   101  O   -0.253217
   102  C    0.061301
   103  N   -0.349992
   104  C    0.037597
   105  C   -0.019900
   106  C   -0.034869
   107  C    0.089084
   108  C    0.073586
   109  C    0.034698
   110  C   -0.007608
   111  N   -0.324250
   112  C    0.078639
   113  C   -0.162593
   114  C    0.002533
   115  C    0.096333
   116  C    0.131378
   117  C    0.042762
   118  O   -0.187582
   119  C    0.000777
   120  C    0.211196
   121  O   -0.251198
   122  O   -0.305524
   123  C    0.152091
   124  H   -0.020203
   125  H   -0.015611
   126  H   -0.040189
   127  H   -0.000577
   128  H   -0.004749
   129  H    0.023052
   130  H    0.014593
   131  H    0.015622
   132  H    0.013792
   133  H    0.037660
   134  H    0.020738
   135  H    0.019339
   136  H    0.008433
   137  H    0.025512
   138  H    0.039472
   139  H    0.037854
   140  H    0.036172
   141  H    0.033770
   142  H    0.014145
   143  H    0.012903
   144  H    0.025095
   145  H    0.011896
   146  H    0.006037
   147  H    0.006027
   148  H    0.003653
   149  H    0.010819
   150  H    0.017712
   151  H    0.030116
   152  H    0.045802
   153  H    0.008368
   154  H    0.048498
   155  H    0.035561
   156  H    0.043903
   157  H    0.049285
   158  H    0.053458
 Sum of Mulliken charges =  -0.00000

 Dipole moment (field-independent basis, Debye):
    X=             -3.1884    Y=             -2.3886    Z=             -7.9401  Tot=              8.8835
 Quadrupole moment (field-independent basis, Debye-Ang):
   XX=           -501.5991   YY=           -557.5086   ZZ=           -445.8990
   XY=             -4.4119   XZ=            -22.5097   YZ=            -35.0959

 Normal termination of Gaussian 16 at Sat Sep 11 10:37:08 2021.
