 Gaussian 16, Revision A.03,
 Gaussian 16:  ES64L-G16RevA.03 25-Dec-2016

 -----------------------------------
 #p cam-b3lyp/Def2SVP td=(nstates=5)
 -----------------------------------

 --------------------------------
 TDDFT excited states in gaussian
 --------------------------------
 Symbolic Z-matrix:
 Charge =  0 Multiplicity = 1

                         Standard orientation:
 ---------------------------------------------------------------------
 Center     Atomic      Atomic             Coordinates (Angstroms)
 Number     Number       Type             X           Y           Z
 ---------------------------------------------------------------------
      1         12           0      -15.708489   -0.710318    0.074831
      2          6           0      -15.999928    2.839653   -0.278694
      3          6           0      -16.651912   -0.963828   -3.194534
      4          6           0      -15.899212   -3.848945    0.486254
      5          6           0      -15.903080   -0.234766    3.521808
      6          7           0      -16.230777    0.816700   -1.440450
      7          6           0      -16.245293    2.145731   -1.465671
      8          6           0      -16.471547    2.734188   -2.890417
      9          6           0      -17.211611    1.491573   -3.561395
     10          6           0      -16.638180    0.376134   -2.705303
     11          6           0      -18.726461    1.516823   -3.385060
     12          6           0      -15.124896    3.060896   -3.619473
     13          6           0      -15.254547    3.933868   -4.871058
     14          1           0      -14.206917    4.900928   -5.161942
     15          7           0      -15.724711   -2.177258   -1.248300
     16          6           0      -16.125103   -2.098311   -2.540096
     17          6           0      -15.947264   -3.453093   -3.105445
     18          6           0      -15.590620   -4.369640   -1.987035
     19          6           0      -15.751642   -3.495871   -0.853025
     20          6           0      -16.067760   -3.757006   -4.567248
     21          6           0      -15.181393   -5.808031   -1.945850
     22          8           0      -15.142280   -6.473084   -0.854636
     23          6           0      -14.909234   -6.451030   -3.244127
     24          7           0      -16.097192   -1.902731    1.743572
     25          6           0      -16.063247   -3.237282    1.661076
     26          6           0      -16.089827   -3.869264    3.021161
     27          6           0      -15.903323   -2.676679    4.066489
     28          6           0      -15.882739   -1.490957    3.070542
     29          6           0      -17.360180   -4.657893    3.367977
     30          6           0      -14.740563   -2.807160    5.082059
     31          6           0      -13.415279   -2.722565    4.358482
     32          7           0      -15.736809    0.991009    1.422321
     33          6           0      -15.845292    0.957772    2.820105
     34          6           0      -15.931037    2.356026    3.280107
     35          6           0      -15.882847    3.109837    2.109085
     36          6           0      -15.800349    2.236822    0.986886
     37          6           0      -16.095814    2.781327    4.627847
     38          6           0      -15.906683    4.448930    1.543296
     39          8           0      -15.872741    5.588349    2.010270
     40          6           0      -16.106252    4.323970   -0.031628
     41          6           0      -15.093942    5.220781   -0.690618
     42          8           0      -13.873499    4.971129   -0.616052
     43          8           0      -15.725946    6.087692   -1.496582
     44          6           0      -14.776469    6.987782   -2.204032
     45          1           0      -17.163232   -1.177032   -4.135298
     46          1           0      -15.858277   -4.922543    0.681573
     47          1           0      -15.880550   -0.006077    4.588881
     48          1           0      -17.116049    3.612843   -2.922166
     49          1           0      -16.919859    1.358066   -4.602922
     50          1           0      -19.036255    2.318782   -2.715126
     51          1           0      -18.986529    0.546058   -2.962599
     52          1           0      -19.228177    1.567028   -4.351774
     53          1           0      -14.729245    2.150039   -4.068762
     54          1           0      -14.415183    3.520918   -2.930987
     55          1           0      -16.236095    4.405246   -4.928295
     56          1           0      -15.214320    3.284794   -5.745863
     57          1           0      -16.500155   -2.921124   -5.115774
     58          1           0      -16.802021   -4.556163   -4.666842
     59          1           0      -15.118740   -4.073685   -5.000153
     60          1           0      -15.801435   -6.393969   -3.868043
     61          1           0      -14.544223   -7.451278   -3.013646
     62          1           0      -14.135393   -5.884794   -3.763257
     63          1           0      -15.271655   -4.578613    3.138818
     64          1           0      -16.786707   -2.537538    4.690145
     65          1           0      -17.170024   -5.695856    3.642164
     66          1           0      -18.038046   -4.596066    2.517116
     67          1           0      -17.967080   -4.221283    4.160732
     68          1           0      -14.775221   -3.777878    5.575467
     69          1           0      -14.757754   -2.040527    5.856804
     70          1           0      -13.262985   -3.743212    4.009314
     71          1           0      -12.624356   -2.423397    5.047068
     72          1           0      -13.482627   -2.083529    3.477810
     73          1           0      -15.412885    3.618968    4.769033
     74          1           0      -15.881551    1.973355    5.327043
     75          1           0      -17.149010    3.061715    4.623778
     76          1           0      -17.128586    4.635359   -0.243737
     77          1           0      -15.075016    8.011343   -1.977254
     78          1           0      -14.778537    6.680032   -3.249828
     79          1           0      -13.748885    6.987418   -1.838779
     80         12           0       16.016345    0.007902   -0.639085
     81          6           0       15.089385    0.356723    2.810281
     82          6           0       15.799781   -3.367872   -0.201075
     83          6           0       17.262939   -0.347855   -3.535096
     84          6           0       17.250133    3.263986   -0.492833
     85          7           0       15.501164   -1.225449    1.123219
     86          6           0       15.106531   -0.981086    2.363730
     87          6           0       14.630981   -2.234604    3.146109
     88          6           0       15.434142   -3.352937    2.319599
     89          6           0       15.560258   -2.625301    0.982694
     90          6           0       16.832086   -3.610351    2.857032
     91          6           0       13.079918   -2.449241    3.045359
     92          6           0       12.506355   -3.468746    4.031970
     93          1           0       11.178356   -3.227120    4.589185
     94          7           0       16.003921   -1.557250   -1.859213
     95          6           0       15.884154   -2.856592   -1.514774
     96          6           0       15.953575   -3.614563   -2.773674
     97          6           0       16.289232   -2.668928   -3.872683
     98          6           0       16.558049   -1.465225   -3.111803
     99          6           0       15.634502   -5.078838   -2.860516
    100          6           0       16.369111   -2.825751   -5.361048
    101          8           0       16.911535   -1.933224   -6.104005
    102          6           0       15.877809   -4.096467   -5.913671
    103          7           0       17.287656    1.191071   -1.781974
    104          6           0       17.633454    0.828904   -3.029848
    105          6           0       18.324817    1.959324   -3.754106
    106          6           0       18.155113    3.240544   -2.812164
    107          6           0       17.441176    2.579861   -1.612498
    108          6           0       19.807113    1.745519   -4.059856
    109          6           0       17.513623    4.503117   -3.450196
    110          6           0       16.062020    4.235502   -3.776738
    111          7           0       15.995275    1.615835    0.803895
    112          6           0       16.594170    2.887879    0.672341
    113          6           0       16.409171    3.591265    1.958204
    114          6           0       15.730282    2.663661    2.762661
    115          6           0       15.525716    1.459322    2.036564
    116          6           0       16.886565    4.895708    2.269065
    117          6           0       15.149588    2.425611    4.064521
    118          8           0       14.946927    3.113490    5.064257
    119          6           0       14.820576    0.876089    4.195428
    120          6           0       13.422940    0.741976    4.734996
    121          8           0       12.447424    1.124449    4.065156
    122          8           0       13.451639   -0.009067    5.851003
    123          6           0       12.087093   -0.179870    6.417292
    124          1           0       15.982570   -4.439222   -0.113431
    125          1           0       17.618210   -0.377775   -4.567740
    126          1           0       17.519741    4.318173   -0.399630
    127          1           0       14.926325   -2.258744    4.188211
    128          1           0       14.845154   -4.259379    2.206291
    129          1           0       17.099043   -2.912060    3.636306
    130          1           0       17.497063   -3.504281    2.009913
    131          1           0       16.924571   -4.649850    3.184472
    132          1           0       12.849038   -2.953805    2.098338
    133          1           0       12.558973   -1.516919    3.145428
    134          1           0       13.218110   -3.716839    4.828705
    135          1           0       12.353828   -4.413766    3.505006
    136          1           0       15.582685   -5.538908   -1.866005
    137          1           0       16.490937   -5.564811   -3.340317
    138          1           0       14.737749   -5.280262   -3.450367
    139          1           0       16.435407   -4.920603   -5.475096
    140          1           0       15.934327   -3.984772   -6.998207
    141          1           0       14.832561   -4.228115   -5.612453
    142          1           0       17.848040    2.157507   -4.706212
    143          1           0       19.124282    3.603827   -2.439904
    144          1           0       20.047573    1.831624   -5.136354
    145          1           0       20.096903    0.774025   -3.682021
    146          1           0       20.488154    2.411138   -3.532277
    147          1           0       18.005855    4.740960   -4.396396
    148          1           0       17.579532    5.385328   -2.822220
    149          1           0       16.116235    3.728792   -4.744928
    150          1           0       15.507544    5.168885   -3.850249
    151          1           0       15.620761    3.532287   -3.060903
    152          1           0       16.085843    5.404570    2.789070
    153          1           0       17.184439    5.434342    1.371893
    154          1           0       17.743037    4.644622    2.900469
    155          1           0       15.561857    0.439286    4.865710
    156          1           0       12.126579    0.164465    7.455355
    157          1           0       11.824166   -1.241021    6.248243
    158          1           0       11.296698    0.444411    6.017301
 ---------------------------------------------------------------------

 SCF Done:  E(RCAM-B3LYP) =  -4069.81175828     A.U. after   19 cycles

 Excitation energies and oscillator strengths:

 Excited State   1:      Singlet-A      1.6753 eV  740.06 nm  f=0.2115  <S**2>=0.000
     310 -> 316        0.16847
     311 -> 313        0.66610
     312 -> 314       -0.16428
     310 <- 316        0.10156
 This state for optimization and/or second-order correction.
 Total Energy, E(TD-HF/TD-DFT) =  -4069.75019110
 Copying the excited state density for this state as the 1-particle RhoCI density.

 Excited State   2:      Singlet-A      1.6801 eV  737.95 nm  f=0.5659  <S**2>=0.000
     309 -> 315        0.17048
     311 -> 313        0.16423
     312 -> 314        0.66573
     309 <- 315        0.10206

 Excited State   3:      Singlet-A      2.1861 eV  567.15 nm  f=0.0966  <S**2>=0.000
     310 -> 313        0.64216
     311 -> 316       -0.27296

 Excited State   4:      Singlet-A      2.1925 eV  565.50 nm  f=0.1037  <S**2>=0.000
     309 -> 314        0.64039
     312 -> 315       -0.27812

 Excited State   5:      Singlet-A      3.0612 eV  405.01 nm  f=0.0000  <S**2>=0.000
     312 -> 313        0.70711

 The electronic state is 1-A.
 Alpha  occ. eigenvalues --  -46.87765 -46.87660 -19.26340 -19.26245 -19.19152
 Alpha  occ. eigenvalues --  -19.18981 -19.18788 -19.18716 -19.18136 -19.18049
 Alpha  occ. eigenvalues --  -14.42497 -14.42419 -14.41419 -14.41359 -14.39372
 Alpha  occ. eigenvalues --  -14.39352 -14.38599 -14.38555 -10.39082 -10.39041
 Alpha  occ. eigenvalues --  -10.35421 -10.35393 -10.34356 -10.34226 -10.31743
 Alpha  occ. eigenvalues --  -10.31638 -10.31373 -10.31308 -10.31022 -10.30877
 Alpha  occ. eigenvalues --  -10.30538 -10.30477 -10.30397 -10.30360 -10.30178
 Alpha  occ. eigenvalues --  -10.30142 -10.29895 -10.29890 -10.29600 -10.29437
 Alpha  occ. eigenvalues --  -10.29400 -10.29224 -10.28716 -10.28715 -10.28645
 Alpha  occ. eigenvalues --  -10.28500 -10.28404 -10.28333 -10.28138 -10.28084
 Alpha  occ. eigenvalues --  -10.28001 -10.27762 -10.27696 -10.27669 -10.27554
 Alpha  occ. eigenvalues --  -10.27520 -10.27483 -10.27473 -10.27468 -10.27465
 Alpha  occ. eigenvalues --  -10.27452 -10.27422 -10.27378 -10.27372 -10.27124
 Alpha  occ. eigenvalues --  -10.27047 -10.26686 -10.26668 -10.26417 -10.26385
 Alpha  occ. eigenvalues --  -10.26203 -10.26156 -10.26139 -10.26025 -10.25989
 Alpha  occ. eigenvalues --  -10.25935 -10.25850 -10.25811 -10.25410 -10.25402
 Alpha  occ. eigenvalues --  -10.24872 -10.24801 -10.24758 -10.24731 -10.24690
 Alpha  occ. eigenvalues --  -10.24658  -3.16508  -3.16410  -1.91390  -1.91292
 Alpha  occ. eigenvalues --   -1.90976  -1.90881  -1.90818  -1.90718  -1.16634
 Alpha  occ. eigenvalues --   -1.16594  -1.08655  -1.08593  -1.07189  -1.06968
 Alpha  occ. eigenvalues --   -1.06936  -1.06604  -1.04549  -1.04495  -1.03730
 Alpha  occ. eigenvalues --   -1.03663  -1.03203  -1.03039  -1.02380  -1.02111
 Alpha  occ. eigenvalues --   -0.91986  -0.91940  -0.89495  -0.89490  -0.89155
 Alpha  occ. eigenvalues --   -0.89149  -0.88258  -0.88221  -0.87839  -0.87793
 Alpha  occ. eigenvalues --   -0.87683  -0.87641  -0.87244  -0.87121  -0.84997
 Alpha  occ. eigenvalues --   -0.84949  -0.83907  -0.83877  -0.82939  -0.82933
 Alpha  occ. eigenvalues --   -0.82651  -0.82616  -0.81592  -0.81551  -0.80564
 Alpha  occ. eigenvalues --   -0.80440  -0.78767  -0.78636  -0.77187  -0.77143
 Alpha  occ. eigenvalues --   -0.76901  -0.76895  -0.75890  -0.75836  -0.74869
 Alpha  occ. eigenvalues --   -0.74803  -0.72743  -0.72699  -0.71641  -0.71580
 Alpha  occ. eigenvalues --   -0.69878  -0.69759  -0.68841  -0.68825  -0.67610
 Alpha  occ. eigenvalues --   -0.67601  -0.67197  -0.67187  -0.65269  -0.65253
 Alpha  occ. eigenvalues --   -0.64821  -0.64769  -0.64651  -0.64588  -0.64239
 Alpha  occ. eigenvalues --   -0.64204  -0.62273  -0.62262  -0.60413  -0.60340
 Alpha  occ. eigenvalues --   -0.59795  -0.59772  -0.58992  -0.58956  -0.58472
 Alpha  occ. eigenvalues --   -0.58424  -0.57550  -0.57550  -0.57278  -0.57236
 Alpha  occ. eigenvalues --   -0.56278  -0.56203  -0.55942  -0.55881  -0.55490
 Alpha  occ. eigenvalues --   -0.55450  -0.55308  -0.55246  -0.54490  -0.54485
 Alpha  occ. eigenvalues --   -0.53910  -0.53862  -0.53268  -0.53227  -0.53190
 Alpha  occ. eigenvalues --   -0.53139  -0.52899  -0.52881  -0.52726  -0.52668
 Alpha  occ. eigenvalues --   -0.52409  -0.52402  -0.51884  -0.51883  -0.51656
 Alpha  occ. eigenvalues --   -0.51584  -0.51199  -0.51164  -0.50544  -0.50476
 Alpha  occ. eigenvalues --   -0.50003  -0.49979  -0.49889  -0.49868  -0.49487
 Alpha  occ. eigenvalues --   -0.49483  -0.49200  -0.49183  -0.49102  -0.49063
 Alpha  occ. eigenvalues --   -0.48560  -0.48556  -0.48432  -0.48414  -0.48376
 Alpha  occ. eigenvalues --   -0.48339  -0.47664  -0.47593  -0.47266  -0.47118
 Alpha  occ. eigenvalues --   -0.46766  -0.46708  -0.46551  -0.46522  -0.46328
 Alpha  occ. eigenvalues --   -0.46270  -0.46131  -0.46085  -0.45819  -0.45788
 Alpha  occ. eigenvalues --   -0.45210  -0.45172  -0.44545  -0.44512  -0.44476
 Alpha  occ. eigenvalues --   -0.44474  -0.44126  -0.44114  -0.44077  -0.44056
 Alpha  occ. eigenvalues --   -0.43987  -0.43938  -0.43549  -0.43461  -0.43384
 Alpha  occ. eigenvalues --   -0.43354  -0.42995  -0.42926  -0.42898  -0.42665
 Alpha  occ. eigenvalues --   -0.42622  -0.42554  -0.41978  -0.41963  -0.41672
 Alpha  occ. eigenvalues --   -0.41668  -0.41501  -0.41456  -0.41110  -0.40989
 Alpha  occ. eigenvalues --   -0.40837  -0.40794  -0.40721  -0.40697  -0.40541
 Alpha  occ. eigenvalues --   -0.40494  -0.40223  -0.40200  -0.39427  -0.39412
 Alpha  occ. eigenvalues --   -0.38439  -0.38351  -0.37714  -0.37649  -0.37290
 Alpha  occ. eigenvalues --   -0.37266  -0.37230  -0.37197  -0.36764  -0.36678
 Alpha  occ. eigenvalues --   -0.36215  -0.36159  -0.34255  -0.34253  -0.33854
 Alpha  occ. eigenvalues --   -0.33733  -0.33175  -0.33155  -0.31317  -0.31275
 Alpha  occ. eigenvalues --   -0.31004  -0.30972  -0.29995  -0.29953  -0.29419
 Alpha  occ. eigenvalues --   -0.29327  -0.29290  -0.29211  -0.24049  -0.24036
 Alpha  occ. eigenvalues --   -0.21117  -0.21097
 Alpha virt. eigenvalues --   -0.08792  -0.08743  -0.01719  -0.01684  -0.00029
 Alpha virt. eigenvalues --   -0.00028   0.02208   0.02232   0.03153   0.03228
 Alpha virt. eigenvalues --    0.04732   0.04750   0.05136   0.05173   0.06189

 Mulliken charges:
               1
     1  Mg   0.838737
     2  C   -0.002930
     3  C   -0.094116
     4  C   -0.045899
     5  C   -0.063959
     6  N   -0.256774
     7  C   -0.052445
     8  C   -0.014008
     9  C   -0.086994
    10  C    0.046327
    11  C    0.104822
    12  C    0.053449
    13  C   -0.071830
    14  H    0.036242
    15  N   -0.433136
    16  C    0.168425
    17  C   -0.177162
    18  C   -0.004034
    19  C    0.148717
    20  C    0.110186
    21  C    0.012274
    22  O   -0.249686
    23  C    0.062479
    24  N   -0.341135
    25  C    0.041251
    26  C   -0.028158
    27  C   -0.023977
    28  C    0.074847
    29  C    0.076191
    30  C    0.035146
    31  C   -0.004506
    32  N   -0.310483
    33  C    0.080432
    34  C   -0.169698
    35  C    0.008385
    36  C    0.083028
    37  C    0.127301
    38  C    0.046149
    39  O   -0.188376
    40  C   -0.005374
    41  C    0.212888
    42  O   -0.257032
    43  O   -0.304822
    44  C    0.157660
    45  H   -0.017624
    46  H   -0.016891
    47  H   -0.041498
    48  H    0.000939
    49  H   -0.004021
    50  H    0.025466
    51  H    0.016414
    52  H    0.016640
    53  H    0.011220
    54  H    0.044175
    55  H    0.017840
    56  H    0.017943
    57  H    0.005879
    58  H    0.026772
    59  H    0.039552
    60  H    0.037326
    61  H    0.035580
    62  H    0.031529
    63  H    0.016522
    64  H    0.009432
    65  H    0.023152
    66  H    0.012532
    67  H    0.004724
    68  H    0.006302
    69  H    0.004742
    70  H    0.008738
    71  H    0.018174
    72  H    0.029039
    73  H    0.047634
    74  H    0.009107
    75  H    0.045987
    76  H    0.035136
    77  H    0.042960
    78  H    0.046402
    79  H    0.053772
    80  Mg   0.837856
    81  C   -0.016798
    82  C   -0.087768
    83  C   -0.045522
    84  C   -0.064908
    85  N   -0.254539
    86  C   -0.049811
    87  C   -0.015115
    88  C   -0.090505
    89  C    0.045750
    90  C    0.114377
    91  C    0.062524
    92  C   -0.077944
    93  H    0.035048
    94  N   -0.423488
    95  C    0.162919
    96  C   -0.174635
    97  C   -0.007830
    98  C    0.152127
    99  C    0.099377
   100  C    0.015578
   101  O   -0.253206
   102  C    0.061191
   103  N   -0.350072
   104  C    0.037526
   105  C   -0.019826
   106  C   -0.034823
   107  C    0.088926
   108  C    0.073667
   109  C    0.034739
   110  C   -0.007689
   111  N   -0.324108
   112  C    0.078480
   113  C   -0.163120
   114  C    0.002272
   115  C    0.096173
   116  C    0.131482
   117  C    0.042405
   118  O   -0.187792
   119  C    0.000902
   120  C    0.211292
   121  O   -0.250956
   122  O   -0.305668
   123  C    0.151989
   124  H   -0.019663
   125  H   -0.015599
   126  H   -0.040451
   127  H   -0.000635
   128  H   -0.004293
   129  H    0.022451
   130  H    0.014393
   131  H    0.016286
   132  H    0.013926
   133  H    0.037733
   134  H    0.020764
   135  H    0.019593
   136  H    0.008773
   137  H    0.026115
   138  H    0.039808
   139  H    0.038243
   140  H    0.036374
   141  H    0.033919
   142  H    0.014401
   143  H    0.012399
   144  H    0.025122
   145  H    0.011622
   146  H    0.005653
   147  H    0.006242
   148  H    0.003666
   149  H    0.010922
   150  H    0.017977
   151  H    0.030131
   152  H    0.046075
   153  H    0.008515
   154  H    0.046917
   155  H    0.035012
   156  H    0.043950
   157  H    0.049501
   158  H    0.053679
 Sum of Mulliken charges =  -0.00000

 Dipole moment (field-independent basis, Debye):
    X=             -0.9851    Y=             -6.2277    Z=             -4.2122  Tot=              7.5827
 Quadrupole moment (field-independent basis, Debye-Ang):
   XX=           -414.8943   YY=           -511.2100   ZZ=           -490.6680
   XY=            -22.4020   XZ=             52.1095   YZ=            -37.4075

 Normal termination of Gaussian 16 at Sun Sep 12 13:47:45 2021.
