 Gaussian 16, Revision A.03,
 Gaussian 16:  ES64L-G16RevA.03 25-Dec-2016

 -----------------------------------
 #p cam-b3lyp/Def2SVP td=(nstates=5)
 -----------------------------------

 --------------------------------
 TDDFT excited states in gaussian
 --------------------------------
 Symbolic Z-matrix:
 Charge =  0 Multiplicity = 1

                         Standard orientation:
 ---------------------------------------------------------------------
 Center     Atomic      Atomic             Coordinates (Angstroms)
 Number     Number       Type             X           Y           Z
 ---------------------------------------------------------------------
      1         12           0       -5.222370   -0.664016    0.206377
      2          6           0       -5.346131    2.913259    0.204330
      3          6           0       -6.176947   -0.550532   -3.067607
      4          6           0       -5.560836   -3.815459    0.308682
      5          6           0       -5.394060   -0.520838    3.684262
      6          7           0       -5.672194    1.027308   -1.149251
      7          6           0       -5.624033    2.351598   -1.043850
      8          6           0       -5.822398    3.087157   -2.402886
      9          6           0       -6.620279    1.952575   -3.189084
     10          6           0       -6.100013    0.732750   -2.449303
     11          6           0       -8.132241    2.031417   -3.003991
     12          6           0       -4.461896    3.420377   -3.102692
     13          6           0       -4.550337    4.417214   -4.261936
     14          1           0       -3.458297    5.357957   -4.461438
     15          7           0       -5.307841   -1.991472   -1.254241
     16          6           0       -5.704165   -1.767287   -2.530155
     17          6           0       -5.590445   -3.066811   -3.226564
     18          6           0       -5.277327   -4.104528   -2.205194
     19          6           0       -5.396886   -3.339819   -0.990161
     20          6           0       -5.725247   -3.219637   -4.710552
     21          6           0       -4.936372   -5.557613   -2.307300
     22          8           0       -4.928576   -6.327762   -1.286818
     23          6           0       -4.694932   -6.081997   -3.663681
     24          7           0       -5.666737   -1.995063    1.751850
     25          6           0       -5.695759   -3.315167    1.538620
     26          6           0       -5.752005   -4.075777    2.830227
     27          6           0       -5.509398   -3.001739    3.986659
     28          6           0       -5.433006   -1.726176    3.111802
     29          6           0       -7.058101   -4.834196    3.103949
     30          6           0       -4.354006   -3.285778    4.979035
     31          6           0       -3.026262   -3.192766    4.261022
     32          7           0       -5.170339    0.896131    1.714449
     33          6           0       -5.280163    0.730844    3.102719
     34          6           0       -5.299849    2.079612    3.698124
     35          6           0       -5.216260    2.941737    2.606520
     36          6           0       -5.175102    2.180301    1.403684
     37          6           0       -5.444287    2.377694    5.081857
     38          6           0       -5.176974    4.329578    2.175000
     39          8           0       -5.089311    5.414749    2.751378
     40          6           0       -5.382333    4.369465    0.596373
     41          6           0       -4.328914    5.278200    0.023818
     42          8           0       -3.121595    4.965449    0.067776
     43          8           0       -4.919402    6.248796   -0.690192
     44          6           0       -3.928596    7.168500   -1.310353
     45          1           0       -6.697822   -0.646047   -4.022335
     46          1           0       -5.570552   -4.903786    0.397499
     47          1           0       -5.360692   -0.399409    4.768510
     48          1           0       -6.424756    3.993943   -2.345215
     49          1           0       -6.335226    1.908507   -4.240047
     50          1           0       -8.403827    2.777319   -2.257136
     51          1           0       -8.437758    1.037116   -2.677621
     52          1           0       -8.631105    2.199844   -3.958739
     53          1           0       -4.109665    2.540518   -3.641062
     54          1           0       -3.731229    3.776722   -2.375732
     55          1           0       -5.508572    4.937462   -4.268014
     56          1           0       -4.540826    3.856064   -5.196399
     57          1           0       -6.117791   -2.314544   -5.172354
     58          1           0       -6.496379   -3.969810   -4.884637
     59          1           0       -4.792247   -3.536422   -5.176910
     60          1           0       -5.583497   -5.922117   -4.274777
     61          1           0       -4.377471   -7.116068   -3.534198
     62          1           0       -3.895293   -5.504426   -4.128372
     63          1           0       -4.968179   -4.830854    2.873846
     64          1           0       -6.385191   -2.883258    4.625112
     65          1           0       -6.917076   -5.901849    3.274048
     66          1           0       -7.732364   -4.657335    2.266464
     67          1           0       -7.643681   -4.449600    3.938575
     68          1           0       -4.434358   -4.297578    5.374952
     69          1           0       -4.334972   -2.599017    5.825350
     70          1           0       -2.922288   -4.180183    3.812660
     71          1           0       -2.222061   -3.000138    4.971912
     72          1           0       -3.063472   -2.467841    3.447643
     73          1           0       -4.722612    3.164445    5.301352
     74          1           0       -5.268305    1.495776    5.697367
     75          1           0       -6.483092    2.706226    5.110284
     76          1           0       -6.388865    4.747805    0.420663
     77          1           0       -4.178532    8.177700   -0.982815
     78          1           0       -3.945252    6.965429   -2.381283
     79          1           0       -2.902144    7.084042   -0.951742
     80         12           0        5.362455   -0.894181   -0.063768
     81          6           0        5.245874    2.664336    0.386178
     82          6           0        4.416099   -0.366178   -3.297990
     83          6           0        5.018292   -4.033365   -0.371220
     84          6           0        5.174502   -1.199123    3.402847
     85          7           0        4.919123    0.955567   -1.192552
     86          6           0        4.968063    2.253735   -0.934308
     87          6           0        4.783593    3.164308   -2.177844
     88          6           0        3.977535    2.135944   -3.111449
     89          6           0        4.490981    0.821473   -2.527296
     90          6           0        2.472414    2.192674   -2.909626
     91          6           0        6.152188    3.576341   -2.825288
     92          6           0        6.063487    4.708886   -3.850577
     93          1           0        7.164797    5.664631   -3.928977
     94          7           0        5.280877   -2.023685   -1.693534
     95          6           0        4.895567   -1.642334   -2.929410
     96          6           0        4.992856   -2.845490   -3.770320
     97          6           0        5.309021   -4.005985   -2.893943
     98          6           0        5.191906   -3.389474   -1.587693
     99          6           0        4.870774   -2.804983   -5.265939
    100          6           0        5.646717   -5.437239   -3.183198
    101          8           0        5.650894   -6.327662   -2.261259
    102          6           0        5.880979   -5.783603   -4.592676
    103          7           0        4.917391   -2.403576    1.294901
    104          6           0        4.879678   -3.691299    0.909832
    105          6           0        4.814531   -4.615538    2.102282
    106          6           0        5.061313   -3.686186    3.380167
    107          6           0        5.141200   -2.311140    2.681405
    108          6           0        3.504924   -5.384049    2.277522
    109          6           0        6.213704   -4.097032    4.337167
    110          6           0        7.545896   -3.930167    3.642313
    111          7           0        5.418692    0.456363    1.621736
    112          6           0        5.297525    0.120805    2.988045
    113          6           0        5.280112    1.387760    3.747625
    114          6           0        5.369903    2.381155    2.760922
    115          6           0        5.418094    1.776642    1.475721
    116          6           0        5.142662    1.509615    5.159142
    117          6           0        5.424175    3.804043    2.513681
    118          8           0        5.505889    4.806408    3.222440
    119          6           0        5.218815    4.054781    0.957616
    120          6           0        6.276309    5.021314    0.499333
    121          8           0        7.477631    4.700359    0.520028
    122          8           0        5.683744    6.076857   -0.088090
    123          6           0        6.692185    7.058364   -0.569269
    124          1           0        3.904200   -0.328984   -4.260003
    125          1           0        5.005151   -5.124938   -0.413166
    126          1           0        5.216920   -1.212244    4.494040
    127          1           0        4.189712    4.053878   -2.005396
    128          1           0        4.274014    2.232056   -4.152704
    129          1           0        2.200479    2.833694   -2.084221
    130          1           0        2.163049    1.174035   -2.715446
    131          1           0        1.978059    2.485576   -3.840305
    132          1           0        6.500824    2.762489   -3.474013
    133          1           0        6.870575    3.828421   -2.069647
    134          1           0        5.101710    5.233897   -3.802639
    135          1           0        6.080927    4.272402   -4.852169
    136          1           0        4.475118   -1.841869   -5.611290
    137          1           0        4.098944   -3.530976   -5.543532
    138          1           0        5.802070   -3.068406   -5.771852
    139          1           0        4.996480   -5.539697   -5.176318
    140          1           0        6.196027   -6.828882   -4.588264
    141          1           0        6.693889   -5.157095   -4.976449
    142          1           0        5.596723   -5.363257    2.055218
    143          1           0        4.179653   -3.654131    4.037039
    144          1           0        3.643634   -6.481232    2.309572
    145          1           0        2.837104   -5.108566    1.472129
    146          1           0        2.926247   -5.115310    3.159624
    147          1           0        6.130194   -5.154867    4.598264
    148          1           0        6.224800   -3.536047    5.265700
    149          1           0        7.642731   -4.856731    3.068563
    150          1           0        8.348167   -3.831313    4.370750
    151          1           0        7.515110   -3.100740    2.926242
    152          1           0        5.858641    2.255213    5.478456
    153          1           0        5.309542    0.557491    5.658518
    154          1           0        4.099938    1.831251    5.226515
    155          1           0        4.212832    4.453047    0.819924
    156          1           0        6.440768    8.022604   -0.116811
    157          1           0        6.664927    6.997694   -1.673495
    158          1           0        7.715579    6.929232   -0.236955
 ---------------------------------------------------------------------

 SCF Done:  E(RCAM-B3LYP) =  -4069.81146103     A.U. after   19 cycles

 Excitation energies and oscillator strengths:

 Excited State   1:      Singlet-A      1.6570 eV  748.25 nm  f=0.0042  <S**2>=0.000
     309 -> 315       -0.11320
     310 -> 316        0.12562
     311 -> 313       -0.45793
     312 -> 314        0.51233
 This state for optimization and/or second-order correction.
 Total Energy, E(TD-HF/TD-DFT) =  -4069.75056741
 Copying the excited state density for this state as the 1-particle RhoCI density.

 Excited State   2:      Singlet-A      1.6966 eV  730.79 nm  f=0.7170  <S**2>=0.000
     309 -> 315        0.13429
     310 -> 316        0.11895
     311 -> 313        0.51042
     312 -> 314        0.45628

 Excited State   3:      Singlet-A      2.1825 eV  568.09 nm  f=0.0243  <S**2>=0.000
     309 -> 313       -0.26600
     310 -> 314        0.58668
     311 -> 315        0.11079
     312 -> 316       -0.24590

 Excited State   4:      Singlet-A      2.1949 eV  564.88 nm  f=0.1569  <S**2>=0.000
     309 -> 313        0.58281
     310 -> 314        0.26275
     311 -> 315       -0.25582
     312 -> 316       -0.11630

 Excited State   5:      Singlet-A      2.4835 eV  499.22 nm  f=0.0000  <S**2>=0.000
     312 -> 313        0.70710

 The electronic state is 1-A.
 Alpha  occ. eigenvalues --  -46.87879 -46.87484 -19.26374 -19.26142 -19.19110
 Alpha  occ. eigenvalues --  -19.18960 -19.18877 -19.18581 -19.18225 -19.17832
 Alpha  occ. eigenvalues --  -14.42539 -14.42318 -14.41530 -14.41185 -14.39484
 Alpha  occ. eigenvalues --  -14.39181 -14.38664 -14.38416 -10.39169 -10.38884
 Alpha  occ. eigenvalues --  -10.35511 -10.35263 -10.34448 -10.34005 -10.31774
 Alpha  occ. eigenvalues --  -10.31573 -10.31493 -10.31117 -10.31005 -10.30846
 Alpha  occ. eigenvalues --  -10.30650 -10.30580 -10.30287 -10.30219 -10.30178
 Alpha  occ. eigenvalues --  -10.29992 -10.29989 -10.29715 -10.29704 -10.29333
 Alpha  occ. eigenvalues --  -10.29276 -10.29230 -10.28874 -10.28734 -10.28524
 Alpha  occ. eigenvalues --  -10.28519 -10.28445 -10.28230 -10.28222 -10.27937
 Alpha  occ. eigenvalues --  -10.27864 -10.27823 -10.27815 -10.27660 -10.27584
 Alpha  occ. eigenvalues --  -10.27573 -10.27516 -10.27500 -10.27487 -10.27379
 Alpha  occ. eigenvalues --  -10.27374 -10.27303 -10.27298 -10.27234 -10.27224
 Alpha  occ. eigenvalues --  -10.26879 -10.26807 -10.26535 -10.26476 -10.26331
 Alpha  occ. eigenvalues --  -10.26328 -10.26262 -10.26097 -10.26020 -10.25881
 Alpha  occ. eigenvalues --  -10.25769 -10.25754 -10.25656 -10.25493 -10.25240
 Alpha  occ. eigenvalues --  -10.24902 -10.24863 -10.24778 -10.24685 -10.24617
 Alpha  occ. eigenvalues --  -10.24515  -3.16622  -3.16234  -1.91504  -1.91116
 Alpha  occ. eigenvalues --   -1.91090  -1.90932  -1.90705  -1.90542  -1.16723
 Alpha  occ. eigenvalues --   -1.16437  -1.08683  -1.08433  -1.07277  -1.06836
 Alpha  occ. eigenvalues --   -1.06743  -1.06731  -1.04670  -1.04313  -1.03842
 Alpha  occ. eigenvalues --   -1.03487  -1.03311  -1.02865  -1.02490  -1.01934
 Alpha  occ. eigenvalues --   -0.92052  -0.91790  -0.89597  -0.89334  -0.89305
 Alpha  occ. eigenvalues --   -0.88957  -0.88363  -0.88065  -0.87935  -0.87767
 Alpha  occ. eigenvalues --   -0.87608  -0.87513  -0.87354  -0.86984  -0.85093
 Alpha  occ. eigenvalues --   -0.84822  -0.84012  -0.83722  -0.83042  -0.82807
 Alpha  occ. eigenvalues --   -0.82747  -0.82482  -0.81672  -0.81410  -0.80681
 Alpha  occ. eigenvalues --   -0.80267  -0.78875  -0.78480  -0.77310  -0.77036
 Alpha  occ. eigenvalues --   -0.76978  -0.76721  -0.76016  -0.75646  -0.74973
 Alpha  occ. eigenvalues --   -0.74637  -0.72851  -0.72524  -0.71755  -0.71396
 Alpha  occ. eigenvalues --   -0.69986  -0.69615  -0.68976  -0.68653  -0.67721
 Alpha  occ. eigenvalues --   -0.67431  -0.67339  -0.67048  -0.65394  -0.65087
 Alpha  occ. eigenvalues --   -0.64937  -0.64711  -0.64595  -0.64476  -0.64348
 Alpha  occ. eigenvalues --   -0.64044  -0.62382  -0.62092  -0.60519  -0.60191
 Alpha  occ. eigenvalues --   -0.59906  -0.59608  -0.59068  -0.58816  -0.58583
 Alpha  occ. eigenvalues --   -0.58246  -0.57662  -0.57385  -0.57344  -0.57069
 Alpha  occ. eigenvalues --   -0.56387  -0.56074  -0.56035  -0.55704  -0.55599
 Alpha  occ. eigenvalues --   -0.55415  -0.55290  -0.55078  -0.54604  -0.54316
 Alpha  occ. eigenvalues --   -0.54012  -0.53726  -0.53376  -0.53317  -0.53068
 Alpha  occ. eigenvalues --   -0.53003  -0.52972  -0.52848  -0.52729  -0.52529
 Alpha  occ. eigenvalues --   -0.52518  -0.52264  -0.51970  -0.51724  -0.51692
 Alpha  occ. eigenvalues --   -0.51492  -0.51276  -0.51020  -0.50656  -0.50358
 Alpha  occ. eigenvalues --   -0.50114  -0.50002  -0.49816  -0.49715  -0.49607
 Alpha  occ. eigenvalues --   -0.49326  -0.49295  -0.49193  -0.49020  -0.48903
 Alpha  occ. eigenvalues --   -0.48675  -0.48532  -0.48517  -0.48372  -0.48218
 Alpha  occ. eigenvalues --   -0.48182  -0.47784  -0.47431  -0.47378  -0.46967
 Alpha  occ. eigenvalues --   -0.46883  -0.46668  -0.46542  -0.46438  -0.46381
 Alpha  occ. eigenvalues --   -0.46236  -0.46109  -0.45908  -0.45897  -0.45630
 Alpha  occ. eigenvalues --   -0.45276  -0.45044  -0.44653  -0.44600  -0.44331
 Alpha  occ. eigenvalues --   -0.44307  -0.44226  -0.44190  -0.44096  -0.43941
 Alpha  occ. eigenvalues --   -0.43927  -0.43773  -0.43575  -0.43481  -0.43371
 Alpha  occ. eigenvalues --   -0.43207  -0.43107  -0.42782  -0.42747  -0.42737
 Alpha  occ. eigenvalues --   -0.42708  -0.42405  -0.42099  -0.41806  -0.41783
 Alpha  occ. eigenvalues --   -0.41645  -0.41475  -0.41290  -0.41227  -0.40976
 Alpha  occ. eigenvalues --   -0.40908  -0.40804  -0.40652  -0.40581  -0.40536
 Alpha  occ. eigenvalues --   -0.40378  -0.40329  -0.40069  -0.39524  -0.39288
 Alpha  occ. eigenvalues --   -0.38555  -0.38193  -0.37883  -0.37493  -0.37402
 Alpha  occ. eigenvalues --   -0.37370  -0.37103  -0.37023  -0.36799  -0.36582
 Alpha  occ. eigenvalues --   -0.36279  -0.36044  -0.34367  -0.34074  -0.33859
 Alpha  occ. eigenvalues --   -0.33665  -0.33267  -0.33000  -0.31408  -0.31139
 Alpha  occ. eigenvalues --   -0.31117  -0.30794  -0.30086  -0.29733  -0.29524
 Alpha  occ. eigenvalues --   -0.29391  -0.29165  -0.29023  -0.24162  -0.23855
 Alpha  occ. eigenvalues --   -0.21208  -0.20942
 Alpha virt. eigenvalues --   -0.08851  -0.08617  -0.01829  -0.01513  -0.00134
 Alpha virt. eigenvalues --    0.00132   0.02135   0.02403   0.03018   0.03389
 Alpha virt. eigenvalues --    0.04611   0.04907   0.05011   0.05371   0.06028

 Mulliken charges:
               1
     1  Mg   0.838524
     2  C   -0.003227
     3  C   -0.094766
     4  C   -0.045620
     5  C   -0.063820
     6  N   -0.256687
     7  C   -0.052747
     8  C   -0.013876
     9  C   -0.086890
    10  C    0.046031
    11  C    0.104791
    12  C    0.053759
    13  C   -0.071332
    14  H    0.034686
    15  N   -0.433141
    16  C    0.168243
    17  C   -0.177509
    18  C   -0.003890
    19  C    0.148667
    20  C    0.110269
    21  C    0.012563
    22  O   -0.249173
    23  C    0.062504
    24  N   -0.341083
    25  C    0.041144
    26  C   -0.028228
    27  C   -0.024023
    28  C    0.074844
    29  C    0.076096
    30  C    0.035109
    31  C   -0.004506
    32  N   -0.310558
    33  C    0.080481
    34  C   -0.169302
    35  C    0.008679
    36  C    0.083041
    37  C    0.127181
    38  C    0.046464
    39  O   -0.187565
    40  C   -0.005514
    41  C    0.213216
    42  O   -0.257484
    43  O   -0.304707
    44  C    0.157536
    45  H   -0.017746
    46  H   -0.016586
    47  H   -0.041218
    48  H    0.001206
    49  H   -0.004598
    50  H    0.025686
    51  H    0.016693
    52  H    0.016624
    53  H    0.010166
    54  H    0.043645
    55  H    0.018627
    56  H    0.017439
    57  H    0.005505
    58  H    0.027058
    59  H    0.038733
    60  H    0.037205
    61  H    0.036234
    62  H    0.030973
    63  H    0.016666
    64  H    0.009685
    65  H    0.023396
    66  H    0.012606
    67  H    0.004879
    68  H    0.006433
    69  H    0.004890
    70  H    0.008806
    71  H    0.017432
    72  H    0.029262
    73  H    0.048368
    74  H    0.009184
    75  H    0.046178
    76  H    0.035300
    77  H    0.043618
    78  H    0.045727
    79  H    0.053744
    80  Mg   0.838046
    81  C   -0.016333
    82  C   -0.087964
    83  C   -0.045643
    84  C   -0.064978
    85  N   -0.254596
    86  C   -0.048771
    87  C   -0.015210
    88  C   -0.090840
    89  C    0.046100
    90  C    0.114112
    91  C    0.062607
    92  C   -0.077445
    93  H    0.034243
    94  N   -0.423395
    95  C    0.162816
    96  C   -0.175335
    97  C   -0.008149
    98  C    0.151956
    99  C    0.099782
   100  C    0.015243
   101  O   -0.253383
   102  C    0.061379
   103  N   -0.350002
   104  C    0.037465
   105  C   -0.019780
   106  C   -0.034713
   107  C    0.089158
   108  C    0.073725
   109  C    0.034798
   110  C   -0.007590
   111  N   -0.324358
   112  C    0.078977
   113  C   -0.162769
   114  C    0.003217
   115  C    0.096173
   116  C    0.131179
   117  C    0.043422
   118  O   -0.187006
   119  C    0.000362
   120  C    0.210961
   121  O   -0.251689
   122  O   -0.304915
   123  C    0.152263
   124  H   -0.020780
   125  H   -0.015838
   126  H   -0.040769
   127  H    0.000669
   128  H   -0.005557
   129  H    0.027300
   130  H    0.013928
   131  H    0.014407
   132  H    0.013436
   133  H    0.037583
   134  H    0.020897
   135  H    0.018869
   136  H    0.008049
   137  H    0.024811
   138  H    0.039247
   139  H    0.037531
   140  H    0.035994
   141  H    0.033683
   142  H    0.014038
   143  H    0.012080
   144  H    0.024905
   145  H    0.012384
   146  H    0.005214
   147  H    0.005901
   148  H    0.003406
   149  H    0.010798
   150  H    0.017615
   151  H    0.030297
   152  H    0.045843
   153  H    0.007813
   154  H    0.048522
   155  H    0.038505
   156  H    0.044018
   157  H    0.048956
   158  H    0.053125
 Sum of Mulliken charges =  -0.00000

 Dipole moment (field-independent basis, Debye):
    X=             -4.3737    Y=             -2.0989    Z=             -7.3088  Tot=              8.7723
 Quadrupole moment (field-independent basis, Debye-Ang):
   XX=           -518.2245   YY=           -550.9341   ZZ=           -448.5424
   XY=             -3.5691   XZ=              0.3088   YZ=            -48.0273

 Normal termination of Gaussian 16 at Sat Sep 11 01:49:33 2021.
