 Gaussian 16, Revision A.03,
 Gaussian 16:  ES64L-G16RevA.03 25-Dec-2016

 -----------------------------------
 #p cam-b3lyp/Def2SVP td=(nstates=5)
 -----------------------------------

 --------------------------------
 TDDFT excited states in gaussian
 --------------------------------
 Symbolic Z-matrix:
 Charge =  0 Multiplicity = 1

                         Standard orientation:
 ---------------------------------------------------------------------
 Center     Atomic      Atomic             Coordinates (Angstroms)
 Number     Number       Type             X           Y           Z
 ---------------------------------------------------------------------
      1         12           0        3.424930    1.823053    0.416565
      2          6           0        5.199262   -0.957471   -0.973633
      3          6           0        3.674161    3.319358   -2.639907
      4          6           0        2.267553    4.464257    1.736087
      5          6           0        4.307136    0.621676    3.566813
      6          7           0        4.341899    1.163029   -1.487164
      7          6           0        4.937952    0.050477   -1.904441
      8          6           0        5.191495    0.024581   -3.441457
      9          6           0        5.200756    1.594125   -3.721537
     10          6           0        4.324641    2.051745   -2.568744
     11          6           0        6.578770    2.231195   -3.574159
     12          6           0        4.037660   -0.689921   -4.222407
     13          6           0        4.356414   -1.046373   -5.677292
     14          1           0        3.813648   -2.277359   -6.231753
     15          7           0        2.599644    3.414446   -0.413628
     16          6           0        2.801672    3.866781   -1.674526
     17          6           0        1.963986    5.077559   -1.812295
     18          6           0        1.405690    5.399787   -0.469697
     19          6           0        2.098559    4.441997    0.353679
     20          6           0        1.724470    5.767988   -3.119846
     21          6           0        0.414174    6.417441   -0.001288
     22          8           0        0.244135    6.681199    1.238104
     23          6           0       -0.299023    7.170468   -1.048828
     24          7           0        3.484588    2.583388    2.359749
     25          6           0        2.853272    3.719367    2.675938
     26          6           0        2.794999    3.916298    4.161792
     27          6           0        3.308077    2.549823    4.809288
     28          6           0        3.668984    1.792704    3.507448
     29          6           0        3.621870    5.085210    4.714911
     30          6           0        2.368209    1.858116    5.828410
     31          6           0        1.127179    1.357220    5.124106
     32          7           0        4.396687    0.047530    1.200307
     33          6           0        4.680788   -0.234390    2.544361
     34          6           0        5.440848   -1.497619    2.569471
     35          6           0        5.561204   -1.856549    1.228378
     36          6           0        4.939907   -0.865955    0.415356
     37          6           0        5.970011   -2.128894    3.729606
     38          6           0        6.091553   -2.833882    0.291678
     39          8           0        6.632357   -3.935271    0.401071
     40          6           0        5.984664   -2.229124   -1.177563
     41          6           0        5.388765   -3.289255   -2.063189
     42          8           0        4.208727   -3.664136   -1.907175
     43          8           0        6.214270   -3.522060   -3.095122
     44          6           0        5.668425   -4.543275   -4.028571
     45          1           0        3.896313    3.980186   -3.480083
     46          1           0        1.785568    5.304291    2.240539
     47          1           0        4.542930    0.142291    4.518677
     48          1           0        6.145536   -0.412032   -3.737426
     49          1           0        4.732423    1.840251   -4.674327
     50          1           0        7.304352    1.523051   -3.174178
     51          1           0        6.441653    3.065414   -2.885850
     52          1           0        6.904969    2.671123   -4.516940
     53          1           0        3.219972    0.013668   -4.378647
     54          1           0        3.712243   -1.586953   -3.694427
     55          1           0        5.425348   -0.974793   -5.880183
     56          1           0        3.907311   -0.289635   -6.320606
     57          1           0        2.396870    5.402318   -3.894900
     58          1           0        2.007279    6.811829   -2.985224
     59          1           0        0.681560    5.706887   -3.431195
     60          1           0        0.425665    7.697636   -1.669691
     61          1           0       -1.030465    7.788705   -0.529573
     62          1           0       -0.809463    6.465106   -1.705231
     63          1           0        1.774404    4.106637    4.491310
     64          1           0        4.242139    2.681619    5.355941
     65          1           0        3.034935    5.805376    5.285500
     66          1           0        4.125971    5.567270    3.877779
     67          1           0        4.467005    4.792935    5.337599
     68          1           0        2.041818    2.569253    6.586499
     69          1           0        2.834314    1.016896    6.341583
     70          1           0        0.491008    2.241074    5.093790
     71          1           0        0.658843    0.558681    5.700481
     72          1           0        1.341263    1.074322    4.093270
     73          1           0        5.755679   -3.192208    3.622871
     74          1           0        5.524927   -1.724360    4.638372
     75          1           0        7.025761   -1.875948    3.633344
     76          1           0        6.996606   -1.963126   -1.481441
     77          1           0        6.417629   -5.330071   -4.117340
     78          1           0        5.382690   -4.011915   -4.936545
     79          1           0        4.811385   -5.114672   -3.670343
     80         12           0       -3.554959   -1.969141    0.268853
     81          6           0       -4.831033    0.878267   -1.503995
     82          6           0       -3.654372   -0.065145    3.097205
     83          6           0       -2.015068   -4.300229    1.772912
     84          6           0       -2.496001   -3.232053   -2.801874
     85          7           0       -4.181849    0.122161    0.623426
     86          6           0       -4.707272    1.088277   -0.114744
     87          6           0       -5.197741    2.320101    0.692489
     88          6           0       -4.265698    2.144966    1.988438
     89          6           0       -4.043483    0.635150    1.927471
     90          6           0       -2.916627    2.832008    1.856778
     91          6           0       -6.719625    2.224950    1.062384
     92          6           0       -7.338567    3.525874    1.578410
     93          1           0       -8.724699    3.823859    1.228671
     94          7           0       -3.374040   -2.345905    2.208928
     95          6           0       -3.465737   -1.459127    3.222085
     96          6           0       -3.237635   -2.230500    4.453797
     97          6           0       -2.840702   -3.613668    4.074302
     98          6           0       -2.704702   -3.464530    2.639255
     99          6           0       -3.477422   -1.665685    5.823795
    100          6           0       -2.607985   -4.860646    4.872483
    101          8           0       -2.037916   -5.889495    4.363263
    102          6           0       -2.982406   -4.809014    6.293274
    103          7           0       -2.234783   -3.436904   -0.383182
    104          6           0       -1.751644   -4.359422    0.467371
    105          6           0       -1.046542   -5.469527   -0.274853
    106          6           0       -1.367867   -5.223569   -1.822054
    107          6           0       -2.164119   -3.905039   -1.708660
    108          6           0        0.466997   -5.546313   -0.075625
    109          6           0       -2.002394   -6.405175   -2.605561
    110          6           0       -3.400770   -6.670483   -2.096138
    111          7           0       -3.793024   -1.415834   -1.806052
    112          6           0       -3.244628   -2.069226   -2.931406
    113          6           0       -3.587701   -1.256807   -4.116598
    114          6           0       -4.297794   -0.166430   -3.591874
    115          6           0       -4.373297   -0.280101   -2.177350
    116          6           0       -3.204973   -1.539575   -5.458122
    117          6           0       -4.991492    1.060366   -3.911922
    118          8           0       -5.323331    1.624258   -4.953863
    119          6           0       -5.258488    1.856748   -2.562513
    120          6           0       -6.694441    2.304607   -2.563830
    121          8           0       -7.616483    1.471196   -2.520750
    122          8           0       -6.740009    3.638892   -2.396610
    123          6           0       -8.143940    4.129321   -2.380062
    124          1           0       -3.430856    0.510108    3.996088
    125          1           0       -1.559243   -5.181256    2.230602
    126          1           0       -2.286723   -3.608767   -3.805350
    127          1           0       -5.005197    3.277128    0.222589
    128          1           0       -4.797433    2.415737    2.896895
    129          1           0       -2.760513    3.226292    0.863645
    130          1           0       -2.177523    2.074871    2.083759
    131          1           0       -2.807891    3.600062    2.627883
    132          1           0       -6.832550    1.596183    1.954929
    133          1           0       -7.291159    1.857156    0.232504
    134          1           0       -6.697482    4.393782    1.381693
    135          1           0       -7.394063    3.475249    2.668535
    136          1           0       -3.604800   -0.576531    5.793224
    137          1           0       -2.556158   -1.815416    6.397140
    138          1           0       -4.301540   -2.158308    6.344182
    139          1           0       -2.432351   -4.008878    6.782843
    140          1           0       -2.825143   -5.820109    6.673843
    141          1           0       -4.044807   -4.550843    6.365932
    142          1           0       -1.436456   -6.437387    0.015494
    143          1           0       -0.458044   -4.992916   -2.395508
    144          1           0        0.807528   -6.526474    0.308275
    145          1           0        0.763722   -4.751184    0.595385
    146          1           0        1.060958   -5.333587   -0.962850
    147          1           0       -1.431494   -7.321537   -2.436721
    148          1           0       -2.039950   -6.242030   -3.677465
    149          1           0       -3.228114   -7.298200   -1.216798
    150          1           0       -3.988671   -7.195307   -2.846450
    151          1           0       -3.876529   -5.744786   -1.752047
    152          1           0       -4.075873   -1.360774   -6.074623
    153          1           0       -2.846247   -2.561462   -5.562242
    154          1           0       -2.403676   -0.807727   -5.590730
    155          1           0       -4.566790    2.699646   -2.537225
    156          1           0       -8.222679    4.898911   -3.154148
    157          1           0       -8.338815    4.442195   -1.337044
    158          1           0       -8.919801    3.438576   -2.688874
 ---------------------------------------------------------------------

 SCF Done:  E(RCAM-B3LYP) =  -4069.81318762     A.U. after   19 cycles

 Excitation energies and oscillator strengths:

 Excited State   1:      Singlet-A      1.6491 eV  751.83 nm  f=0.1207  <S**2>=0.000
     309 -> 315        0.10731
     310 -> 316        0.12842
     311 -> 313       -0.44249
     312 -> 314        0.52608
 This state for optimization and/or second-order correction.
 Total Energy, E(TD-HF/TD-DFT) =  -4069.75258413
 Copying the excited state density for this state as the 1-particle RhoCI density.

 Excited State   2:      Singlet-A      1.6925 eV  732.54 nm  f=0.5409  <S**2>=0.000
     309 -> 315       -0.13643
     310 -> 316        0.11432
     311 -> 313        0.52364
     312 -> 314        0.44051

 Excited State   3:      Singlet-A      2.1792 eV  568.96 nm  f=0.0536  <S**2>=0.000
     309 -> 313        0.29281
     310 -> 314        0.57522
     311 -> 315        0.12052
     312 -> 316       -0.23707

 Excited State   4:      Singlet-A      2.1957 eV  564.67 nm  f=0.1312  <S**2>=0.000
     309 -> 313        0.56968
     310 -> 314       -0.28890
     311 -> 315        0.25004
     312 -> 316        0.12810

 Excited State   5:      Singlet-A      2.2208 eV  558.28 nm  f=0.0000  <S**2>=0.000
     312 -> 313        0.70691

 The electronic state is 1-A.
 Alpha  occ. eigenvalues --  -46.87953 -46.87372 -19.26542 -19.26257 -19.19347
 Alpha  occ. eigenvalues --  -19.19041 -19.19013 -19.18475 -19.18327 -19.17895
 Alpha  occ. eigenvalues --  -14.42600 -14.42208 -14.41624 -14.41018 -14.39559
 Alpha  occ. eigenvalues --  -14.39076 -14.38739 -14.38334 -10.39371 -10.38968
 Alpha  occ. eigenvalues --  -10.35640 -10.35155 -10.34552 -10.34075 -10.31927
 Alpha  occ. eigenvalues --  -10.31688 -10.31547 -10.31062 -10.31047 -10.30750
 Alpha  occ. eigenvalues --  -10.30715 -10.30680 -10.30388 -10.30126 -10.30122
 Alpha  occ. eigenvalues --  -10.30112 -10.29785 -10.29767 -10.29523 -10.29405
 Alpha  occ. eigenvalues --  -10.29170 -10.29147 -10.28888 -10.28675 -10.28519
 Alpha  occ. eigenvalues --  -10.28462 -10.28459 -10.28237 -10.28151 -10.27937
 Alpha  occ. eigenvalues --  -10.27866 -10.27828 -10.27760 -10.27751 -10.27737
 Alpha  occ. eigenvalues --  -10.27703 -10.27569 -10.27537 -10.27386 -10.27349
 Alpha  occ. eigenvalues --  -10.27304 -10.27233 -10.27215 -10.26957 -10.26902
 Alpha  occ. eigenvalues --  -10.26850 -10.26721 -10.26554 -10.26516 -10.26476
 Alpha  occ. eigenvalues --  -10.26340 -10.26233 -10.26187 -10.25947 -10.25722
 Alpha  occ. eigenvalues --  -10.25715 -10.25662 -10.25616 -10.25599 -10.25117
 Alpha  occ. eigenvalues --  -10.24979 -10.24973 -10.24645 -10.24374 -10.24350
 Alpha  occ. eigenvalues --  -10.24280  -3.16695  -3.16122  -1.91576  -1.91163
 Alpha  occ. eigenvalues --   -1.91005  -1.91005  -1.90592  -1.90431  -1.16896
 Alpha  occ. eigenvalues --   -1.16545  -1.08791  -1.08517  -1.07418  -1.06932
 Alpha  occ. eigenvalues --   -1.06829  -1.06725  -1.04732  -1.04218  -1.03931
 Alpha  occ. eigenvalues --   -1.03394  -1.03369  -1.02722  -1.02573  -1.01809
 Alpha  occ. eigenvalues --   -0.92140  -0.91747  -0.89748  -0.89324  -0.89139
 Alpha  occ. eigenvalues --   -0.88856  -0.88512  -0.88004  -0.87825  -0.87766
 Alpha  occ. eigenvalues --   -0.87579  -0.87410  -0.87363  -0.86901  -0.85134
 Alpha  occ. eigenvalues --   -0.84717  -0.84192  -0.83420  -0.83142  -0.82815
 Alpha  occ. eigenvalues --   -0.82649  -0.82362  -0.81780  -0.81400  -0.80772
 Alpha  occ. eigenvalues --   -0.80209  -0.78932  -0.78407  -0.77400  -0.77110
 Alpha  occ. eigenvalues --   -0.76864  -0.76585  -0.76086  -0.75580  -0.75108
 Alpha  occ. eigenvalues --   -0.74260  -0.72934  -0.72421  -0.71842  -0.71185
 Alpha  occ. eigenvalues --   -0.70184  -0.69292  -0.69026  -0.68555  -0.67810
 Alpha  occ. eigenvalues --   -0.67368  -0.67318  -0.66970  -0.65446  -0.65038
 Alpha  occ. eigenvalues --   -0.65018  -0.64817  -0.64506  -0.64480  -0.64380
 Alpha  occ. eigenvalues --   -0.63794  -0.62516  -0.62063  -0.60604  -0.60050
 Alpha  occ. eigenvalues --   -0.59944  -0.59527  -0.59165  -0.58686  -0.58683
 Alpha  occ. eigenvalues --   -0.58147  -0.57783  -0.57509  -0.57385  -0.56908
 Alpha  occ. eigenvalues --   -0.56463  -0.56185  -0.55979  -0.55694  -0.55681
 Alpha  occ. eigenvalues --   -0.55578  -0.55250  -0.54900  -0.54773  -0.54118
 Alpha  occ. eigenvalues --   -0.54038  -0.53625  -0.53474  -0.53385  -0.53126
 Alpha  occ. eigenvalues --   -0.52964  -0.52903  -0.52887  -0.52728  -0.52662
 Alpha  occ. eigenvalues --   -0.52441  -0.52049  -0.52008  -0.51760  -0.51709
 Alpha  occ. eigenvalues --   -0.51429  -0.51382  -0.50954  -0.50703  -0.50259
 Alpha  occ. eigenvalues --   -0.50243  -0.50070  -0.49704  -0.49675  -0.49385
 Alpha  occ. eigenvalues --   -0.49377  -0.49241  -0.49230  -0.48978  -0.48829
 Alpha  occ. eigenvalues --   -0.48773  -0.48669  -0.48617  -0.48328  -0.48119
 Alpha  occ. eigenvalues --   -0.47893  -0.47868  -0.47458  -0.47303  -0.46981
 Alpha  occ. eigenvalues --   -0.46787  -0.46707  -0.46532  -0.46396  -0.46352
 Alpha  occ. eigenvalues --   -0.46239  -0.45997  -0.45993  -0.45726  -0.45556
 Alpha  occ. eigenvalues --   -0.45418  -0.44756  -0.44679  -0.44653  -0.44347
 Alpha  occ. eigenvalues --   -0.44260  -0.44245  -0.44183  -0.44178  -0.43869
 Alpha  occ. eigenvalues --   -0.43747  -0.43725  -0.43687  -0.43555  -0.43344
 Alpha  occ. eigenvalues --   -0.43206  -0.43050  -0.42939  -0.42919  -0.42768
 Alpha  occ. eigenvalues --   -0.42578  -0.42232  -0.42147  -0.41879  -0.41690
 Alpha  occ. eigenvalues --   -0.41641  -0.41380  -0.41307  -0.41153  -0.41055
 Alpha  occ. eigenvalues --   -0.41005  -0.40784  -0.40634  -0.40473  -0.40400
 Alpha  occ. eigenvalues --   -0.40379  -0.40027  -0.39993  -0.39744  -0.38987
 Alpha  occ. eigenvalues --   -0.38688  -0.37902  -0.37874  -0.37524  -0.37415
 Alpha  occ. eigenvalues --   -0.37391  -0.36970  -0.36962  -0.36862  -0.36573
 Alpha  occ. eigenvalues --   -0.36416  -0.35821  -0.34448  -0.34053  -0.33964
 Alpha  occ. eigenvalues --   -0.33709  -0.33359  -0.32888  -0.31541  -0.31209
 Alpha  occ. eigenvalues --   -0.31023  -0.30676  -0.30189  -0.29805  -0.29601
 Alpha  occ. eigenvalues --   -0.29468  -0.29093  -0.28986  -0.24244  -0.23749
 Alpha  occ. eigenvalues --   -0.21285  -0.20824
 Alpha virt. eigenvalues --   -0.08930  -0.08531  -0.01922  -0.01367  -0.00221
 Alpha virt. eigenvalues --    0.00207   0.02028   0.02328   0.02543   0.03622
 Alpha virt. eigenvalues --    0.04563   0.04838   0.05060   0.05301   0.05991

 Mulliken charges:
               1
     1  Mg   0.838984
     2  C   -0.003258
     3  C   -0.092824
     4  C   -0.047137
     5  C   -0.063654
     6  N   -0.256715
     7  C   -0.052139
     8  C   -0.014248
     9  C   -0.087201
    10  C    0.046319
    11  C    0.104657
    12  C    0.053426
    13  C   -0.071884
    14  H    0.034850
    15  N   -0.433312
    16  C    0.168694
    17  C   -0.176205
    18  C   -0.004592
    19  C    0.148948
    20  C    0.109693
    21  C    0.010797
    22  O   -0.251485
    23  C    0.062397
    24  N   -0.340968
    25  C    0.041615
    26  C   -0.027996
    27  C   -0.023735
    28  C    0.074321
    29  C    0.076133
    30  C    0.035274
    31  C   -0.005123
    32  N   -0.310650
    33  C    0.080628
    34  C   -0.168879
    35  C    0.008436
    36  C    0.083028
    37  C    0.127274
    38  C    0.045917
    39  O   -0.188097
    40  C   -0.005638
    41  C    0.214681
    42  O   -0.259420
    43  O   -0.303897
    44  C    0.157866
    45  H   -0.016792
    46  H   -0.017866
    47  H   -0.041547
    48  H    0.001016
    49  H   -0.003138
    50  H    0.025469
    51  H    0.016524
    52  H    0.017296
    53  H    0.012349
    54  H    0.042615
    55  H    0.018288
    56  H    0.019222
    57  H    0.006741
    58  H    0.026969
    59  H    0.042019
    60  H    0.038531
    61  H    0.034928
    62  H    0.032694
    63  H    0.014293
    64  H    0.010040
    65  H    0.022668
    66  H    0.013326
    67  H    0.005175
    68  H    0.005481
    69  H    0.005701
    70  H    0.005290
    71  H    0.016118
    72  H    0.031960
    73  H    0.048597
    74  H    0.009148
    75  H    0.046074
    76  H    0.035810
    77  H    0.043839
    78  H    0.047056
    79  H    0.051831
    80  Mg   0.836644
    81  C   -0.017662
    82  C   -0.089085
    83  C   -0.044958
    84  C   -0.063538
    85  N   -0.255090
    86  C   -0.050168
    87  C   -0.014787
    88  C   -0.090782
    89  C    0.045945
    90  C    0.115007
    91  C    0.062551
    92  C   -0.077577
    93  H    0.033487
    94  N   -0.423768
    95  C    0.163752
    96  C   -0.175196
    97  C   -0.007454
    98  C    0.152408
    99  C    0.099485
   100  C    0.015158
   101  O   -0.251861
   102  C    0.061475
   103  N   -0.350538
   104  C    0.040090
   105  C   -0.021885
   106  C   -0.033615
   107  C    0.089541
   108  C    0.068877
   109  C    0.034358
   110  C   -0.007257
   111  N   -0.323847
   112  C    0.078065
   113  C   -0.164079
   114  C    0.001083
   115  C    0.096282
   116  C    0.131958
   117  C    0.040810
   118  O   -0.190558
   119  C    0.001645
   120  C    0.211251
   121  O   -0.250892
   122  O   -0.306227
   123  C    0.152184
   124  H   -0.019522
   125  H   -0.013936
   126  H   -0.041238
   127  H   -0.001675
   128  H   -0.004956
   129  H    0.021613
   130  H    0.013622
   131  H    0.021533
   132  H    0.013702
   133  H    0.037036
   134  H    0.021321
   135  H    0.019633
   136  H    0.008571
   137  H    0.024534
   138  H    0.039381
   139  H    0.037061
   140  H    0.036246
   141  H    0.033539
   142  H    0.012385
   143  H    0.016738
   144  H    0.022977
   145  H    0.015450
   146  H    0.021586
   147  H    0.006717
   148  H    0.001590
   149  H    0.010952
   150  H    0.016221
   151  H    0.029168
   152  H    0.045008
   153  H    0.008521
   154  H    0.044272
   155  H    0.031951
   156  H    0.042742
   157  H    0.049958
   158  H    0.053461
 Sum of Mulliken charges =  -0.00000

 Dipole moment (field-independent basis, Debye):
    X=              2.4537    Y=              4.7601    Z=              1.0456  Tot=              5.4565
 Quadrupole moment (field-independent basis, Debye-Ang):
   XX=           -528.2580   YY=           -522.6666   ZZ=           -469.5239
   XY=             11.7511   XZ=            -45.1031   YZ=             14.7353

 Normal termination of Gaussian 16 at Wed Sep  8 21:58:01 2021.
