 Gaussian 16, Revision A.03,
 Gaussian 16:  ES64L-G16RevA.03 25-Dec-2016

 -----------------------------------
 #p cam-b3lyp/Def2SVP td=(nstates=5)
 -----------------------------------

 --------------------------------
 TDDFT excited states in gaussian
 --------------------------------
 Symbolic Z-matrix:
 Charge =  0 Multiplicity = 1

                         Standard orientation:
 ---------------------------------------------------------------------
 Center     Atomic      Atomic             Coordinates (Angstroms)
 Number     Number       Type             X           Y           Z
 ---------------------------------------------------------------------
      1         12           0       -4.079140    0.918339   -0.089960
      2          6           0       -4.620438   -2.163306    1.648624
      3          6           0       -4.812873    2.522761    2.830748
      4          6           0       -4.052542    3.645614   -1.707948
      5          6           0       -4.505321   -0.853531   -3.060567
      6          7           0       -4.629534    0.165387    1.917720
      7          6           0       -4.744117   -1.039191    2.468205
      8          6           0       -4.933247   -0.996547    4.014098
      9          6           0       -5.536801    0.472570    4.153431
     10          6           0       -4.929444    1.103356    2.912806
     11          6           0       -7.056723    0.520588    4.034960
     12          6           0       -3.576207   -1.133704    4.783099
     13          6           0       -3.700769   -1.428361    6.280769
     14          1           0       -2.715260   -2.295838    6.908147
     15          7           0       -3.907895    2.781908    0.542997
     16          6           0       -4.238997    3.254552    1.768667
     17          6           0       -3.926263    4.699675    1.746371
     18          6           0       -3.564833    5.065499    0.348645
     19          6           0       -3.856423    3.835345   -0.342062
     20          6           0       -3.939808    5.563446    2.970081
     21          6           0       -3.049884    6.327257   -0.268546
     22          8           0       -3.022213    6.503132   -1.534593
     23          6           0       -2.655952    7.400560    0.661982
     24          7           0       -4.469898    1.389315   -2.085737
     25          6           0       -4.329423    2.639480   -2.539981
     26          6           0       -4.384972    2.685508   -4.038225
     27          6           0       -4.349936    1.166334   -4.528770
     28          6           0       -4.363393    0.471156   -3.145000
     29          6           0       -5.609009    3.388413   -4.641275
     30          6           0       -3.240280    0.778736   -5.538150
     31          6           0       -1.886319    0.862898   -4.869716
     32          7           0       -4.314024   -1.165100   -0.651346
     33          6           0       -4.499007   -1.674047   -1.944957
     34          6           0       -4.717394   -3.126069   -1.810768
     35          6           0       -4.660402   -3.359866   -0.438203
     36          6           0       -4.447708   -2.127765    0.243693
     37          6           0       -4.990610   -4.029611   -2.875381
     38          6           0       -4.754274   -4.360310    0.612586
     39          8           0       -4.834135   -5.589378    0.635101
     40          6           0       -4.853773   -3.608458    2.012816
     41          6           0       -3.877109   -4.263707    2.950945
     42          8           0       -2.647382   -4.177763    2.756646
     43          8           0       -4.526631   -4.681406    4.048301
     44          6           0       -3.610008   -5.314783    5.033587
     45          1           0       -5.252044    3.134980    3.620848
     46          1           0       -3.940859    4.547207   -2.313832
     47          1           0       -4.561087   -1.484252   -3.949687
     48          1           0       -5.640159   -1.728142    4.405850
     49          1           0       -5.176911    0.977041    5.049930
     50          1           0       -7.464515   -0.447671    3.744959
     51          1           0       -7.265456    1.266730    3.268020
     52          1           0       -7.504988    0.901143    4.953118
     53          1           0       -3.087181   -0.160506    4.825530
     54          1           0       -2.944053   -1.890951    4.318034
     55          1           0       -4.710619   -1.746103    6.541829
     56          1           0       -3.561345   -0.494450    6.825352
     57          1           0       -4.402906    5.054442    3.814474
     58          1           0       -4.603988    6.401750    2.760747
     59          1           0       -2.946272    5.935335    3.220911
     60          1           0       -3.512954    7.676301    1.276850
     61          1           0       -2.229273    8.191186    0.045780
     62          1           0       -1.899367    7.014863    1.345916
     63          1           0       -3.523006    3.212351   -4.445504
     64          1           0       -5.275421    0.875802   -5.026508
     65          1           0       -5.355995    4.212573   -5.308695
     66          1           0       -6.240104    3.729128   -3.820956
     67          1           0       -6.291624    2.733652   -5.182332
     68          1           0       -3.228670    1.476053   -6.375145
     69          1           0       -3.360064   -0.225528   -5.944791
     70          1           0       -1.636849    1.919741   -4.957350
     71          1           0       -1.161037    0.245238   -5.400445
     72          1           0       -1.952087    0.630687   -3.806589
     73          1           0       -4.382836   -4.914712   -2.687828
     74          1           0       -4.755358   -3.585141   -3.842183
     75          1           0       -6.060211   -4.186887   -2.737274
     76          1           0       -5.883185   -3.715184    2.353465
     77          1           0       -3.998324   -6.312627    5.237921
     78          1           0       -3.529042   -4.621995    5.871378
     79          1           0       -2.607854   -5.553273    4.675609
     80         12           0        4.858865   -0.020217   -0.015122
     81          6           0        2.235408   -1.887722   -1.599076
     82          6           0        3.106853    2.804464   -0.780794
     83          6           0        7.354960    1.674696    0.966831
     84          6           0        6.894042   -2.823841   -0.393913
     85          7           0        2.932380    0.289252   -1.056805
     86          6           0        1.994232   -0.498558   -1.560375
     87          6           0        0.692165    0.236804   -1.976825
     88          6           0        1.306785    1.702497   -2.206688
     89          6           0        2.506115    1.615055   -1.265071
     90          6           0        1.823229    1.923884   -3.618639
     91          6           0       -0.384725    0.237995   -0.835636
     92          6           0       -1.787116    0.664364   -1.275253
     93          1           0       -2.938600    0.018856   -0.650847
     94          7           0        4.985725    1.886207    0.521572
     95          6           0        4.177969    2.895856    0.135011
     96          6           0        4.703408    4.104344    0.788938
     97          6           0        5.984337    3.754744    1.461040
     98          6           0        6.172683    2.400338    0.981236
     99          6           0        3.961465    5.409226    0.804171
    100          6           0        6.896258    4.518105    2.373102
    101          8           0        8.076767    4.101387    2.648023
    102          6           0        6.401532    5.813967    2.860445
    103          7           0        6.896797   -0.424826    0.058862
    104          6           0        7.759723    0.464632    0.580534
    105          6           0        9.123930   -0.151365    0.780182
    106          6           0        8.932950   -1.715689    0.508121
    107          6           0        7.445323   -1.720590    0.093009
    108          6           0       10.235913    0.389191   -0.118519
    109          6           0        9.390123   -2.686331    1.631304
    110          6           0        8.499416   -2.529947    2.842736
    111          7           0        4.588478   -2.061528   -0.669317
    112          6           0        5.579595   -3.061876   -0.774633
    113          6           0        4.937349   -4.249697   -1.373816
    114          6           0        3.612226   -3.847150   -1.598542
    115          6           0        3.445819   -2.496765   -1.188327
    116          6           0        5.585331   -5.478860   -1.682700
    117          6           0        2.319056   -4.254108   -2.099338
    118          8           0        1.835467   -5.313315   -2.496769
    119          6           0        1.402130   -2.963313   -2.238909
    120          6           0        0.065712   -3.274034   -1.622491
    121          8           0       -0.032354   -3.490121   -0.401717
    122          8           0       -0.901150   -3.051681   -2.531389
    123          6           0       -2.246077   -3.335382   -1.963488
    124          1           0        2.753528    3.759786   -1.169899
    125          1           0        8.222667    2.178444    1.399047
    126          1           0        7.436361   -3.769851   -0.454108
    127          1           0        0.239499   -0.124367   -2.892487
    128          1           0        0.618192    2.475830   -1.876276
    129          1           0        1.799179    1.016314   -4.203349
    130          1           0        2.840563    2.275787   -3.507959
    131          1           0        1.272950    2.738650   -4.097873
    132          1           0       -0.155946    1.045494   -0.128276
    133          1           0       -0.432192   -0.720071   -0.355553
    134          1           0       -1.893648    0.667873   -2.366847
    135          1           0       -1.938700    1.707639   -0.987810
    136          1           0        3.129938    5.407533    0.088659
    137          1           0        4.647997    6.171909    0.420949
    138          1           0        3.636742    5.697462    1.806242
    139          1           0        6.183858    6.459357    2.012772
    140          1           0        7.154191    6.166674    3.568246
    141          1           0        5.452892    5.651726    3.384251
    142          1           0        9.466455   -0.010946    1.798052
    143          1           0        9.505311   -2.049422   -0.369864
    144          1           0       11.098525    0.789274    0.447090
    145          1           0        9.815489    1.151782   -0.760572
    146          1           0       10.635946   -0.323519   -0.837703
    147          1           0       10.403340   -2.438317    1.956958
    148          1           0        9.395583   -3.727543    1.326607
    149          1           0        8.934204   -1.668969    3.359229
    150          1           0        8.536820   -3.422828    3.463537
    151          1           0        7.479251   -2.257190    2.548571
    152          1           0        4.920878   -6.270229   -1.362199
    153          1           0        6.555012   -5.550755   -1.194524
    154          1           0        5.678147   -5.383094   -2.767825
    155          1           0        1.319222   -2.733747   -3.301918
    156          1           0       -2.724523   -4.064846   -2.624283
    157          1           0       -2.739738   -2.350992   -1.858495
    158          1           0       -2.289469   -3.851802   -1.011716
 ---------------------------------------------------------------------

 SCF Done:  E(RCAM-B3LYP) =  -4069.73517540     A.U. after   19 cycles

 Excitation energies and oscillator strengths:

 Excited State   1:      Singlet-A      1.6053 eV  772.34 nm  f=0.0560  <S**2>=0.000
     309 -> 315        0.14667
     311 -> 313        0.60232
     312 -> 314       -0.33214
 This state for optimization and/or second-order correction.
 Total Energy, E(TD-HF/TD-DFT) =  -4069.67618181
 Copying the excited state density for this state as the 1-particle RhoCI density.

 Excited State   2:      Singlet-A      1.6947 eV  731.61 nm  f=0.6186  <S**2>=0.000
     310 -> 316        0.15584
     311 -> 313        0.32758
     312 -> 314        0.60018

 Excited State   3:      Singlet-A      2.1105 eV  587.47 nm  f=0.0754  <S**2>=0.000
     309 -> 313        0.63966
     311 -> 315       -0.26500

 Excited State   4:      Singlet-A      2.1790 eV  569.00 nm  f=0.1084  <S**2>=0.000
     310 -> 314        0.63011
     312 -> 313        0.13650
     312 -> 316       -0.26515

 Excited State   5:      Singlet-A      2.2151 eV  559.72 nm  f=0.0086  <S**2>=0.000
     310 -> 314       -0.12194
     312 -> 313        0.68654

 The electronic state is 1-A.
 Alpha  occ. eigenvalues --  -46.87327 -46.87220 -19.26155 -19.24758 -19.19242
 Alpha  occ. eigenvalues --  -19.18851 -19.18780 -19.18466 -19.17921 -19.17543
 Alpha  occ. eigenvalues --  -14.42649 -14.42181 -14.41444 -14.41024 -14.39745
 Alpha  occ. eigenvalues --  -14.39418 -14.39025 -14.38244 -10.38944 -10.37871
 Alpha  occ. eigenvalues --  -10.35873 -10.35152 -10.34940 -10.33691 -10.31699
 Alpha  occ. eigenvalues --  -10.31490 -10.31218 -10.30940 -10.30862 -10.30853
 Alpha  occ. eigenvalues --  -10.30692 -10.30679 -10.30270 -10.30063 -10.30019
 Alpha  occ. eigenvalues --  -10.29996 -10.29943 -10.29858 -10.29565 -10.29252
 Alpha  occ. eigenvalues --  -10.29131 -10.29106 -10.29070 -10.28896 -10.28580
 Alpha  occ. eigenvalues --  -10.28531 -10.28507 -10.28465 -10.28291 -10.28024
 Alpha  occ. eigenvalues --  -10.27977 -10.27956 -10.27927 -10.27879 -10.27800
 Alpha  occ. eigenvalues --  -10.27797 -10.27683 -10.27644 -10.27424 -10.27338
 Alpha  occ. eigenvalues --  -10.27270 -10.27234 -10.27145 -10.27122 -10.27096
 Alpha  occ. eigenvalues --  -10.26839 -10.26737 -10.26711 -10.26614 -10.26595
 Alpha  occ. eigenvalues --  -10.26563 -10.26408 -10.26370 -10.26252 -10.25918
 Alpha  occ. eigenvalues --  -10.25801 -10.25697 -10.25696 -10.25614 -10.25524
 Alpha  occ. eigenvalues --  -10.25399 -10.25177 -10.25165 -10.24515 -10.24494
 Alpha  occ. eigenvalues --  -10.24356  -3.16479  -3.16077  -1.91413  -1.90959
 Alpha  occ. eigenvalues --   -1.90870  -1.90834  -1.90548  -1.90384  -1.16505
 Alpha  occ. eigenvalues --   -1.15218  -1.09168  -1.08095  -1.07650  -1.06725
 Alpha  occ. eigenvalues --   -1.06486  -1.05694  -1.05089  -1.04159  -1.04064
 Alpha  occ. eigenvalues --   -1.04022  -1.03335  -1.02951  -1.02707  -1.01769
 Alpha  occ. eigenvalues --   -0.92535  -0.91537  -0.90060  -0.89576  -0.89184
 Alpha  occ. eigenvalues --   -0.89088  -0.88924  -0.88721  -0.88017  -0.87933
 Alpha  occ. eigenvalues --   -0.87632  -0.87478  -0.87396  -0.86845  -0.85239
 Alpha  occ. eigenvalues --   -0.84885  -0.84481  -0.83557  -0.83391  -0.82907
 Alpha  occ. eigenvalues --   -0.82686  -0.82387  -0.81959  -0.80965  -0.80891
 Alpha  occ. eigenvalues --   -0.79883  -0.79306  -0.78326  -0.77789  -0.77385
 Alpha  occ. eigenvalues --   -0.77040  -0.76589  -0.76205  -0.75570  -0.75199
 Alpha  occ. eigenvalues --   -0.74472  -0.73402  -0.72393  -0.72067  -0.71242
 Alpha  occ. eigenvalues --   -0.70626  -0.69516  -0.69288  -0.68986  -0.68169
 Alpha  occ. eigenvalues --   -0.67538  -0.67408  -0.67185  -0.65719  -0.65227
 Alpha  occ. eigenvalues --   -0.65174  -0.64898  -0.64681  -0.64436  -0.64250
 Alpha  occ. eigenvalues --   -0.63879  -0.62488  -0.61608  -0.60795  -0.60315
 Alpha  occ. eigenvalues --   -0.60047  -0.59550  -0.59466  -0.58954  -0.58631
 Alpha  occ. eigenvalues --   -0.58024  -0.58003  -0.57598  -0.57021  -0.56980
 Alpha  occ. eigenvalues --   -0.56793  -0.56167  -0.56140  -0.55878  -0.55844
 Alpha  occ. eigenvalues --   -0.55366  -0.55244  -0.54918  -0.54862  -0.54407
 Alpha  occ. eigenvalues --   -0.54156  -0.53949  -0.53683  -0.53561  -0.53495
 Alpha  occ. eigenvalues --   -0.53344  -0.53170  -0.53013  -0.52904  -0.52733
 Alpha  occ. eigenvalues --   -0.52557  -0.52259  -0.52116  -0.51742  -0.51641
 Alpha  occ. eigenvalues --   -0.51503  -0.51248  -0.50997  -0.50915  -0.50749
 Alpha  occ. eigenvalues --   -0.50421  -0.50257  -0.50016  -0.49818  -0.49673
 Alpha  occ. eigenvalues --   -0.49632  -0.49511  -0.49277  -0.49119  -0.49050
 Alpha  occ. eigenvalues --   -0.48882  -0.48786  -0.48732  -0.48408  -0.48237
 Alpha  occ. eigenvalues --   -0.48077  -0.47978  -0.47778  -0.47684  -0.47408
 Alpha  occ. eigenvalues --   -0.47019  -0.46941  -0.46703  -0.46553  -0.46484
 Alpha  occ. eigenvalues --   -0.46395  -0.46106  -0.45933  -0.45530  -0.45478
 Alpha  occ. eigenvalues --   -0.45372  -0.45017  -0.44936  -0.44842  -0.44691
 Alpha  occ. eigenvalues --   -0.44542  -0.44379  -0.44155  -0.43969  -0.43930
 Alpha  occ. eigenvalues --   -0.43869  -0.43831  -0.43648  -0.43389  -0.43314
 Alpha  occ. eigenvalues --   -0.43217  -0.43083  -0.42899  -0.42771  -0.42606
 Alpha  occ. eigenvalues --   -0.42404  -0.42390  -0.42214  -0.41947  -0.41679
 Alpha  occ. eigenvalues --   -0.41573  -0.41539  -0.41331  -0.41216  -0.41151
 Alpha  occ. eigenvalues --   -0.41070  -0.40993  -0.40626  -0.40420  -0.40331
 Alpha  occ. eigenvalues --   -0.40285  -0.40063  -0.39821  -0.39306  -0.39137
 Alpha  occ. eigenvalues --   -0.39036  -0.38715  -0.37975  -0.37731  -0.37498
 Alpha  occ. eigenvalues --   -0.37014  -0.36989  -0.36834  -0.36560  -0.36233
 Alpha  occ. eigenvalues --   -0.36081  -0.35193  -0.34023  -0.33843  -0.33599
 Alpha  occ. eigenvalues --   -0.33338  -0.32989  -0.32582  -0.31750  -0.31170
 Alpha  occ. eigenvalues --   -0.31022  -0.30613  -0.30504  -0.29855  -0.29683
 Alpha  occ. eigenvalues --   -0.29409  -0.29013  -0.28832  -0.24245  -0.23673
 Alpha  occ. eigenvalues --   -0.21398  -0.20792
 Alpha virt. eigenvalues --   -0.09153  -0.08450  -0.02379  -0.01366  -0.00510
 Alpha virt. eigenvalues --    0.00280   0.01248   0.02617   0.03535   0.04226
 Alpha virt. eigenvalues --    0.05005   0.05086   0.05328   0.06107   0.06465

 Mulliken charges:
               1
     1  Mg   0.483252
     2  C    0.011641
     3  C   -0.094462
     4  C   -0.044314
     5  C   -0.030788
     6  N   -0.245825
     7  C   -0.056068
     8  C   -0.015689
     9  C   -0.086212
    10  C    0.048872
    11  C    0.104948
    12  C    0.053067
    13  C   -0.072463
    14  H    0.038821
    15  N   -0.413899
    16  C    0.170758
    17  C   -0.177271
    18  C   -0.007187
    19  C    0.146669
    20  C    0.110160
    21  C    0.009585
    22  O   -0.250571
    23  C    0.063120
    24  N   -0.298470
    25  C    0.044728
    26  C   -0.026345
    27  C   -0.019472
    28  C    0.053953
    29  C    0.076822
    30  C    0.041134
    31  C    0.021828
    32  N   -0.311092
    33  C    0.062373
    34  C   -0.271501
    35  C   -0.006723
    36  C    0.096557
    37  C    0.155831
    38  C    0.041107
    39  O   -0.177564
    40  C   -0.011591
    41  C    0.210458
    42  O   -0.243877
    43  O   -0.306637
    44  C    0.156677
    45  H   -0.018302
    46  H   -0.018383
    47  H   -0.045322
    48  H    0.001314
    49  H   -0.003498
    50  H    0.025717
    51  H    0.016529
    52  H    0.017232
    53  H    0.011643
    54  H    0.049116
    55  H    0.017419
    56  H    0.017516
    57  H    0.007302
    58  H    0.027415
    59  H    0.039276
    60  H    0.038836
    61  H    0.035190
    62  H    0.030111
    63  H    0.013404
    64  H    0.010058
    65  H    0.023274
    66  H    0.014064
    67  H    0.005584
    68  H    0.007156
    69  H    0.007421
    70  H    0.009370
    71  H    0.019931
    72  H    0.014947
    73  H    0.052807
    74  H    0.012621
    75  H    0.047597
    76  H    0.036019
    77  H    0.042893
    78  H    0.045693
    79  H    0.057946
    80  Mg   0.837534
    81  C   -0.014008
    82  C   -0.088475
    83  C   -0.046358
    84  C   -0.065986
    85  N   -0.254439
    86  C   -0.046956
    87  C   -0.016749
    88  C   -0.093613
    89  C    0.045296
    90  C    0.114753
    91  C    0.116199
    92  C   -0.053465
    93  H    0.193691
    94  N   -0.423261
    95  C    0.161928
    96  C   -0.175201
    97  C   -0.008855
    98  C    0.151936
    99  C    0.099165
   100  C    0.014825
   101  O   -0.254120
   102  C    0.061668
   103  N   -0.350342
   104  C    0.037287
   105  C   -0.019525
   106  C   -0.034854
   107  C    0.089478
   108  C    0.073980
   109  C    0.034938
   110  C   -0.007577
   111  N   -0.324352
   112  C    0.079179
   113  C   -0.163315
   114  C    0.003177
   115  C    0.096041
   116  C    0.131291
   117  C    0.043297
   118  O   -0.185881
   119  C    0.007886
   120  C    0.213411
   121  O   -0.244018
   122  O   -0.313633
   123  C    0.230185
   124  H   -0.018478
   125  H   -0.016651
   126  H   -0.041095
   127  H   -0.005901
   128  H    0.000797
   129  H    0.021085
   130  H    0.013246
   131  H    0.018610
   132  H    0.013825
   133  H    0.048043
   134  H   -0.045521
   135  H    0.096275
   136  H    0.009634
   137  H    0.025597
   138  H    0.036779
   139  H    0.038009
   140  H    0.035311
   141  H    0.032531
   142  H    0.013692
   143  H    0.011916
   144  H    0.024331
   145  H    0.011496
   146  H    0.005076
   147  H    0.005515
   148  H    0.003480
   149  H    0.010360
   150  H    0.017445
   151  H    0.030842
   152  H    0.047027
   153  H    0.007722
   154  H    0.046161
   155  H    0.030716
   156  H    0.007755
   157  H    0.051281
   158  H    0.056689
 Sum of Mulliken charges =  -0.00000

 Dipole moment (field-independent basis, Debye):
    X=             -3.1219    Y=              6.7048    Z=              1.6989  Tot=              7.5886
 Quadrupole moment (field-independent basis, Debye-Ang):
   XX=           -490.8723   YY=           -541.2160   ZZ=           -472.2410
   XY=            -29.1736   XZ=            -18.4081   YZ=              3.8234

 Normal termination of Gaussian 16 at Thu Sep  9 21:58:24 2021.
