 Gaussian 16, Revision A.03,
 Gaussian 16:  ES64L-G16RevA.03 25-Dec-2016

 -----------------------------------
 #p cam-b3lyp/Def2SVP td=(nstates=5)
 -----------------------------------

 --------------------------------
 TDDFT excited states in gaussian
 --------------------------------
 Symbolic Z-matrix:
 Charge =  0 Multiplicity = 1

                         Standard orientation:
 ---------------------------------------------------------------------
 Center     Atomic      Atomic             Coordinates (Angstroms)
 Number     Number       Type             X           Y           Z
 ---------------------------------------------------------------------
      1         12           0       -6.272635    0.732371   -0.125307
      2          6           0       -6.636022   -2.353397    1.651826
      3          6           0       -7.134412    2.326825    2.765734
      4          6           0       -6.401793    3.433699   -1.781437
      5          6           0       -6.557395   -1.102973   -3.074220
      6          7           0       -6.794216   -0.026473    1.887839
      7          6           0       -6.838189   -1.228299    2.454277
      8          6           0       -7.044760   -1.176695    3.997662
      9          6           0       -7.740867    0.253212    4.110794
     10          6           0       -7.162267    0.904139    2.866833
     11          6           0       -9.259565    0.203719    3.978099
     12          6           0       -5.689379   -1.217597    4.780605
     13          6           0       -5.809825   -1.499176    6.281125
     14          1           0       -4.777893   -2.294218    6.929487
     15          7           0       -6.225161    2.611443    0.482710
     16          6           0       -6.597328    3.078860    1.698564
     17          6           0       -6.375912    4.540386    1.658605
     18          6           0       -6.024534    4.909269    0.259122
     19          6           0       -6.231387    3.653926   -0.416677
     20          6           0       -6.455751    5.418106    2.869796
     21          6           0       -5.583953    6.192489   -0.371249
     22          8           0       -5.554998    6.352567   -1.639362
     23          6           0       -5.267448    7.301011    0.547470
     24          7           0       -6.672675    1.150663   -2.130957
     25          6           0       -6.606673    2.400919   -2.601581
     26          6           0       -6.650329    2.423026   -4.100762
     27          6           0       -6.514998    0.902566   -4.569422
     28          6           0       -6.498255    0.226759   -3.176126
     29          6           0       -7.910190    3.039133   -4.724599
     30          6           0       -5.373324    0.572027   -5.563274
     31          6           0       -4.033951    0.750425   -4.884044
     32          7           0       -6.370488   -1.369154   -0.659219
     33          6           0       -6.510410   -1.906250   -1.947094
     34          6           0       -6.638333   -3.367197   -1.794319
     35          6           0       -6.580195   -3.578295   -0.418128
     36          6           0       -6.452115   -2.326101    0.248130
     37          6           0       -6.843730   -4.300521   -2.848430
     38          6           0       -6.621240   -4.568320    0.645837
     39          8           0       -6.623847   -5.799559    0.685035
     40          6           0       -6.781547   -3.805309    2.034341
     41          6           0       -5.774837   -4.384907    2.990328
     42          8           0       -4.551107   -4.224265    2.805812
     43          8           0       -6.407517   -4.827792    4.087648
     44          6           0       -5.462564   -5.388709    5.089940
     45          1           0       -7.618943    2.920806    3.543139
     46          1           0       -6.341114    4.332236   -2.399001
     47          1           0       -6.564664   -1.747958   -3.954784
     48          1           0       -7.708057   -1.946011    4.393407
     49          1           0       -7.422221    0.791479    5.003238
     50          1           0       -9.602783   -0.792164    3.698207
     51          1           0       -9.507297    0.924747    3.198843
     52          1           0       -9.739853    0.567681    4.886742
     53          1           0       -5.262977   -0.215024    4.813617
     54          1           0       -5.006319   -1.939730    4.331964
     55          1           0       -6.800197   -1.876369    6.537635
     56          1           0       -5.734764   -0.551032    6.813655
     57          1           0       -6.894163    4.892425    3.717144
     58          1           0       -7.169265    6.209961    2.642699
     59          1           0       -5.490080    5.855249    3.124191
     60          1           0       -6.146080    7.530501    1.150703
     61          1           0       -4.885331    8.108528   -0.076030
     62          1           0       -4.494836    6.973084    1.243518
     63          1           0       -5.819261    2.997580   -4.507752
     64          1           0       -7.415454    0.547551   -5.071236
     65          1           0       -7.702993    3.868473   -5.401334
     66          1           0       -8.569472    3.350488   -3.914848
     67          1           0       -8.544933    2.335368   -5.262403
     68          1           0       -5.397401    1.257271   -6.409919
     69          1           0       -5.425710   -0.443213   -5.956711
     70          1           0       -3.850608    1.819605   -4.984400
     71          1           0       -3.266089    0.172567   -5.399485
     72          1           0       -4.095394    0.528974   -3.818366
     73          1           0       -6.183351   -5.142927   -2.642952
     74          1           0       -6.627443   -3.855263   -3.819290
     75          1           0       -7.902622   -4.523017   -2.717660
     76          1           0       -7.805494   -3.972079    2.367269
     77          1           0       -5.789326   -6.406181    5.304905
     78          1           0       -5.433547   -4.680894    5.918529
     79          1           0       -4.443934   -5.568390    4.744330
     80         12           0        6.933825    0.184393    0.117172
     81          6           0        4.672436   -1.753179   -1.885584
     82          6           0        5.341325    2.968127   -1.044447
     83          6           0        9.185992    1.932628    1.509602
     84          6           0        9.022189   -2.604153    0.208960
     85          7           0        5.239084    0.444848   -1.280064
     86          6           0        4.419227   -0.366366   -1.931303
     87          6           0        3.215559    0.342983   -2.607731
     88          6           0        3.853104    1.809384   -2.756252
     89          6           0        4.851629    1.759876   -1.601624
     90          6           0        4.627618    2.000710   -4.049645
     91          6           0        1.940997    0.360750   -1.692745
     92          6           0        0.645277    0.759478   -2.402596
     93          1           0       -0.599819    0.116758   -1.991354
     94          7           0        6.943631    2.105213    0.616097
     95          6           0        6.217731    3.095251    0.055590
     96          6           0        6.601050    4.326016    0.764404
     97          6           0        7.732745    4.008536    1.677195
     98          6           0        8.017894    2.644632    1.279042
     99          6           0        5.861276    5.622165    0.602674
    100          6           0        8.449199    4.805420    2.724993
    101          8           0        9.558415    4.409568    3.230730
    102          6           0        7.862227    6.107439    3.073848
    103          7           0        8.922942   -0.194529    0.588526
    104          6           0        9.664846    0.717889    1.240451
    105          6           0       10.970036    0.123048    1.712703
    106          6           0       10.844624   -1.449800    1.451947
    107          6           0        9.463381   -1.482538    0.761666
    108          6           0       12.229299    0.653412    1.027600
    109          6           0       11.085793   -2.386149    2.667584
    110          6           0        9.979601   -2.209307    3.682700
    111          7           0        6.806377   -1.875923   -0.520724
    112          6           0        7.805924   -2.867049   -0.408268
    113          6           0        7.297376   -4.077129   -1.086160
    114          6           0        6.036736   -3.695834   -1.569772
    115          6           0        5.786393   -2.337470   -1.235623
    116          6           0        8.000365   -5.306147   -1.232550
    117          6           0        4.865345   -4.130403   -2.296198
    118          8           0        4.473263   -5.204932   -2.749406
    119          6           0        3.983368   -2.854309   -2.642756
    120          6           0        2.556059   -3.164723   -2.283645
    121          8           0        2.228644   -3.350764   -1.098408
    122          8           0        1.778617   -2.976824   -3.365613
    123          6           0        0.352024   -3.261556   -3.056468
    124          1           0        5.062344    3.909064   -1.519522
    125          1           0        9.952156    2.457254    2.085133
    126          1           0        9.572222   -3.545041    0.278809
    127          1           0        2.947997   -0.046619   -3.582618
    128          1           0        3.109135    2.582841   -2.584067
    129          1           0        4.721332    1.078331   -4.603334
    130          1           0        5.602905    2.367114   -3.757046
    131          1           0        4.173388    2.796568   -4.646823
    132          1           0        2.025545    1.188608   -0.977024
    133          1           0        1.809217   -0.585264   -1.204576
    134          1           0        0.748638    0.733946   -3.494197
    135          1           0        0.434894    1.807905   -2.177747
    136          1           0        5.181314    5.592595   -0.257662
    137          1           0        6.603234    6.382754    0.336465
    138          1           0        5.349715    5.932038    1.516433
    139          1           0        7.805795    6.728460    2.183011
    140          1           0        8.463933    6.486762    3.902066
    141          1           0        6.832254    5.947593    3.411816
    142          1           0       11.111453    0.293322    2.772941
    143          1           0       11.575929   -1.799124    0.708308
    144          1           0       12.965724    1.077761    1.735909
    145          1           0       11.933911    1.394476    0.296782
    146          1           0       12.763672   -0.072702    0.417345
    147          1           0       12.016769   -2.118180    3.173195
    148          1           0       11.156011   -3.434645    2.397944
    149          1           0       10.302398   -1.330466    4.248865
    150          1           0        9.903896   -3.085591    4.323348
    151          1           0        9.032406   -1.955995    3.192510
    152          1           0        7.292216   -6.096760   -1.022909
    153          1           0        8.859740   -5.354325   -0.567022
    154          1           0        8.297581   -5.236990   -2.282384
    155          1           0        4.102986   -2.652873   -3.707972
    156          1           0        0.012998   -4.013118   -3.776123
    157          1           0       -0.159040   -2.280605   -3.074151
    158          1           0        0.131490   -3.754041   -2.116642
 ---------------------------------------------------------------------

 SCF Done:  E(RCAM-B3LYP) =  -4069.81148890     A.U. after   19 cycles

 Excitation energies and oscillator strengths:

 Excited State   1:      Singlet-A      1.6640 eV  745.08 nm  f=0.0074  <S**2>=0.000
     309 -> 315       -0.11242
     310 -> 316        0.12831
     311 -> 313       -0.45132
     312 -> 314        0.51759
 This state for optimization and/or second-order correction.
 Total Energy, E(TD-HF/TD-DFT) =  -4069.75033685
 Copying the excited state density for this state as the 1-particle RhoCI density.

 Excited State   2:      Singlet-A      1.6902 eV  733.56 nm  f=0.7310  <S**2>=0.000
     309 -> 315        0.13390
     310 -> 316        0.11630
     311 -> 313        0.51625
     312 -> 314        0.45027

 Excited State   3:      Singlet-A      2.1845 eV  567.56 nm  f=0.0863  <S**2>=0.000
     309 -> 313        0.15673
     310 -> 314        0.62358
     312 -> 316       -0.26369

 Excited State   4:      Singlet-A      2.1921 eV  565.59 nm  f=0.1129  <S**2>=0.000
     309 -> 313        0.62153
     310 -> 314       -0.15549
     311 -> 315       -0.26936

 Excited State   5:      Singlet-A      2.6302 eV  471.38 nm  f=0.0000  <S**2>=0.000
     312 -> 313        0.70687

 The electronic state is 1-A.
 Alpha  occ. eigenvalues --  -46.87903 -46.87529 -19.26214 -19.26033 -19.18961
 Alpha  occ. eigenvalues --  -19.18955 -19.18848 -19.18619 -19.18212 -19.17878
 Alpha  occ. eigenvalues --  -14.42542 -14.42363 -14.41560 -14.41231 -14.39510
 Alpha  occ. eigenvalues --  -14.39224 -14.38689 -14.38464 -10.39026 -10.38795
 Alpha  occ. eigenvalues --  -10.35596 -10.35299 -10.34428 -10.34051 -10.31572
 Alpha  occ. eigenvalues --  -10.31482 -10.31371 -10.31162 -10.30987 -10.30883
 Alpha  occ. eigenvalues --  -10.30663 -10.30618 -10.30334 -10.30267 -10.30220
 Alpha  occ. eigenvalues --  -10.30035 -10.30030 -10.29767 -10.29737 -10.29368
 Alpha  occ. eigenvalues --  -10.29318 -10.29271 -10.28779 -10.28550 -10.28501
 Alpha  occ. eigenvalues --  -10.28455 -10.28433 -10.28266 -10.28161 -10.27985
 Alpha  occ. eigenvalues --  -10.27888 -10.27869 -10.27820 -10.27694 -10.27653
 Alpha  occ. eigenvalues --  -10.27596 -10.27590 -10.27538 -10.27486 -10.27420
 Alpha  occ. eigenvalues --  -10.27371 -10.27342 -10.27340 -10.27277 -10.27180
 Alpha  occ. eigenvalues --  -10.26852 -10.26694 -10.26576 -10.26483 -10.26382
 Alpha  occ. eigenvalues --  -10.26351 -10.26276 -10.26138 -10.26048 -10.25934
 Alpha  occ. eigenvalues --  -10.25890 -10.25811 -10.25720 -10.25565 -10.25312
 Alpha  occ. eigenvalues --  -10.24948 -10.24922 -10.24898 -10.24734 -10.24641
 Alpha  occ. eigenvalues --  -10.24563  -3.16646  -3.16279  -1.91528  -1.91161
 Alpha  occ. eigenvalues --   -1.91114  -1.90956  -1.90750  -1.90587  -1.16565
 Alpha  occ. eigenvalues --   -1.16330  -1.08660  -1.08473  -1.07366  -1.06873
 Alpha  occ. eigenvalues --   -1.06639  -1.06580  -1.04669  -1.04357  -1.03867
 Alpha  occ. eigenvalues --   -1.03532  -1.03340  -1.02911  -1.02515  -1.01980
 Alpha  occ. eigenvalues --   -0.92044  -0.91832  -0.89654  -0.89373  -0.89232
 Alpha  occ. eigenvalues --   -0.88992  -0.88420  -0.88107  -0.87964  -0.87758
 Alpha  occ. eigenvalues --   -0.87658  -0.87545  -0.87392  -0.87012  -0.85039
 Alpha  occ. eigenvalues --   -0.84843  -0.84076  -0.83757  -0.83107  -0.82834
 Alpha  occ. eigenvalues --   -0.82715  -0.82500  -0.81612  -0.81384  -0.80661
 Alpha  occ. eigenvalues --   -0.80265  -0.78903  -0.78515  -0.77318  -0.77006
 Alpha  occ. eigenvalues --   -0.76982  -0.76724  -0.75967  -0.75661  -0.75006
 Alpha  occ. eigenvalues --   -0.74671  -0.72874  -0.72568  -0.71756  -0.71439
 Alpha  occ. eigenvalues --   -0.70071  -0.69651  -0.68941  -0.68674  -0.67733
 Alpha  occ. eigenvalues --   -0.67458  -0.67273  -0.67042  -0.65340  -0.65103
 Alpha  occ. eigenvalues --   -0.64932  -0.64689  -0.64624  -0.64472  -0.64391
 Alpha  occ. eigenvalues --   -0.64076  -0.62310  -0.62048  -0.60563  -0.60226
 Alpha  occ. eigenvalues --   -0.59867  -0.59646  -0.59078  -0.58850  -0.58588
 Alpha  occ. eigenvalues --   -0.58273  -0.57622  -0.57394  -0.57351  -0.57097
 Alpha  occ. eigenvalues --   -0.56401  -0.56066  -0.55971  -0.55661  -0.55617
 Alpha  occ. eigenvalues --   -0.55432  -0.55296  -0.55091  -0.54579  -0.54303
 Alpha  occ. eigenvalues --   -0.53938  -0.53748  -0.53404  -0.53293  -0.53095
 Alpha  occ. eigenvalues --   -0.52983  -0.52973  -0.52852  -0.52714  -0.52595
 Alpha  occ. eigenvalues --   -0.52550  -0.52289  -0.52003  -0.51742  -0.51670
 Alpha  occ. eigenvalues --   -0.51497  -0.51272  -0.51040  -0.50705  -0.50380
 Alpha  occ. eigenvalues --   -0.50173  -0.50024  -0.49853  -0.49758  -0.49587
 Alpha  occ. eigenvalues --   -0.49354  -0.49287  -0.49144  -0.49043  -0.48948
 Alpha  occ. eigenvalues --   -0.48648  -0.48580  -0.48522  -0.48379  -0.48258
 Alpha  occ. eigenvalues --   -0.48201  -0.47779  -0.47448  -0.47387  -0.46983
 Alpha  occ. eigenvalues --   -0.46897  -0.46600  -0.46570  -0.46460  -0.46394
 Alpha  occ. eigenvalues --   -0.46240  -0.46135  -0.45926  -0.45864  -0.45637
 Alpha  occ. eigenvalues --   -0.45323  -0.45087  -0.44635  -0.44619  -0.44350
 Alpha  occ. eigenvalues --   -0.44332  -0.44266  -0.44145  -0.44081  -0.43984
 Alpha  occ. eigenvalues --   -0.43945  -0.43788  -0.43532  -0.43471  -0.43346
 Alpha  occ. eigenvalues --   -0.43221  -0.43109  -0.42833  -0.42769  -0.42642
 Alpha  occ. eigenvalues --   -0.42640  -0.42441  -0.42119  -0.41827  -0.41780
 Alpha  occ. eigenvalues --   -0.41590  -0.41515  -0.41305  -0.41222  -0.40963
 Alpha  occ. eigenvalues --   -0.40943  -0.40850  -0.40680  -0.40603  -0.40557
 Alpha  occ. eigenvalues --   -0.40366  -0.40256  -0.40055  -0.39618  -0.39321
 Alpha  occ. eigenvalues --   -0.38590  -0.38231  -0.37787  -0.37477  -0.37438
 Alpha  occ. eigenvalues --   -0.37314  -0.37139  -0.37039  -0.36729  -0.36523
 Alpha  occ. eigenvalues --   -0.36229  -0.36036  -0.34383  -0.34115  -0.33740
 Alpha  occ. eigenvalues --   -0.33581  -0.33272  -0.33031  -0.31489  -0.31176
 Alpha  occ. eigenvalues --   -0.31128  -0.30834  -0.30067  -0.29777  -0.29559
 Alpha  occ. eigenvalues --   -0.29417  -0.29204  -0.29074  -0.24177  -0.23900
 Alpha  occ. eigenvalues --   -0.21231  -0.20987
 Alpha virt. eigenvalues --   -0.08876  -0.08661  -0.01860  -0.01558  -0.00164
 Alpha virt. eigenvalues --    0.00093   0.02117   0.02346   0.02701   0.03370
 Alpha virt. eigenvalues --    0.04644   0.04916   0.05136   0.05441   0.06132

 Mulliken charges:
               1
     1  Mg   0.837572
     2  C   -0.002207
     3  C   -0.093696
     4  C   -0.046515
     5  C   -0.064873
     6  N   -0.256765
     7  C   -0.052118
     8  C   -0.014032
     9  C   -0.087027
    10  C    0.046353
    11  C    0.104765
    12  C    0.053342
    13  C   -0.072207
    14  H    0.037567
    15  N   -0.433145
    16  C    0.168229
    17  C   -0.177082
    18  C   -0.004425
    19  C    0.148567
    20  C    0.110107
    21  C    0.011543
    22  O   -0.250294
    23  C    0.062732
    24  N   -0.341112
    25  C    0.041248
    26  C   -0.028128
    27  C   -0.023881
    28  C    0.074712
    29  C    0.076125
    30  C    0.035266
    31  C   -0.004696
    32  N   -0.310494
    33  C    0.079861
    34  C   -0.170679
    35  C    0.008833
    36  C    0.082824
    37  C    0.127218
    38  C    0.046638
    39  O   -0.187092
    40  C   -0.005476
    41  C    0.212895
    42  O   -0.255619
    43  O   -0.305183
    44  C    0.157153
    45  H   -0.017332
    46  H   -0.017315
    47  H   -0.041718
    48  H    0.001330
    49  H   -0.003776
    50  H    0.025666
    51  H    0.016228
    52  H    0.016893
    53  H    0.011059
    54  H    0.045156
    55  H    0.017767
    56  H    0.017752
    57  H    0.006277
    58  H    0.026888
    59  H    0.039179
    60  H    0.037867
    61  H    0.035004
    62  H    0.030892
    63  H    0.015671
    64  H    0.009919
    65  H    0.023010
    66  H    0.012900
    67  H    0.005039
    68  H    0.006519
    69  H    0.004962
    70  H    0.008262
    71  H    0.017197
    72  H    0.028242
    73  H    0.047860
    74  H    0.008616
    75  H    0.046606
    76  H    0.035373
    77  H    0.043185
    78  H    0.046237
    79  H    0.055309
    80  Mg   0.837856
    81  C   -0.016190
    82  C   -0.087818
    83  C   -0.045781
    84  C   -0.065220
    85  N   -0.254498
    86  C   -0.049699
    87  C   -0.014963
    88  C   -0.090500
    89  C    0.045676
    90  C    0.114391
    91  C    0.062508
    92  C   -0.079039
    93  H    0.036915
    94  N   -0.423396
    95  C    0.162695
    96  C   -0.174890
    97  C   -0.008165
    98  C    0.152043
    99  C    0.099433
   100  C    0.015286
   101  O   -0.253569
   102  C    0.061372
   103  N   -0.350131
   104  C    0.037403
   105  C   -0.019691
   106  C   -0.034838
   107  C    0.089091
   108  C    0.073773
   109  C    0.034783
   110  C   -0.007629
   111  N   -0.324233
   112  C    0.078745
   113  C   -0.163085
   114  C    0.002490
   115  C    0.096408
   116  C    0.131406
   117  C    0.042819
   118  O   -0.187016
   119  C    0.000836
   120  C    0.211279
   121  O   -0.249071
   122  O   -0.306795
   123  C    0.150675
   124  H   -0.019767
   125  H   -0.015988
   126  H   -0.040625
   127  H   -0.000794
   128  H   -0.004026
   129  H    0.022232
   130  H    0.014117
   131  H    0.016182
   132  H    0.013492
   133  H    0.039253
   134  H    0.020282
   135  H    0.019901
   136  H    0.008876
   137  H    0.025810
   138  H    0.039046
   139  H    0.038150
   140  H    0.035908
   141  H    0.033482
   142  H    0.014128
   143  H    0.012239
   144  H    0.024811
   145  H    0.011570
   146  H    0.005464
   147  H    0.005958
   148  H    0.003638
   149  H    0.010676
   150  H    0.017836
   151  H    0.030411
   152  H    0.046509
   153  H    0.008290
   154  H    0.046738
   155  H    0.034492
   156  H    0.043113
   157  H    0.048993
   158  H    0.058408
 Sum of Mulliken charges =  -0.00000

 Dipole moment (field-independent basis, Debye):
    X=             -2.5515    Y=              7.1566    Z=              1.2867  Tot=              7.7060
 Quadrupole moment (field-independent basis, Debye-Ang):
   XX=           -480.1565   YY=           -542.6333   ZZ=           -473.0774
   XY=            -23.5186   XZ=            -24.0844   YZ=             -0.8591

 Normal termination of Gaussian 16 at Sat Sep 11 09:53:21 2021.
