 Gaussian 16, Revision A.03,
 Gaussian 16:  ES64L-G16RevA.03 25-Dec-2016

 -----------------------------------
 #p cam-b3lyp/Def2SVP td=(nstates=5)
 -----------------------------------

 --------------------------------
 TDDFT excited states in gaussian
 --------------------------------
 Symbolic Z-matrix:
 Charge =  0 Multiplicity = 1

                         Standard orientation:
 ---------------------------------------------------------------------
 Center     Atomic      Atomic             Coordinates (Angstroms)
 Number     Number       Type             X           Y           Z
 ---------------------------------------------------------------------
      1         12           0        7.631173   -0.995778    0.342528
      2          6           0        8.021563    2.196495   -1.228842
      3          6           0        8.454335    0.519247    3.287043
      4          6           0        7.737296   -3.874498    1.668548
      5          6           0        7.957814   -2.426773   -2.818361
      6          7           0        8.149190    1.098591    0.838433
      7          6           0        8.204500    2.237567    0.155171
      8          6           0        8.400457    3.491358    1.059042
      9          6           0        9.077927    2.789232    2.320014
     10          6           0        8.499283    1.394277    2.161284
     11          6           0       10.597948    2.704063    2.226297
     12          6           0        7.040672    4.166995    1.441442
     13          6           0        7.154944    5.570551    2.043378
     14          1           0        6.128853    6.553136    1.728721
     15          7           0        7.556341   -1.535144    2.241563
     16          6           0        7.914802   -0.785049    3.311212
     17          6           0        7.675432   -1.630553    4.500543
     18          6           0        7.328510   -2.998309    4.024115
     19          6           0        7.555360   -2.862338    2.607983
     20          6           0        7.736505   -1.112009    5.904513
     21          6           0        6.876027   -4.235054    4.733940
     22          8           0        6.853254   -5.378028    4.161519
     23          6           0        6.539801   -4.087309    6.161583
     24          7           0        8.038886   -2.896018   -0.419373
     25          6           0        7.960328   -3.982250    0.357101
     26          6           0        8.013369   -5.240679   -0.457442
     27          6           0        7.900042   -4.784591   -1.983513
     28          6           0        7.882748   -3.250741   -1.770739
     29          6           0        9.269442   -6.103749   -0.274676
     30          6           0        6.769011   -5.425059   -2.826715
     31          6           0        5.423166   -4.957586   -2.319500
     32          7           0        7.758676   -0.271208   -1.699478
     33          6           0        7.913588   -1.043231   -2.859934
     34          6           0        8.058739   -0.104133   -3.987362
     35          6           0        7.994368    1.157177   -3.398468
     36          6           0        7.846384    1.014903   -1.989159
     37          6           0        8.282556   -0.461651   -5.346230
     38          6           0        8.040900    2.591920   -3.629129
     39          8           0        8.058615    3.309091   -4.630551
     40          6           0        8.182720    3.321494   -2.220784
     41          6           0        7.177177    4.439936   -2.185005
     42          8           0        5.952754    4.199182   -2.171164
     43          8           0        7.808245    5.597246   -1.934152
     44          6           0        6.863921    6.743691   -1.856240
     45          1           0        8.926395    0.834368    4.219673
     46          1           0        7.669395   -4.887307    2.071095
     47          1           0        7.978806   -2.800055   -3.843872
     48          1           0        9.070734    4.246998    0.648968
     49          1           0        8.746844    3.232216    3.259094
     50          1           0       10.955361    3.024617    1.247817
     51          1           0       10.841684    1.655073    2.395725
     52          1           0       11.067790    3.256167    3.040672
     53          1           0        6.601591    3.637654    2.287059
     54          1           0        6.369580    4.196700    0.582326
     55          1           0        8.148270    5.991918    1.886339
     56          1           0        7.064629    5.486102    3.126389
     57          1           0        8.175968   -0.116123    5.944865
     58          1           0        8.441533   -1.742178    6.446297
     59          1           0        6.763835   -1.142101    6.395776
     60          1           0        7.411594   -3.714910    6.699956
     61          1           0        6.151668   -5.053935    6.480700
     62          1           0        5.766869   -3.325223    6.265265
     63          1           0        7.177839   -5.897108   -0.217823
     64          1           0        8.808073   -5.005707   -2.544994
     65          1           0        9.056282   -7.127032    0.035420
     66          1           0        9.919554   -5.604872    0.443493
     67          1           0        9.916369   -6.160446   -1.149711
     68          1           0        6.789996   -6.509810   -2.727614
     69          1           0        6.836594   -5.187658   -3.888470
     70          1           0        5.227149   -5.635196   -1.489287
     71          1           0        4.665911   -5.063490   -3.097035
     72          1           0        5.480494   -3.948795   -1.910182
     73          1           0        7.631427    0.178574   -5.941303
     74          1           0        8.066995   -1.515828   -5.518990
     75          1           0        9.343276   -0.230918   -5.443658
     76          1           0        9.206501    3.689324   -2.159991
     77          1           0        7.201959    7.487584   -2.577758
     78          1           0        6.820735    7.038871   -0.807713
     79          1           0        5.849861    6.557945   -2.211937
     80         12           0       -8.224952   -0.357009   -0.272863
     81          6           0       -5.709163    2.177088    0.085246
     82          6           0      -10.183236    1.503533    1.809951
     83          6           0      -10.278253   -2.775026   -0.205448
     84          6           0       -5.706812   -2.507478   -1.359216
     85          7           0       -7.879881    1.573298    0.750422
     86          6           0       -6.909791    2.475015    0.762867
     87          6           0       -7.275294    3.803126    1.478484
     88          6           0       -8.436292    3.247275    2.438686
     89          6           0       -8.892047    2.051878    1.604415
     90          6           0       -7.919418    2.730594    3.771065
     91          6           0       -7.821941    4.886986    0.484298
     92          6           0       -7.906963    6.302562    1.059350
     93          1           0       -7.630872    7.431005    0.174552
     94          7           0      -10.139060   -0.402248    0.249335
     95          6           0      -10.773966    0.443367    1.087858
     96          6           0      -12.165882   -0.027801    1.156607
     97          6           0      -12.261544   -1.317287    0.419851
     98          6           0      -10.861721   -1.564041    0.137537
     99          6           0      -13.262937    0.766861    1.803441
    100          6           0      -13.419845   -2.190994    0.044151
    101          8           0      -13.249798   -3.385605   -0.388065
    102          6           0      -14.761588   -1.640449    0.285261
    103          7           0       -7.994934   -2.409200   -0.513610
    104          6           0       -9.058526   -3.231487   -0.490439
    105          6           0       -8.686119   -4.618301   -0.957836
    106          6           0       -7.198737   -4.493213   -1.531967
    107          6           0       -6.923651   -3.009900   -1.201015
    108          6           0       -8.729671   -5.713448    0.107602
    109          6           0       -6.962723   -4.981876   -2.987360
    110          6           0       -7.685621   -4.077209   -3.959167
    111          7           0       -6.129290   -0.174670   -0.765839
    112          6           0       -5.256378   -1.206488   -1.175051
    113          6           0       -3.905822   -0.617397   -1.281858
    114          6           0       -4.083976    0.721472   -0.902146
    115          6           0       -5.445402    0.945673   -0.561907
    116          6           0       -2.718937   -1.317116   -1.639368
    117          6           0       -3.427888    1.993483   -0.701572
    118          8           0       -2.297421    2.430697   -0.912842
    119          6           0       -4.426490    2.961351    0.068113
    120          6           0       -4.425942    4.288171   -0.640436
    121          8           0       -4.865122    4.385736   -1.799837
    122          8           0       -4.111548    5.257036    0.238669
    123          6           0       -4.108870    6.593135   -0.414517
    124          1           0      -10.787793    1.892865    2.629590
    125          1           0      -10.965581   -3.618455   -0.303874
    126          1           0       -4.886350   -3.088348   -1.785947
    127          1           0       -6.477379    4.234358    2.071060
    128          1           0       -9.242207    3.969114    2.542699
    129          1           0       -6.840222    2.713565    3.805312
    130          1           0       -8.317024    1.729262    3.872519
    131          1           0       -8.349619    3.310363    4.592720
    132          1           0       -8.886407    4.696230    0.296507
    133          1           0       -7.246382    4.898612   -0.420812
    134          1           0       -7.344264    6.401631    1.995565
    135          1           0       -8.942709    6.498567    1.347152
    136          1           0      -12.861329    1.592693    2.403544
    137          1           0      -13.745573    0.109414    2.534657
    138          1           0      -14.012877    1.109962    1.087521
    139          1           0      -14.869962   -1.402448    1.340752
    140          1           0      -15.456877   -2.373196   -0.128902
    141          1           0      -14.855537   -0.695645   -0.261663
    142          1           0       -9.343279   -4.947801   -1.753240
    143          1           0       -6.483197   -5.084730   -0.942101
    144          1           0       -9.396634   -6.555096   -0.158599
    145          1           0       -9.036419   -5.266672    1.043987
    146          1           0       -7.764549   -6.147171    0.363773
    147          1           0       -7.381766   -5.981862   -3.123739
    148          1           0       -5.914232   -5.031931   -3.261509
    149          1           0       -8.705639   -4.472940   -3.952675
    150          1           0       -7.241574   -4.146762   -4.950136
    151          1           0       -7.728615   -3.048812   -3.582062
    152          1           0       -2.180296   -0.683328   -2.331235
    153          1           0       -2.945866   -2.285546   -2.080295
    154          1           0       -2.246277   -1.413406   -0.658254
    155          1           0       -4.073044    3.046251    1.096436
    156          1           0       -3.125584    7.036855   -0.230297
    157          1           0       -4.987131    7.127279   -0.005736
    158          1           0       -4.154471    6.621955   -1.496896
 ---------------------------------------------------------------------

 SCF Done:  E(RCAM-B3LYP) =  -4069.81121937     A.U. after   19 cycles

 Excitation energies and oscillator strengths:

 Excited State   1:      Singlet-A      1.6735 eV  740.87 nm  f=0.3000  <S**2>=0.000
     309 -> 315        0.14859
     311 -> 313        0.58895
     312 -> 314       -0.35199
 This state for optimization and/or second-order correction.
 Total Energy, E(TD-HF/TD-DFT) =  -4069.74971930
 Copying the excited state density for this state as the 1-particle RhoCI density.

 Excited State   2:      Singlet-A      1.6820 eV  737.13 nm  f=0.4826  <S**2>=0.000
     310 -> 316        0.15080
     311 -> 313        0.35183
     312 -> 314        0.58845

 Excited State   3:      Singlet-A      2.1858 eV  567.23 nm  f=0.0366  <S**2>=0.000
     309 -> 313        0.60475
     310 -> 314       -0.21781
     311 -> 315       -0.25681

 Excited State   4:      Singlet-A      2.1920 eV  565.62 nm  f=0.1549  <S**2>=0.000
     309 -> 313        0.21662
     310 -> 314        0.60283
     312 -> 316       -0.26176

 Excited State   5:      Singlet-A      2.7422 eV  452.13 nm  f=0.0000  <S**2>=0.000
     312 -> 313        0.70678

 The electronic state is 1-A.
 Alpha  occ. eigenvalues --  -46.87586 -46.87574 -19.26231 -19.26003 -19.19035
 Alpha  occ. eigenvalues --  -19.18715 -19.18647 -19.18637 -19.17944 -19.17908
 Alpha  occ. eigenvalues --  -14.42415 -14.42242 -14.41274 -14.41251 -14.39265
 Alpha  occ. eigenvalues --  -14.39198 -14.38507 -14.38373 -10.38969 -10.38785
 Alpha  occ. eigenvalues --  -10.35316 -10.35283 -10.34161 -10.34089 -10.31641
 Alpha  occ. eigenvalues --  -10.31401 -10.31219 -10.31192 -10.30945 -10.30700
 Alpha  occ. eigenvalues --  -10.30359 -10.30304 -10.30304 -10.30264 -10.30065
 Alpha  occ. eigenvalues --  -10.30024 -10.29804 -10.29724 -10.29429 -10.29353
 Alpha  occ. eigenvalues --  -10.29307 -10.29060 -10.28649 -10.28593 -10.28526
 Alpha  occ. eigenvalues --  -10.28314 -10.28297 -10.28155 -10.28073 -10.27910
 Alpha  occ. eigenvalues --  -10.27901 -10.27589 -10.27587 -10.27526 -10.27443
 Alpha  occ. eigenvalues --  -10.27396 -10.27396 -10.27387 -10.27376 -10.27340
 Alpha  occ. eigenvalues --  -10.27309 -10.27301 -10.27289 -10.27191 -10.26939
 Alpha  occ. eigenvalues --  -10.26921 -10.26621 -10.26445 -10.26352 -10.26266
 Alpha  occ. eigenvalues --  -10.26064 -10.26050 -10.26036 -10.25974 -10.25848
 Alpha  occ. eigenvalues --  -10.25825 -10.25706 -10.25643 -10.25332 -10.25293
 Alpha  occ. eigenvalues --  -10.24770 -10.24654 -10.24623 -10.24603 -10.24592
 Alpha  occ. eigenvalues --  -10.24536  -3.16328  -3.16324  -1.91210  -1.91207
 Alpha  occ. eigenvalues --   -1.90797  -1.90795  -1.90639  -1.90632  -1.16523
 Alpha  occ. eigenvalues --   -1.16349  -1.08512  -1.08396  -1.07051  -1.06891
 Alpha  occ. eigenvalues --   -1.06819  -1.06343  -1.04411  -1.04372  -1.03577
 Alpha  occ. eigenvalues --   -1.03561  -1.03030  -1.02951  -1.02207  -1.02022
 Alpha  occ. eigenvalues --   -0.91890  -0.91756  -0.89410  -0.89337  -0.89080
 Alpha  occ. eigenvalues --   -0.88973  -0.88140  -0.88109  -0.87683  -0.87665
 Alpha  occ. eigenvalues --   -0.87600  -0.87468  -0.87089  -0.87039  -0.84923
 Alpha  occ. eigenvalues --   -0.84770  -0.83794  -0.83760  -0.82856  -0.82799
 Alpha  occ. eigenvalues --   -0.82574  -0.82442  -0.81494  -0.81354  -0.80383
 Alpha  occ. eigenvalues --   -0.80350  -0.78605  -0.78546  -0.77063  -0.77024
 Alpha  occ. eigenvalues --   -0.76815  -0.76721  -0.75752  -0.75709  -0.74721
 Alpha  occ. eigenvalues --   -0.74716  -0.72606  -0.72575  -0.71498  -0.71474
 Alpha  occ. eigenvalues --   -0.69740  -0.69680  -0.68747  -0.68667  -0.67511
 Alpha  occ. eigenvalues --   -0.67439  -0.67124  -0.67004  -0.65189  -0.65068
 Alpha  occ. eigenvalues --   -0.64681  -0.64643  -0.64565  -0.64411  -0.64120
 Alpha  occ. eigenvalues --   -0.64083  -0.62175  -0.62058  -0.60258  -0.60257
 Alpha  occ. eigenvalues --   -0.59717  -0.59593  -0.58903  -0.58784  -0.58332
 Alpha  occ. eigenvalues --   -0.58298  -0.57441  -0.57349  -0.57147  -0.57108
 Alpha  occ. eigenvalues --   -0.56110  -0.56109  -0.55788  -0.55733  -0.55362
 Alpha  occ. eigenvalues --   -0.55328  -0.55156  -0.55141  -0.54393  -0.54305
 Alpha  occ. eigenvalues --   -0.53838  -0.53677  -0.53139  -0.53107  -0.53054
 Alpha  occ. eigenvalues --   -0.53016  -0.52810  -0.52692  -0.52595  -0.52567
 Alpha  occ. eigenvalues --   -0.52319  -0.52266  -0.51760  -0.51707  -0.51579
 Alpha  occ. eigenvalues --   -0.51403  -0.51098  -0.50987  -0.50405  -0.50403
 Alpha  occ. eigenvalues --   -0.49905  -0.49861  -0.49787  -0.49733  -0.49408
 Alpha  occ. eigenvalues --   -0.49313  -0.49111  -0.49010  -0.49005  -0.48889
 Alpha  occ. eigenvalues --   -0.48461  -0.48377  -0.48287  -0.48283  -0.48247
 Alpha  occ. eigenvalues --   -0.48245  -0.47511  -0.47498  -0.47104  -0.47036
 Alpha  occ. eigenvalues --   -0.46624  -0.46600  -0.46478  -0.46339  -0.46181
 Alpha  occ. eigenvalues --   -0.46161  -0.45990  -0.45954  -0.45714  -0.45600
 Alpha  occ. eigenvalues --   -0.45129  -0.45025  -0.44423  -0.44386  -0.44361
 Alpha  occ. eigenvalues --   -0.44321  -0.44040  -0.43992  -0.43957  -0.43886
 Alpha  occ. eigenvalues --   -0.43846  -0.43810  -0.43455  -0.43298  -0.43269
 Alpha  occ. eigenvalues --   -0.43187  -0.42833  -0.42824  -0.42793  -0.42505
 Alpha  occ. eigenvalues --   -0.42474  -0.42412  -0.41883  -0.41815  -0.41566
 Alpha  occ. eigenvalues --   -0.41497  -0.41382  -0.41324  -0.40943  -0.40907
 Alpha  occ. eigenvalues --   -0.40672  -0.40649  -0.40643  -0.40625  -0.40413
 Alpha  occ. eigenvalues --   -0.40386  -0.40158  -0.40004  -0.39348  -0.39276
 Alpha  occ. eigenvalues --   -0.38288  -0.38274  -0.37578  -0.37523  -0.37185
 Alpha  occ. eigenvalues --   -0.37133  -0.37117  -0.37042  -0.36661  -0.36465
 Alpha  occ. eigenvalues --   -0.36127  -0.35963  -0.34163  -0.34079  -0.33743
 Alpha  occ. eigenvalues --   -0.33482  -0.33086  -0.32973  -0.31197  -0.31176
 Alpha  occ. eigenvalues --   -0.30886  -0.30830  -0.29811  -0.29801  -0.29251
 Alpha  occ. eigenvalues --   -0.29237  -0.29111  -0.29107  -0.23949  -0.23873
 Alpha  occ. eigenvalues --   -0.21029  -0.20926
 Alpha virt. eigenvalues --   -0.08700  -0.08573  -0.01600  -0.01552   0.00057
 Alpha virt. eigenvalues --    0.00135   0.02319   0.02411   0.03312   0.03388
 Alpha virt. eigenvalues --    0.04807   0.04928   0.05287   0.05380   0.06253

 Mulliken charges:
               1
     1  Mg   0.839919
     2  C   -0.002139
     3  C   -0.094026
     4  C   -0.046127
     5  C   -0.064203
     6  N   -0.256711
     7  C   -0.052115
     8  C   -0.014199
     9  C   -0.087034
    10  C    0.046533
    11  C    0.104937
    12  C    0.053431
    13  C   -0.071727
    14  H    0.036712
    15  N   -0.432999
    16  C    0.168520
    17  C   -0.177294
    18  C   -0.004255
    19  C    0.148740
    20  C    0.110305
    21  C    0.012111
    22  O   -0.250189
    23  C    0.062530
    24  N   -0.341177
    25  C    0.041166
    26  C   -0.028019
    27  C   -0.023945
    28  C    0.075003
    29  C    0.076327
    30  C    0.035216
    31  C   -0.004459
    32  N   -0.310655
    33  C    0.080904
    34  C   -0.169407
    35  C    0.008511
    36  C    0.083733
    37  C    0.127172
    38  C    0.046810
    39  O   -0.188154
    40  C   -0.005616
    41  C    0.212458
    42  O   -0.254853
    43  O   -0.305379
    44  C    0.157521
    45  H   -0.018033
    46  H   -0.017372
    47  H   -0.041755
    48  H    0.000691
    49  H   -0.004195
    50  H    0.025314
    51  H    0.016176
    52  H    0.016210
    53  H    0.011587
    54  H    0.045701
    55  H    0.017192
    56  H    0.017466
    57  H    0.005717
    58  H    0.026293
    59  H    0.039329
    60  H    0.037130
    61  H    0.035059
    62  H    0.031557
    63  H    0.016154
    64  H    0.009177
    65  H    0.022741
    66  H    0.012471
    67  H    0.004461
    68  H    0.005779
    69  H    0.004679
    70  H    0.008250
    71  H    0.017765
    72  H    0.029937
    73  H    0.048141
    74  H    0.008875
    75  H    0.045634
    76  H    0.034656
    77  H    0.042324
    78  H    0.045979
    79  H    0.055033
    80  Mg   0.837706
    81  C   -0.016779
    82  C   -0.087886
    83  C   -0.045596
    84  C   -0.064975
    85  N   -0.254465
    86  C   -0.049941
    87  C   -0.014989
    88  C   -0.090475
    89  C    0.045614
    90  C    0.114472
    91  C    0.062564
    92  C   -0.077753
    93  H    0.034956
    94  N   -0.423433
    95  C    0.162739
    96  C   -0.174845
    97  C   -0.007974
    98  C    0.151996
    99  C    0.099465
   100  C    0.015446
   101  O   -0.253400
   102  C    0.061247
   103  N   -0.350067
   104  C    0.037379
   105  C   -0.019745
   106  C   -0.034861
   107  C    0.089047
   108  C    0.073729
   109  C    0.034748
   110  C   -0.007662
   111  N   -0.324234
   112  C    0.078567
   113  C   -0.162943
   114  C    0.002735
   115  C    0.096228
   116  C    0.131520
   117  C    0.042498
   118  O   -0.185546
   119  C    0.000721
   120  C    0.211790
   121  O   -0.250764
   122  O   -0.305876
   123  C    0.151957
   124  H   -0.019997
   125  H   -0.015772
   126  H   -0.040283
   127  H   -0.000834
   128  H   -0.004509
   129  H    0.022237
   130  H    0.014347
   131  H    0.015894
   132  H    0.013895
   133  H    0.037948
   134  H    0.020491
   135  H    0.019390
   136  H    0.008546
   137  H    0.025842
   138  H    0.039601
   139  H    0.038102
   140  H    0.036197
   141  H    0.033855
   142  H    0.014297
   143  H    0.012395
   144  H    0.024961
   145  H    0.011508
   146  H    0.005584
   147  H    0.006082
   148  H    0.003741
   149  H    0.010807
   150  H    0.017996
   151  H    0.030248
   152  H    0.047535
   153  H    0.008282
   154  H    0.046982
   155  H    0.034673
   156  H    0.044049
   157  H    0.048919
   158  H    0.054078
 Sum of Mulliken charges =  -0.00000

 Dipole moment (field-independent basis, Debye):
    X=             -1.0418    Y=              1.1896    Z=              7.2170  Tot=              7.3882
 Quadrupole moment (field-independent basis, Debye-Ang):
   XX=           -455.9468   YY=           -488.0145   ZZ=           -501.4318
   XY=            -30.1493   XZ=              3.8451   YZ=             52.1892

 Normal termination of Gaussian 16 at Sun Sep 12 03:00:14 2021.
