 Gaussian 16, Revision A.03,
 Gaussian 16:  ES64L-G16RevA.03 25-Dec-2016

 -----------------------------------
 #p cam-b3lyp/Def2SVP td=(nstates=5)
 -----------------------------------

 --------------------------------
 TDDFT excited states in gaussian
 --------------------------------
 Symbolic Z-matrix:
 Charge =  0 Multiplicity = 1

                         Standard orientation:
 ---------------------------------------------------------------------
 Center     Atomic      Atomic             Coordinates (Angstroms)
 Number     Number       Type             X           Y           Z
 ---------------------------------------------------------------------
      1         12           0       -4.585525    0.057508   -0.034508
      2          6           0       -4.139732    3.609007   -0.016117
      3          6           0       -5.315363    0.315787   -3.357713
      4          6           0       -5.425211   -2.999973    0.023460
      5          6           0       -4.936989    0.231887    3.428399
      6          7           0       -4.680581    1.796572   -1.400988
      7          6           0       -4.429186    3.096565   -1.282713
      8          6           0       -4.427874    3.852049   -2.645290
      9          6           0       -5.347943    2.857331   -3.485531
     10          6           0       -5.072347    1.571571   -2.726063
     11          6           0       -6.836483    3.175669   -3.388523
     12          6           0       -2.992885    3.963751   -3.261780
     13          6           0       -2.853550    4.960063   -4.416468
     14          1           0       -1.616233    5.715045   -4.544517
     15          7           0       -4.794322   -1.241923   -1.507848
     16          6           0       -5.074155   -0.959733   -2.802973
     17          6           0       -5.127243   -2.261969   -3.501575
     18          6           0       -5.043506   -3.334561   -2.471707
     19          6           0       -5.111603   -2.558565   -1.259861
     20          6           0       -5.196891   -2.393891   -4.992043
     21          6           0       -4.932031   -4.823525   -2.564946
     22          8           0       -5.106699   -5.583446   -1.551740
     23          6           0       -4.697345   -5.381845   -3.908911
     24          7           0       -5.325775   -1.183489    1.472009
     25          6           0       -5.551288   -2.482569    1.247243
     26          6           0       -5.803538   -3.222450    2.527432
     27          6           0       -5.462157   -2.198683    3.704340
     28          6           0       -5.132899   -0.952902    2.845336
     29          6           0       -7.227265   -3.763296    2.718472
     30          6           0       -4.426997   -2.661022    4.760325
     31          6           0       -3.061337   -2.781304    4.121886
     32          7           0       -4.375557    1.592065    1.486049
     33          6           0       -4.591843    1.448618    2.864206
     34          6           0       -4.432312    2.784366    3.467857
     35          6           0       -4.148792    3.620460    2.389706
     36          6           0       -4.158162    2.860169    1.185479
     37          6           0       -4.608917    3.103895    4.843046
     38          6           0       -3.864416    4.983721    1.971967
     39          8           0       -3.639790    6.042135    2.560859
     40          6           0       -3.967444    5.053117    0.384391
     41          6           0       -2.751284    5.782017   -0.118568
     42          8           0       -1.613605    5.281516   -0.006538
     43          8           0       -3.137155    6.832913   -0.858341
     44          6           0       -1.978157    7.582511   -1.412399
     45          1           0       -5.787611    0.302655   -4.341965
     46          1           0       -5.612718   -4.072787    0.103138
     47          1           0       -4.948735    0.348264    4.513651
     48          1           0       -4.881048    4.843106   -2.615913
     49          1           0       -5.012056    2.766803   -4.518346
     50          1           0       -7.029806    3.956476   -2.653073
     51          1           0       -7.314604    2.243070   -3.088269
     52          1           0       -7.245154    3.419630   -4.369466
     53          1           0       -2.753626    3.038221   -3.785431
     54          1           0       -2.259061    4.200697   -2.490622
     55          1           0       -3.715045    5.625919   -4.474519
     56          1           0       -2.878146    4.402985   -5.353089
     57          1           0       -5.412932   -1.438696   -5.468986
     58          1           0       -6.065674   -3.012320   -5.216699
     59          1           0       -4.300137   -2.855640   -5.405507
     60          1           0       -5.511703   -5.083846   -4.569644
     61          1           0       -4.556184   -6.453001   -3.769096
     62          1           0       -3.790209   -4.939408   -4.321588
     63          1           0       -5.153411   -4.092384    2.610950
     64          1           0       -6.344139   -1.941523    4.291409
     65          1           0       -7.267717   -4.839512    2.888260
     66          1           0       -7.814376   -3.482951    1.844401
     67          1           0       -7.792556   -3.289181    3.520394
     68          1           0       -4.690076   -3.646553    5.143031
     69          1           0       -4.349140   -1.984609    5.611591
     70          1           0       -3.089124   -3.773439    3.672743
     71          1           0       -2.280071   -2.717705    4.880034
     72          1           0       -2.935040   -2.061019    3.313354
     73          1           0       -3.785749    3.766369    5.110425
     74          1           0       -4.611694    2.206237    5.460950
     75          1           0       -5.582274    3.593326    4.813247
     76          1           0       -4.889060    5.586261    0.153083
     77          1           0       -2.083649    8.619140   -1.092233
     78          1           0       -1.963680    7.382897   -2.484009
     79          1           0       -1.001054    7.336655   -0.995069
     80         12           0        4.266622   -1.568082    0.261109
     81          6           0        5.500230    1.800822    0.349396
     82          6           0        4.326229   -1.342214   -3.141835
     83          6           0        2.761417   -4.358987    0.148668
     84          6           0        3.237640   -1.130390    3.561917
     85          7           0        4.857604    0.069698   -1.102947
     86          6           0        5.369005    1.282621   -0.955855
     87          6           0        5.836589    1.948171   -2.277965
     88          6           0        4.903872    1.133458   -3.300292
     89          6           0        4.706974   -0.143967   -2.486602
     90          6           0        3.543948    1.776078   -3.517026
     91          6           0        7.358786    1.699735   -2.566462
     92          6           0        7.954510    2.573009   -3.672914
     93          1           0        9.336482    3.024311   -3.535290
     94          7           0        4.086431   -2.871073   -1.224922
     95          6           0        4.160453   -2.612440   -2.547390
     96          6           0        3.941688   -3.901200   -3.222234
     97          6           0        3.568913   -4.911321   -2.194897
     98          6           0        3.434564   -4.062996   -1.027683
     99          6           0        4.168105   -4.098299   -4.693052
    100          6           0        3.354683   -6.393406   -2.255949
    101          8           0        2.803268   -7.034286   -1.292593
    102          6           0        3.724111   -7.057923   -3.514290
    103          7           0        2.972923   -2.526324    1.576580
    104          6           0        2.502764   -3.757494    1.309974
    105          6           0        1.818363   -4.353261    2.517051
    106          6           0        2.139991   -3.358960    3.727633
    107          6           0        2.913865   -2.265827    2.958495
    108          6           0        0.305745   -4.539349    2.399801
    109          6           0        2.796325   -3.978466    4.991800
    110          6           0        4.197460   -4.445728    4.669511
    111          7           0        4.501404   -0.043982    1.774409
    112          6           0        3.967183   -0.050388    3.081556
    113          6           0        4.300089    1.251964    3.694321
    114          6           0        4.990433    1.940046    2.685135
    115          6           0        5.063760    1.131914    1.518504
    116          6           0        3.925969    1.676720    5.000366
    117          6           0        5.664541    3.170378    2.337936
    118          8           0        5.989948    4.185742    2.951845
    119          6           0        5.914383    3.184153    0.768299
    120          6           0        7.342670    3.590556    0.528851
    121          8           0        8.278331    2.860380    0.900334
    122          8           0        7.365554    4.660553   -0.286593
    123          6           0        8.761085    5.094354   -0.562525
    124          1           0        4.090590   -1.299535   -4.205567
    125          1           0        2.319001   -5.356508    0.200550
    126          1           0        3.037535   -0.954467    4.621012
    127          1           0        5.629493    3.009132   -2.350465
    128          1           0        5.428428    0.917873   -4.227515
    129          1           0        3.384144    2.613980   -2.854817
    130          1           0        2.816892    0.997938   -3.324840
    131          1           0        3.420232    2.051121   -4.568395
    132          1           0        7.479582    0.709104   -3.023431
    133          1           0        7.938727    1.806224   -1.670392
    134          1           0        7.299640    3.413851   -3.931949
    135          1           0        8.007709    1.982154   -4.590554
    136          1           0        4.277432   -3.139764   -5.215214
    137          1           0        3.247817   -4.527782   -5.103520
    138          1           0        4.998818   -4.775006   -4.904384
    139          1           0        3.159425   -6.619380   -4.333591
    140          1           0        3.582603   -8.125260   -3.333611
    141          1           0        4.781854   -6.857505   -3.718338
    142          1           0        2.223493   -5.330815    2.748081
    143          1           0        1.228104   -2.883164    4.117387
    144          1           0       -0.019534   -5.583999    2.564035
    145          1           0       -0.006088   -4.193041    1.423395
    146          1           0       -0.289127   -3.917287    3.066411
    147          1           0        2.240274   -4.862865    5.312421
    148          1           0        2.834244   -3.298286    5.836138
    149          1           0        4.032758   -5.432492    4.226528
    150          1           0        4.796155   -4.514753    5.575512
    151          1           0        4.656759   -3.812245    3.901779
    152          1           0        4.795540    2.152377    5.434076
    153          1           0        3.584592    0.841026    5.607682
    154          1           0        3.112990    2.365644    4.755996
    155          1           0        5.208674    3.891148    0.330442
    156          1           0        8.829231    6.149665   -0.280800
    157          1           0        8.947740    4.843198   -1.623579
    158          1           0        9.549210    4.662469    0.043094
 ---------------------------------------------------------------------

 SCF Done:  E(RCAM-B3LYP) =  -4069.81153189     A.U. after   19 cycles

 Excitation energies and oscillator strengths:

 Excited State   1:      Singlet-A      1.6476 eV  752.49 nm  f=0.0018  <S**2>=0.000
     309 -> 315       -0.11291
     310 -> 316        0.12272
     311 -> 313       -0.46375
     312 -> 314        0.50779
 This state for optimization and/or second-order correction.
 Total Energy, E(TD-HF/TD-DFT) =  -4069.75098203
 Copying the excited state density for this state as the 1-particle RhoCI density.

 Excited State   2:      Singlet-A      1.7046 eV  727.33 nm  f=0.6968  <S**2>=0.000
     309 -> 315        0.13452
     310 -> 316        0.12196
     311 -> 313        0.50514
     312 -> 314        0.46135

 Excited State   3:      Singlet-A      2.1806 eV  568.58 nm  f=0.0208  <S**2>=0.000
     309 -> 313       -0.30875
     310 -> 314        0.56647
     311 -> 315        0.12734
     312 -> 316       -0.23561

 Excited State   4:      Singlet-A      2.1965 eV  564.46 nm  f=0.1550  <S**2>=0.000
     309 -> 313        0.56153
     310 -> 314        0.30397
     311 -> 315       -0.24772
     312 -> 316       -0.13610

 Excited State   5:      Singlet-A      2.3575 eV  525.90 nm  f=0.0000  <S**2>=0.000
     312 -> 313        0.70701

 The electronic state is 1-A.
 Alpha  occ. eigenvalues --  -46.87869 -46.87433 -19.26323 -19.26141 -19.19058
 Alpha  occ. eigenvalues --  -19.18946 -19.18831 -19.18527 -19.18205 -19.17779
 Alpha  occ. eigenvalues --  -14.42527 -14.42274 -14.41533 -14.41134 -14.39469
 Alpha  occ. eigenvalues --  -14.39131 -14.38655 -14.38358 -10.39120 -10.38869
 Alpha  occ. eigenvalues --  -10.35464 -10.35210 -10.34428 -10.33954 -10.31714
 Alpha  occ. eigenvalues --  -10.31580 -10.31486 -10.31076 -10.30982 -10.30815
 Alpha  occ. eigenvalues --  -10.30645 -10.30573 -10.30294 -10.30159 -10.30123
 Alpha  occ. eigenvalues --  -10.30001 -10.29940 -10.29694 -10.29650 -10.29321
 Alpha  occ. eigenvalues --  -10.29224 -10.29173 -10.28846 -10.28689 -10.28526
 Alpha  occ. eigenvalues --  -10.28520 -10.28427 -10.28210 -10.28173 -10.27940
 Alpha  occ. eigenvalues --  -10.27852 -10.27806 -10.27765 -10.27645 -10.27634
 Alpha  occ. eigenvalues --  -10.27565 -10.27554 -10.27472 -10.27459 -10.27348
 Alpha  occ. eigenvalues --  -10.27327 -10.27252 -10.27251 -10.27206 -10.27149
 Alpha  occ. eigenvalues --  -10.26835 -10.26775 -10.26530 -10.26414 -10.26400
 Alpha  occ. eigenvalues --  -10.26315 -10.26293 -10.26108 -10.25994 -10.25898
 Alpha  occ. eigenvalues --  -10.25804 -10.25716 -10.25542 -10.25515 -10.25108
 Alpha  occ. eigenvalues --  -10.25009 -10.24889 -10.24858 -10.24622 -10.24587
 Alpha  occ. eigenvalues --  -10.24455  -3.16612  -3.16183  -1.91493  -1.91080
 Alpha  occ. eigenvalues --   -1.91065  -1.90922  -1.90654  -1.90490  -1.16671
 Alpha  occ. eigenvalues --   -1.16433  -1.08661  -1.08382  -1.07227  -1.06782
 Alpha  occ. eigenvalues --   -1.06729  -1.06680  -1.04656  -1.04271  -1.03839
 Alpha  occ. eigenvalues --   -1.03438  -1.03304  -1.02810  -1.02484  -1.01879
 Alpha  occ. eigenvalues --   -0.92036  -0.91744  -0.89641  -0.89286  -0.89284
 Alpha  occ. eigenvalues --   -0.88951  -0.88400  -0.88007  -0.87932  -0.87758
 Alpha  occ. eigenvalues --   -0.87534  -0.87468  -0.87330  -0.86939  -0.85074
 Alpha  occ. eigenvalues --   -0.84800  -0.84072  -0.83664  -0.83030  -0.82763
 Alpha  occ. eigenvalues --   -0.82726  -0.82458  -0.81649  -0.81379  -0.80663
 Alpha  occ. eigenvalues --   -0.80230  -0.78862  -0.78429  -0.77323  -0.77032
 Alpha  occ. eigenvalues --   -0.76942  -0.76693  -0.76000  -0.75627  -0.74999
 Alpha  occ. eigenvalues --   -0.74572  -0.72853  -0.72469  -0.71749  -0.71353
 Alpha  occ. eigenvalues --   -0.70082  -0.69566  -0.68958  -0.68628  -0.67707
 Alpha  occ. eigenvalues --   -0.67382  -0.67307  -0.67021  -0.65378  -0.65065
 Alpha  occ. eigenvalues --   -0.64933  -0.64712  -0.64553  -0.64446  -0.64378
 Alpha  occ. eigenvalues --   -0.63994  -0.62360  -0.62065  -0.60510  -0.60140
 Alpha  occ. eigenvalues --   -0.59888  -0.59584  -0.59065  -0.58767  -0.58578
 Alpha  occ. eigenvalues --   -0.58202  -0.57639  -0.57388  -0.57306  -0.57019
 Alpha  occ. eigenvalues --   -0.56376  -0.56039  -0.55988  -0.55685  -0.55580
 Alpha  occ. eigenvalues --   -0.55442  -0.55253  -0.55030  -0.54618  -0.54281
 Alpha  occ. eigenvalues --   -0.53988  -0.53716  -0.53375  -0.53289  -0.53023
 Alpha  occ. eigenvalues --   -0.52997  -0.52939  -0.52823  -0.52700  -0.52607
 Alpha  occ. eigenvalues --   -0.52504  -0.52227  -0.51974  -0.51695  -0.51598
 Alpha  occ. eigenvalues --   -0.51470  -0.51280  -0.50978  -0.50634  -0.50322
 Alpha  occ. eigenvalues --   -0.50165  -0.49982  -0.49786  -0.49662  -0.49580
 Alpha  occ. eigenvalues --   -0.49296  -0.49276  -0.49176  -0.48989  -0.48879
 Alpha  occ. eigenvalues --   -0.48662  -0.48545  -0.48484  -0.48337  -0.48155
 Alpha  occ. eigenvalues --   -0.48137  -0.47778  -0.47402  -0.47367  -0.46944
 Alpha  occ. eigenvalues --   -0.46880  -0.46645  -0.46502  -0.46447  -0.46362
 Alpha  occ. eigenvalues --   -0.46239  -0.46056  -0.45888  -0.45840  -0.45584
 Alpha  occ. eigenvalues --   -0.45301  -0.44972  -0.44646  -0.44599  -0.44307
 Alpha  occ. eigenvalues --   -0.44267  -0.44253  -0.44168  -0.44074  -0.43917
 Alpha  occ. eigenvalues --   -0.43880  -0.43732  -0.43563  -0.43475  -0.43342
 Alpha  occ. eigenvalues --   -0.43170  -0.43107  -0.42827  -0.42729  -0.42718
 Alpha  occ. eigenvalues --   -0.42668  -0.42357  -0.42134  -0.41779  -0.41768
 Alpha  occ. eigenvalues --   -0.41632  -0.41434  -0.41266  -0.41218  -0.40986
 Alpha  occ. eigenvalues --   -0.40868  -0.40767  -0.40682  -0.40545  -0.40513
 Alpha  occ. eigenvalues --   -0.40340  -0.40285  -0.40056  -0.39625  -0.39239
 Alpha  occ. eigenvalues --   -0.38584  -0.38135  -0.37857  -0.37474  -0.37424
 Alpha  occ. eigenvalues --   -0.37349  -0.37051  -0.36991  -0.36776  -0.36559
 Alpha  occ. eigenvalues --   -0.36272  -0.36002  -0.34359  -0.34024  -0.33814
 Alpha  occ. eigenvalues --   -0.33643  -0.33257  -0.32949  -0.31364  -0.31105
 Alpha  occ. eigenvalues --   -0.31085  -0.30746  -0.30066  -0.29682  -0.29504
 Alpha  occ. eigenvalues --   -0.29379  -0.29114  -0.28954  -0.24154  -0.23804
 Alpha  occ. eigenvalues --   -0.21203  -0.20891
 Alpha virt. eigenvalues --   -0.08839  -0.08564  -0.01822  -0.01465  -0.00105
 Alpha virt. eigenvalues --    0.00177   0.02144   0.02452   0.02861   0.03504
 Alpha virt. eigenvalues --    0.04624   0.04947   0.05055   0.05389   0.06058

 Mulliken charges:
               1
     1  Mg   0.838840
     2  C   -0.002822
     3  C   -0.094636
     4  C   -0.045568
     5  C   -0.064345
     6  N   -0.256657
     7  C   -0.052726
     8  C   -0.013896
     9  C   -0.086948
    10  C    0.046235
    11  C    0.104798
    12  C    0.053746
    13  C   -0.071396
    14  H    0.035065
    15  N   -0.433264
    16  C    0.168592
    17  C   -0.177371
    18  C   -0.003532
    19  C    0.148993
    20  C    0.110335
    21  C    0.013536
    22  O   -0.248647
    23  C    0.062291
    24  N   -0.340874
    25  C    0.040963
    26  C   -0.028828
    27  C   -0.025326
    28  C    0.074354
    29  C    0.076048
    30  C    0.050623
    31  C   -0.027934
    32  N   -0.310499
    33  C    0.080290
    34  C   -0.169880
    35  C    0.008652
    36  C    0.083091
    37  C    0.127281
    38  C    0.046444
    39  O   -0.187568
    40  C   -0.005554
    41  C    0.213162
    42  O   -0.256976
    43  O   -0.304866
    44  C    0.157393
    45  H   -0.017699
    46  H   -0.016390
    47  H   -0.041821
    48  H    0.001207
    49  H   -0.004541
    50  H    0.025708
    51  H    0.016615
    52  H    0.016626
    53  H    0.010293
    54  H    0.044033
    55  H    0.018479
    56  H    0.017313
    57  H    0.005441
    58  H    0.027092
    59  H    0.038868
    60  H    0.036775
    61  H    0.036869
    62  H    0.031234
    63  H    0.016872
    64  H    0.010063
    65  H    0.023616
    66  H    0.012881
    67  H    0.004859
    68  H    0.006159
    69  H    0.003305
    70  H    0.016026
    71  H    0.019817
    72  H    0.031421
    73  H    0.047995
    74  H    0.008608
    75  H    0.046279
    76  H    0.035265
    77  H    0.043605
    78  H    0.045674
    79  H    0.054253
    80  Mg   0.838093
    81  C   -0.016034
    82  C   -0.088319
    83  C   -0.046087
    84  C   -0.064059
    85  N   -0.254505
    86  C   -0.048668
    87  C   -0.015123
    88  C   -0.090810
    89  C    0.046064
    90  C    0.114334
    91  C    0.062642
    92  C   -0.077407
    93  H    0.034311
    94  N   -0.423317
    95  C    0.162734
    96  C   -0.175953
    97  C   -0.008162
    98  C    0.151602
    99  C    0.100037
   100  C    0.014973
   101  O   -0.252914
   102  C    0.061513
   103  N   -0.349949
   104  C    0.037691
   105  C   -0.022103
   106  C   -0.035176
   107  C    0.088927
   108  C    0.074889
   109  C    0.034506
   110  C   -0.006941
   111  N   -0.324633
   112  C    0.079358
   113  C   -0.161472
   114  C    0.003870
   115  C    0.096474
   116  C    0.130635
   117  C    0.044074
   118  O   -0.187054
   119  C    0.000224
   120  C    0.210930
   121  O   -0.251601
   122  O   -0.305292
   123  C    0.152233
   124  H   -0.021315
   125  H   -0.015245
   126  H   -0.040788
   127  H   -0.000300
   128  H   -0.005488
   129  H    0.025699
   130  H    0.014245
   131  H    0.013845
   132  H    0.013594
   133  H    0.037661
   134  H    0.020517
   135  H    0.018958
   136  H    0.007858
   137  H    0.024068
   138  H    0.039185
   139  H    0.036989
   140  H    0.036056
   141  H    0.033613
   142  H    0.013728
   143  H    0.012482
   144  H    0.024877
   145  H    0.012028
   146  H    0.005107
   147  H    0.005390
   148  H    0.002970
   149  H    0.010825
   150  H    0.017416
   151  H    0.030280
   152  H    0.045446
   153  H    0.007259
   154  H    0.051305
   155  H    0.037866
   156  H    0.043753
   157  H    0.048915
   158  H    0.053244
 Sum of Mulliken charges =  -0.00000

 Dipole moment (field-independent basis, Debye):
    X=             -3.6773    Y=             -1.5582    Z=             -7.8157  Tot=              8.7770
 Quadrupole moment (field-independent basis, Debye-Ang):
   XX=           -511.6391   YY=           -553.1910   ZZ=           -447.4128
   XY=             -8.5007   XZ=            -22.6023   YZ=            -37.9741

 Normal termination of Gaussian 16 at Thu Sep  9 18:05:57 2021.
