 Gaussian 16, Revision A.03,
 Gaussian 16:  ES64L-G16RevA.03 25-Dec-2016

 -----------------------------------
 #p cam-b3lyp/Def2SVP td=(nstates=5)
 -----------------------------------

 --------------------------------
 TDDFT excited states in gaussian
 --------------------------------
 Symbolic Z-matrix:
 Charge =  0 Multiplicity = 1

                         Standard orientation:
 ---------------------------------------------------------------------
 Center     Atomic      Atomic             Coordinates (Angstroms)
 Number     Number       Type             X           Y           Z
 ---------------------------------------------------------------------
      1         12           0       -6.496328    0.518925   -0.730328
      2          6           0       -6.903325   -2.394890    1.308361
      3          6           0       -7.683609    2.341843    1.898436
      4          6           0       -6.575733    3.038726   -2.654104
      5          6           0       -6.435092   -1.603702   -3.493725
      6          7           0       -7.172645   -0.066245    1.294720
      7          6           0       -7.222436   -1.208573    1.972789
      8          6           0       -7.573122   -1.018285    3.478838
      9          6           0       -8.331525    0.381063    3.385847
     10          6           0       -7.665652    0.935832    2.138944
     11          6           0       -9.828310    0.246688    3.124922
     12          6           0       -6.295647   -0.918862    4.378784
     13          6           0       -6.543775   -1.059853    5.883413
     14          1           0       -5.546449   -1.738585    6.697053
     15          7           0       -6.578201    2.447988   -0.312163
     16          6           0       -7.079352    3.012202    0.812913
     17          6           0       -6.911900    4.471947    0.646226
     18          6           0       -6.446760    4.720484   -0.746601
     19          6           0       -6.541305    3.397400   -1.308640
     20          6           0       -7.137647    5.457564    1.751372
     21          6           0       -5.999587    5.956468   -1.461102
     22          8           0       -5.859343    5.994714   -2.731316
     23          6           0       -5.812797    7.162234   -0.633890
     24          7           0       -6.724484    0.722323   -2.795324
     25          6           0       -6.663538    1.923089   -3.381353
     26          6           0       -6.568764    1.798422   -4.873135
     27          6           0       -6.331815    0.248041   -5.173010
     28          6           0       -6.418250   -0.288694   -3.722936
     29          6           0       -7.788218    2.290761   -5.664682
     30          6           0       -5.090943   -0.122011   -6.023725
     31          6           0       -3.828260    0.184676   -5.249985
     32          7           0       -6.462847   -1.626556   -1.057186
     33          6           0       -6.461816   -2.291393   -2.291959
     34          6           0       -6.546734   -3.735227   -2.005255
     35          6           0       -6.608378   -3.809625   -0.615108
     36          6           0       -6.591199   -2.494346   -0.069179
     37          6           0       -6.617199   -4.774572   -2.974394
     38          6           0       -6.709601   -4.693265    0.535019
     39          8           0       -6.668191   -5.913706    0.697202
     40          6           0       -7.027416   -3.808428    1.820275
     41          6           0       -6.092055   -4.244504    2.914919
     42          8           0       -4.863622   -4.044270    2.824228
     43          8           0       -6.806182   -4.609156    3.990834
     44          6           0       -5.937282   -5.025137    5.124027
     45          1           0       -8.260780    2.984252    2.566362
     46          1           0       -6.492843    3.875391   -3.350925
     47          1           0       -6.335687   -2.330204   -4.302284
     48          1           0       -8.240003   -1.776586    3.889539
     49          1           0       -8.118103    1.017450    4.244441
     50          1           0      -10.105293   -0.786763    2.917123
     51          1           0      -10.030402    0.876585    2.258387
     52          1           0      -10.404534    0.673271    3.946365
     53          1           0       -5.913259    0.101398    4.348612
     54          1           0       -5.546488   -1.647517    4.067096
     55          1           0       -7.538332   -1.457318    6.087834
     56          1           0       -6.555178   -0.062281    6.322640
     57          1           0       -7.632098    4.995750    2.605064
     58          1           0       -7.857121    6.188925    1.383706
     59          1           0       -6.217377    5.962721    2.045060
     60          1           0       -6.751815    7.406690   -0.136863
     61          1           0       -5.406025    7.923152   -1.299013
     62          1           0       -5.095974    6.940147    0.157180
     63          1           0       -5.726384    2.370001   -5.260587
     64          1           0       -7.167427   -0.196215   -5.714363
     65          1           0       -7.551386    3.059906   -6.400231
     66          1           0       -8.531321    2.646976   -4.951800
     67          1           0       -8.342630    1.508971   -6.183187
     68          1           0       -5.062878    0.476468   -6.933659
     69          1           0       -5.067286   -1.171798   -6.316369
     70          1           0       -3.677906    1.246713   -5.440519
     71          1           0       -2.994115   -0.402941   -5.634848
     72          1           0       -3.979675    0.064344   -4.177101
     73          1           0       -5.946629   -5.560807   -2.627781
     74          1           0       -6.329179   -4.415209   -3.962071
     75          1           0       -7.674250   -5.033628   -2.916171
     76          1           0       -8.070609   -3.990921    2.076336
     77          1           0       -6.242961   -6.031549    5.410259
     78          1           0       -6.012660   -4.240145    5.876697
     79          1           0       -4.884799   -5.188560    4.889697
     80         12           0        6.658708    0.616817    0.734045
     81          6           0        6.782376   -1.599014   -2.086216
     82          6           0        5.591608   -2.041217    2.586270
     83          6           0        6.108293    2.630070    3.123866
     84          6           0        6.619839    3.268484   -1.527111
     85          7           0        6.275694   -1.496516    0.205477
     86          6           0        6.416541   -2.237835   -0.883083
     87          6           0        6.228472   -3.761330   -0.652512
     88          6           0        5.316791   -3.693972    0.667778
     89          6           0        5.776257   -2.343490    1.213457
     90          6           0        3.829474   -3.607124    0.368322
     91          6           0        7.586938   -4.496135   -0.375638
     92          6           0        7.518492   -6.023168   -0.447981
     93          1           0        8.671260   -6.747310   -0.976371
     94          7           0        6.429509    0.273828    2.675276
     95          6           0        6.009141   -0.869819    3.255474
     96          6           0        5.991814   -0.604205    4.702306
     97          6           0        6.278134    0.840245    4.917503
     98          6           0        6.262177    1.318763    3.549704
     99          6           0        5.800449   -1.685451    5.725882
    100          6           0        6.513089    1.658188    6.151178
    101          8           0        6.507128    2.939548    6.120767
    102          6           0        6.657422    0.916126    7.412123
    103          7           0        6.187992    2.641011    0.792375
    104          6           0        6.052867    3.285866    1.964483
    105          6           0        5.988766    4.780736    1.760418
    106          6           0        6.353417    5.020335    0.221846
    107          6           0        6.483662    3.551986   -0.239002
    108          6           0        4.644481    5.437746    2.072854
    109          6           0        7.523267    5.996439   -0.080409
    110          6           0        8.828107    5.402323    0.398969
    111          7           0        6.878880    0.841512   -1.403502
    112          6           0        6.803407    2.039345   -2.147524
    113          6           0        6.900374    1.671966   -3.575132
    114          6           0        7.003213    0.272754   -3.563592
    115          6           0        6.952192   -0.200165   -2.224473
    116          6           0        6.838893    2.576082   -4.672808
    117          6           0        7.132631   -0.912509   -4.380346
    118          8           0        7.309739   -1.126465   -5.578930
    119          6           0        6.868214   -2.186576   -3.467531
    120          6           0        7.959639   -3.185837   -3.737283
    121          8           0        9.138616   -2.931320   -3.434231
    122          8           0        7.405272   -4.355241   -4.105442
    123          6           0        8.447600   -5.381716   -4.373228
    124          1           0        5.037158   -2.748840    3.203317
    125          1           0        6.026248    3.376834    3.917023
    126          1           0        6.713960    4.045222   -2.289021
    127          1           0        5.699264   -4.278600   -1.443794
    128          1           0        5.568034   -4.491331    1.362378
    129          1           0        3.637485   -3.485523   -0.687367
    130          1           0        3.467956   -2.749152    0.919900
    131          1           0        3.309689   -4.474406    0.785426
    132          1           0        7.853319   -4.369880    0.681648
    133          1           0        8.355048   -4.137311   -1.032814
    134          1           0        6.594150   -6.372248   -0.924097
    135          1           0        7.460804   -6.416554    0.569827
    136          1           0        5.448388   -2.617044    5.265902
    137          1           0        4.973066   -1.371732    6.371535
    138          1           0        6.688356   -1.844624    6.341467
    139          1           0        5.762422    0.323812    7.587049
    140          1           0        6.907628    1.665733    8.165354
    141          1           0        7.487749    0.208691    7.308672
    142          1           0        6.720455    5.287070    2.377951
    143          1           0        5.508097    5.450667   -0.335012
    144          1           0        4.717046    6.241989    2.829161
    145          1           0        3.956736    4.669217    2.399805
    146          1           0        4.126589    5.860995    1.213870
    147          1           0        7.387743    6.931518    0.468605
    148          1           0        7.613510    6.250193   -1.131339
    149          1           0        8.840162    5.658993    1.462483
    150          1           0        9.669136    5.851826   -0.125105
    151          1           0        8.813742    4.308781    0.323932
    152          1           0        7.613808    2.277198   -5.366126
    153          1           0        6.970975    3.605903   -4.347547
    154          1           0        5.822319    2.384525   -5.026576
    155          1           0        5.883069   -2.576413   -3.726573
    156          1           0        8.277892   -5.751944   -5.389008
    157          1           0        8.363446   -6.114970   -3.549217
    158          1           0        9.475996   -5.046331   -4.439421
 ---------------------------------------------------------------------

 SCF Done:  E(RCAM-B3LYP) =  -4069.81203853     A.U. after   19 cycles

 Excitation energies and oscillator strengths:

 Excited State   1:      Singlet-A      1.6747 eV  740.34 nm  f=0.3642  <S**2>=0.000
     310 -> 316        0.17230
     312 -> 314        0.68358
     310 <- 316        0.10387
 This state for optimization and/or second-order correction.
 Total Energy, E(TD-HF/TD-DFT) =  -4069.75049471
 Copying the excited state density for this state as the 1-particle RhoCI density.

 Excited State   2:      Singlet-A      1.6792 eV  738.36 nm  f=0.3676  <S**2>=0.000
     309 -> 315        0.17486
     311 -> 313        0.68322
     309 <- 315        0.10481

 Excited State   3:      Singlet-A      2.1854 eV  567.34 nm  f=0.1007  <S**2>=0.000
     310 -> 314        0.64138
     312 -> 316       -0.27153

 Excited State   4:      Singlet-A      2.1928 eV  565.41 nm  f=0.0982  <S**2>=0.000
     309 -> 313        0.63943
     311 -> 315       -0.27780

 Excited State   5:      Singlet-A      2.6457 eV  468.62 nm  f=0.0000  <S**2>=0.000
     312 -> 313        0.70710

 The electronic state is 1-A.
 Alpha  occ. eigenvalues --  -46.87861 -46.87547 -19.26420 -19.26235 -19.19157
 Alpha  occ. eigenvalues --  -19.19050 -19.18869 -19.18636 -19.18258 -19.17947
 Alpha  occ. eigenvalues --  -14.42516 -14.42371 -14.41508 -14.41251 -14.39466
 Alpha  occ. eigenvalues --  -14.39241 -14.38654 -14.38488 -10.39210 -10.38979
 Alpha  occ. eigenvalues --  -10.35501 -10.35315 -10.34479 -10.34122 -10.31832
 Alpha  occ. eigenvalues --  -10.31645 -10.31475 -10.31172 -10.30978 -10.30894
 Alpha  occ. eigenvalues --  -10.30638 -10.30572 -10.30295 -10.30257 -10.30245
 Alpha  occ. eigenvalues --  -10.30039 -10.29979 -10.29797 -10.29696 -10.29327
 Alpha  occ. eigenvalues --  -10.29314 -10.29297 -10.28830 -10.28642 -10.28554
 Alpha  occ. eigenvalues --  -10.28499 -10.28434 -10.28290 -10.28189 -10.27947
 Alpha  occ. eigenvalues --  -10.27892 -10.27860 -10.27790 -10.27647 -10.27535
 Alpha  occ. eigenvalues --  -10.27533 -10.27532 -10.27485 -10.27474 -10.27442
 Alpha  occ. eigenvalues --  -10.27367 -10.27364 -10.27353 -10.27307 -10.27253
 Alpha  occ. eigenvalues --  -10.26934 -10.26801 -10.26544 -10.26457 -10.26351
 Alpha  occ. eigenvalues --  -10.26299 -10.26198 -10.26076 -10.26075 -10.25912
 Alpha  occ. eigenvalues --  -10.25829 -10.25758 -10.25751 -10.25464 -10.25350
 Alpha  occ. eigenvalues --  -10.24904 -10.24847 -10.24764 -10.24698 -10.24671
 Alpha  occ. eigenvalues --  -10.24588  -3.16604  -3.16297  -1.91485  -1.91179
 Alpha  occ. eigenvalues --   -1.91072  -1.90914  -1.90767  -1.90604  -1.16767
 Alpha  occ. eigenvalues --   -1.16530  -1.08720  -1.08553  -1.07269  -1.06891
 Alpha  occ. eigenvalues --   -1.06835  -1.06777  -1.04648  -1.04369  -1.03821
 Alpha  occ. eigenvalues --   -1.03550  -1.03297  -1.02932  -1.02474  -1.02001
 Alpha  occ. eigenvalues --   -0.92048  -0.91871  -0.89568  -0.89400  -0.89263
 Alpha  occ. eigenvalues --   -0.88981  -0.88332  -0.88135  -0.87939  -0.87739
 Alpha  occ. eigenvalues --   -0.87688  -0.87560  -0.87332  -0.87021  -0.85056
 Alpha  occ. eigenvalues --   -0.84856  -0.83981  -0.83797  -0.83017  -0.82848
 Alpha  occ. eigenvalues --   -0.82722  -0.82523  -0.81681  -0.81483  -0.80673
 Alpha  occ. eigenvalues --   -0.80330  -0.78858  -0.78530  -0.77280  -0.77022
 Alpha  occ. eigenvalues --   -0.77012  -0.76773  -0.76003  -0.75694  -0.74950
 Alpha  occ. eigenvalues --   -0.74713  -0.72837  -0.72587  -0.71737  -0.71458
 Alpha  occ. eigenvalues --   -0.69941  -0.69678  -0.68945  -0.68692  -0.67710
 Alpha  occ. eigenvalues --   -0.67495  -0.67296  -0.67075  -0.65364  -0.65133
 Alpha  occ. eigenvalues --   -0.64928  -0.64692  -0.64657  -0.64533  -0.64320
 Alpha  occ. eigenvalues --   -0.64111  -0.62397  -0.62169  -0.60498  -0.60244
 Alpha  occ. eigenvalues --   -0.59876  -0.59648  -0.59053  -0.58882  -0.58573
 Alpha  occ. eigenvalues --   -0.58317  -0.57679  -0.57442  -0.57371  -0.57141
 Alpha  occ. eigenvalues --   -0.56380  -0.56093  -0.56085  -0.55770  -0.55586
 Alpha  occ. eigenvalues --   -0.55405  -0.55345  -0.55156  -0.54601  -0.54394
 Alpha  occ. eigenvalues --   -0.53972  -0.53751  -0.53362  -0.53295  -0.53125
 Alpha  occ. eigenvalues --   -0.53024  -0.52998  -0.52819  -0.52784  -0.52553
 Alpha  occ. eigenvalues --   -0.52472  -0.52326  -0.51986  -0.51786  -0.51694
 Alpha  occ. eigenvalues --   -0.51526  -0.51268  -0.51092  -0.50623  -0.50381
 Alpha  occ. eigenvalues --   -0.50074  -0.49978  -0.49860  -0.49772  -0.49585
 Alpha  occ. eigenvalues --   -0.49368  -0.49289  -0.49172  -0.49080  -0.48957
 Alpha  occ. eigenvalues --   -0.48676  -0.48520  -0.48509  -0.48430  -0.48292
 Alpha  occ. eigenvalues --   -0.48241  -0.47761  -0.47477  -0.47360  -0.47014
 Alpha  occ. eigenvalues --   -0.46858  -0.46633  -0.46596  -0.46424  -0.46407
 Alpha  occ. eigenvalues --   -0.46231  -0.46167  -0.45988  -0.45908  -0.45709
 Alpha  occ. eigenvalues --   -0.45249  -0.45122  -0.44659  -0.44567  -0.44405
 Alpha  occ. eigenvalues --   -0.44340  -0.44205  -0.44157  -0.44093  -0.43991
 Alpha  occ. eigenvalues --   -0.43983  -0.43832  -0.43586  -0.43450  -0.43442
 Alpha  occ. eigenvalues --   -0.43262  -0.43095  -0.42820  -0.42809  -0.42790
 Alpha  occ. eigenvalues --   -0.42705  -0.42465  -0.42067  -0.41860  -0.41774
 Alpha  occ. eigenvalues --   -0.41606  -0.41556  -0.41328  -0.41206  -0.40934
 Alpha  occ. eigenvalues --   -0.40882  -0.40857  -0.40620  -0.40620  -0.40572
 Alpha  occ. eigenvalues --   -0.40389  -0.40318  -0.40087  -0.39471  -0.39348
 Alpha  occ. eigenvalues --   -0.38517  -0.38255  -0.37832  -0.37518  -0.37372
 Alpha  occ. eigenvalues --   -0.37341  -0.37163  -0.37065  -0.36819  -0.36665
 Alpha  occ. eigenvalues --   -0.36270  -0.36112  -0.34352  -0.34140  -0.33895
 Alpha  occ. eigenvalues --   -0.33752  -0.33255  -0.33064  -0.31399  -0.31195
 Alpha  occ. eigenvalues --   -0.31101  -0.30859  -0.30119  -0.29850  -0.29513
 Alpha  occ. eigenvalues --   -0.29391  -0.29224  -0.29104  -0.24146  -0.23921
 Alpha  occ. eigenvalues --   -0.21191  -0.21003
 Alpha virt. eigenvalues --   -0.08839  -0.08682  -0.01810  -0.01576  -0.00122
 Alpha virt. eigenvalues --    0.00078   0.02127   0.02310   0.03051   0.03328
 Alpha virt. eigenvalues --    0.04647   0.04865   0.04975   0.05277   0.06086

 Mulliken charges:
               1
     1  Mg   0.838609
     2  C   -0.003270
     3  C   -0.094100
     4  C   -0.045746
     5  C   -0.063826
     6  N   -0.256824
     7  C   -0.052547
     8  C   -0.014016
     9  C   -0.087030
    10  C    0.046316
    11  C    0.104765
    12  C    0.053468
    13  C   -0.071642
    14  H    0.035328
    15  N   -0.433169
    16  C    0.168483
    17  C   -0.177040
    18  C   -0.003882
    19  C    0.148730
    20  C    0.110122
    21  C    0.012316
    22  O   -0.249414
    23  C    0.062450
    24  N   -0.341144
    25  C    0.041326
    26  C   -0.028244
    27  C   -0.024036
    28  C    0.074843
    29  C    0.076107
    30  C    0.035079
    31  C   -0.004619
    32  N   -0.310368
    33  C    0.080248
    34  C   -0.169877
    35  C    0.008160
    36  C    0.082805
    37  C    0.127384
    38  C    0.045775
    39  O   -0.188934
    40  C   -0.005214
    41  C    0.212877
    42  O   -0.257919
    43  O   -0.304504
    44  C    0.157982
    45  H   -0.017462
    46  H   -0.016603
    47  H   -0.041293
    48  H    0.000876
    49  H   -0.003956
    50  H    0.025471
    51  H    0.016598
    52  H    0.016791
    53  H    0.011376
    54  H    0.043548
    55  H    0.018037
    56  H    0.018274
    57  H    0.005959
    58  H    0.027002
    59  H    0.039754
    60  H    0.037475
    61  H    0.035740
    62  H    0.031502
    63  H    0.016779
    64  H    0.009586
    65  H    0.023459
    66  H    0.012490
    67  H    0.004912
    68  H    0.006793
    69  H    0.004856
    70  H    0.008945
    71  H    0.018743
    72  H    0.028473
    73  H    0.047110
    74  H    0.009368
    75  H    0.046115
    76  H    0.035278
    77  H    0.042931
    78  H    0.046561
    79  H    0.052703
    80  Mg   0.837985
    81  C   -0.016809
    82  C   -0.087394
    83  C   -0.045775
    84  C   -0.064965
    85  N   -0.254685
    86  C   -0.049450
    87  C   -0.015183
    88  C   -0.090486
    89  C    0.045708
    90  C    0.114094
    91  C    0.062452
    92  C   -0.077853
    93  H    0.034323
    94  N   -0.423559
    95  C    0.162840
    96  C   -0.174285
    97  C   -0.008157
    98  C    0.152351
    99  C    0.099280
   100  C    0.015384
   101  O   -0.253726
   102  C    0.061277
   103  N   -0.350061
   104  C    0.037606
   105  C   -0.019769
   106  C   -0.034811
   107  C    0.088897
   108  C    0.073790
   109  C    0.034820
   110  C   -0.007609
   111  N   -0.324070
   112  C    0.078436
   113  C   -0.163270
   114  C    0.002232
   115  C    0.096177
   116  C    0.131504
   117  C    0.042226
   118  O   -0.188211
   119  C    0.000987
   120  C    0.211248
   121  O   -0.251214
   122  O   -0.305458
   123  C    0.152112
   124  H   -0.018510
   125  H   -0.016109
   126  H   -0.040708
   127  H   -0.000275
   128  H   -0.004216
   129  H    0.022541
   130  H    0.015159
   131  H    0.018534
   132  H    0.013705
   133  H    0.037298
   134  H    0.021400
   135  H    0.019748
   136  H    0.009409
   137  H    0.026131
   138  H    0.039473
   139  H    0.038208
   140  H    0.035890
   141  H    0.033928
   142  H    0.014091
   143  H    0.012389
   144  H    0.024449
   145  H    0.011623
   146  H    0.005515
   147  H    0.005854
   148  H    0.003606
   149  H    0.010721
   150  H    0.017725
   151  H    0.030321
   152  H    0.045753
   153  H    0.008322
   154  H    0.046934
   155  H    0.035352
   156  H    0.043720
   157  H    0.049753
   158  H    0.053333
 Sum of Mulliken charges =  -0.00000

 Dipole moment (field-independent basis, Debye):
    X=             -4.7113    Y=              1.3083    Z=              5.1056  Tot=              7.0693
 Quadrupole moment (field-independent basis, Debye-Ang):
   XX=           -518.8792   YY=           -502.0786   ZZ=           -497.3052
   XY=            -33.9693   XZ=              6.2403   YZ=             -3.6348

 Normal termination of Gaussian 16 at Sat Sep  4 11:48:13 2021.
