 Gaussian 16, Revision A.03,
 Gaussian 16:  ES64L-G16RevA.03 25-Dec-2016

 -----------------------------------
 #p cam-b3lyp/Def2SVP td=(nstates=5)
 -----------------------------------

 --------------------------------
 TDDFT excited states in gaussian
 --------------------------------
 Symbolic Z-matrix:
 Charge =  0 Multiplicity = 1

                         Standard orientation:
 ---------------------------------------------------------------------
 Center     Atomic      Atomic             Coordinates (Angstroms)
 Number     Number       Type             X           Y           Z
 ---------------------------------------------------------------------
      1         12           0       16.053201   -0.640951    0.385105
      2          6           0       16.284880    2.381818   -1.517895
      3          6           0       16.872904    1.203756    3.136143
      4          6           0       16.300204   -3.359082    1.999841
      5          6           0       16.374557   -2.381487   -2.617048
      6          7           0       16.496828    1.511824    0.648553
      7          6           0       16.493185    2.574330   -0.150345
      8          6           0       16.656646    3.922295    0.613622
      9          6           0       17.386250    3.381970    1.924242
     10          6           0       16.860756    1.957266    1.924901
     11          6           0       18.906325    3.344768    1.803871
     12          6           0       15.278744    4.582542    0.955956
     13          6           0       15.348690    6.044675    1.406097
     14          1           0       14.278203    6.949603    1.015569
     15          7           0       16.037285   -0.981099    2.331100
     16          6           0       16.386455   -0.110241    3.308327
     17          6           0       16.204444   -0.835079    4.584322
     18          6           0       15.903115   -2.257265    4.260776
     19          6           0       16.096492   -2.261761    2.833203
     20          6           0       16.272334   -0.170557    5.925050
     21          6           0       15.514403   -3.429113    5.105646
     22          8           0       15.526041   -4.625748    4.655640
     23          6           0       15.200658   -3.145576    6.517812
     24          7           0       16.521411   -2.593767   -0.184914
     25          6           0       16.501554   -3.594980    0.701743
     26          6           0       16.588785   -4.928832    0.021177
     27          6           0       16.427380   -4.639509   -1.540871
     28          6           0       16.353043   -3.093560   -1.488086
     29          6           0       17.881662   -5.720122    0.262708
     30          6           0       15.306476   -5.406822   -2.286005
     31          6           0       13.953264   -4.939864   -1.798291
     32          7           0       16.111534   -0.129723   -1.723517
     33          6           0       16.274319   -1.012540   -2.800926
     34          6           0       16.359683   -0.191760   -4.022852
     35          6           0       16.256586    1.120919   -3.566682
     36          6           0       16.142114    1.121406   -2.147109
     37          6           0       16.570858   -0.680806   -5.342198
     38          6           0       16.241257    2.524382   -3.946040
     39          8           0       16.210648    3.132996   -5.016621
     40          6           0       16.381475    3.402124   -2.624777
     41          6           0       15.332976    4.479504   -2.681446
     42          8           0       14.119650    4.195580   -2.613677
     43          8           0       15.922140    5.679649   -2.567085
     44          6           0       14.934509    6.791572   -2.586218
     45          1           0       17.350236    1.632280    4.019581
     46          1           0       16.280715   -4.326050    2.506823
     47          1           0       16.390286   -2.858959   -3.598489
     48          1           0       17.288034    4.655586    0.111568
     49          1           0       17.056256    3.907991    2.819858
     50          1           0       19.231363    3.574418    0.789212
     51          1           0       19.195030    2.329190    2.075428
     52          1           0       19.369656    3.996348    2.545183
     53          1           0       14.877845    4.128423    1.862111
     54          1           0       14.590254    4.496902    0.114544
     55          1           0       16.321124    6.484408    1.182676
     56          1           0       15.283112    6.070662    2.493858
     57          1           0       16.672393    0.839925    5.851401
     58          1           0       17.012468   -0.713581    6.512448
     59          1           0       15.311480   -0.185694    6.439698
     60          1           0       16.067295   -2.686326    6.993814
     61          1           0       14.857771   -4.087436    6.944635
     62          1           0       14.400100   -2.406477    6.560130
     63          1           0       15.784998   -5.587585    0.347364
     64          1           0       17.332310   -4.883803   -2.097734
     65          1           0       17.715661   -6.712642    0.682294
     66          1           0       18.525321   -5.124715    0.909612
     67          1           0       18.513023   -5.843657   -0.616803
     68          1           0       15.372697   -6.473687   -2.075385
     69          1           0       15.343656   -5.279437   -3.367967
     70          1           0       13.800805   -5.533791   -0.897825
     71          1           0       13.185714   -5.154981   -2.542470
     72          1           0       13.978300   -3.892345   -1.497355
     73          1           0       15.883122   -0.131335   -5.984902
     74          1           0       16.394205   -1.754639   -5.399460
     75          1           0       17.619401   -0.421751   -5.488158
     76          1           0       17.390750    3.812589   -2.626768
     77          1           0       15.228337    7.468091   -3.388852
     78          1           0       14.900179    7.193000   -1.573261
     79          1           0       13.921882    6.531573   -2.896582
     80         12           0      -15.686813   -0.704640   -0.203060
     81          6           0      -18.172354    1.767446    0.565028
     82          6           0      -13.592041    1.865893   -1.002344
     83          6           0      -13.633933   -2.854103   -1.313422
     84          6           0      -18.272859   -3.028138   -0.446859
     85          7           0      -15.961712    1.489935   -0.180033
     86          6           0      -16.928644    2.316418    0.189178
     87          6           0      -16.515455    3.812123    0.230517
     88          6           0      -15.292293    3.752490   -0.808320
     89          6           0      -14.894100    2.288428   -0.633288
     90          6           0      -15.718012    3.962375   -2.251949
     91          6           0      -16.037114    4.260910    1.655924
     92          6           0      -15.913251    5.774306    1.845767
     93          1           0      -16.248376    6.342072    3.148769
     94          7           0      -13.741795   -0.554445   -0.567618
     95          6           0      -13.051579    0.569937   -0.851631
     96          6           0      -11.658255    0.145392   -1.057950
     97          6           0      -11.612753   -1.341920   -1.034887
     98          6           0      -13.028480   -1.648304   -0.990888
     99          6           0      -10.519899    1.117272   -1.172139
    100          6           0      -10.482584   -2.325872   -1.062457
    101          8           0      -10.681594   -3.574133   -1.274784
    102          6           0       -9.127550   -1.771860   -0.926595
    103          7           0      -15.932809   -2.608233   -1.001921
    104          6           0      -14.870182   -3.351086   -1.358161
    105          6           0      -15.273489   -4.777792   -1.644962
    106          6           0      -16.796249   -4.897314   -1.171152
    107          6           0      -17.048175   -3.430959   -0.756741
    108          6           0      -15.158170   -5.221383   -3.103148
    109          6           0      -17.130129   -6.021161   -0.152256
    110          6           0      -16.474447   -5.724042    1.177110
    111          7           0      -17.810973   -0.714834    0.191789
    112          6           0      -18.709664   -1.786478   -0.003153
    113          6           0      -20.064282   -1.278595    0.296027
    114          6           0      -19.860715    0.070140    0.624611
    115          6           0      -18.479382    0.386084    0.516858
    116          6           0      -21.272694   -2.024488    0.198514
    117          6           0      -20.501605    1.301151    1.027805
    118          8           0      -21.643709    1.618432    1.357448
    119          6           0      -19.453157    2.487170    0.884627
    120          6           0      -19.501425    3.304645    2.146347
    121          8           0      -19.141585    2.814487    3.231185
    122          8           0      -19.755576    4.587655    1.830660
    123          6           0      -19.802230    5.440095    3.048444
    124          1           0      -12.933426    2.583120   -1.492970
    125          1           0      -12.954925   -3.661913   -1.596039
    126          1           0      -19.120350   -3.715635   -0.404705
    127          1           0      -17.271461    4.502214   -0.124459
    128          1           0      -14.481109    4.407580   -0.501395
    129          1           0      -16.792434    3.999532   -2.353801
    130          1           0      -15.314580    3.122718   -2.802647
    131          1           0      -15.233199    4.852847   -2.662266
    132          1           0      -14.987794    3.968221    1.790087
    133          1           0      -16.672516    3.852020    2.417300
    134          1           0      -16.411395    6.332473    1.043738
    135          1           0      -14.860407    6.050932    1.750870
    136          1           0      -10.879947    2.143058   -1.318909
    137          1           0       -9.989030    0.880296   -2.100507
    138          1           0       -9.820015    1.046231   -0.336803
    139          1           0       -8.948078   -1.056537   -1.725696
    140          1           0       -8.461925   -2.635918   -0.879585
    141          1           0       -9.070662   -1.213359    0.014383
    142          1           0      -14.671615   -5.472442   -1.071970
    143          1           0      -17.470364   -5.105647   -2.014957
    144          1           0      -14.510816   -6.108151   -3.239716
    145          1           0      -14.788793   -4.387633   -3.685365
    146          1           0      -16.103824   -5.444984   -3.594003
    147          1           0      -16.721378   -6.975426   -0.493524
    148          1           0      -18.194758   -6.163115    0.000769
    149          1           0      -15.456370   -6.100500    1.039736
    150          1           0      -16.984455   -6.249794    1.981797
    151          1           0      -16.405947   -4.643638    1.349399
    152          1           0      -21.856773   -1.787304    1.077772
    153          1           0      -21.076187   -3.092211    0.126923
    154          1           0      -21.677991   -1.618396   -0.732127
    155          1           0      -19.736295    3.070633    0.007716
    156          1           0      -20.770772    5.949604    3.044853
    157          1           0      -18.898292    6.076141    3.002684
    158          1           0      -19.829871    4.940041    4.009494
 ---------------------------------------------------------------------

 SCF Done:  E(RCAM-B3LYP) =  -4069.81178048     A.U. after   19 cycles

 Excitation energies and oscillator strengths:

 Excited State   1:      Singlet-A      1.6756 eV  739.94 nm  f=0.3820  <S**2>=0.000
     310 -> 316        0.17306
     312 -> 313        0.68371
     310 <- 316        0.10431
 This state for optimization and/or second-order correction.
 Total Energy, E(TD-HF/TD-DFT) =  -4069.75020309
 Copying the excited state density for this state as the 1-particle RhoCI density.

 Excited State   2:      Singlet-A      1.6799 eV  738.05 nm  f=0.3999  <S**2>=0.000
     309 -> 315        0.17498
     311 -> 314        0.68336
     309 <- 315        0.10479

 Excited State   3:      Singlet-A      2.1862 eV  567.11 nm  f=0.0952  <S**2>=0.000
     310 -> 313        0.64209
     312 -> 316       -0.27304

 Excited State   4:      Singlet-A      2.1926 eV  565.47 nm  f=0.1049  <S**2>=0.000
     309 -> 314        0.64033
     311 -> 315       -0.27818

 Excited State   5:      Singlet-A      3.0652 eV  404.49 nm  f=0.0000  <S**2>=0.000
     312 -> 314        0.70710

 The electronic state is 1-A.
 Alpha  occ. eigenvalues --  -46.87807 -46.87659 -19.26352 -19.26303 -19.19163
 Alpha  occ. eigenvalues --  -19.19038 -19.18823 -19.18707 -19.18183 -19.18052
 Alpha  occ. eigenvalues --  -14.42496 -14.42461 -14.41460 -14.41358 -14.39413
 Alpha  occ. eigenvalues --  -14.39350 -14.38599 -14.38598 -10.39097 -10.39093
 Alpha  occ. eigenvalues --  -10.35456 -10.35384 -10.34403 -10.34229 -10.31760
 Alpha  occ. eigenvalues --  -10.31700 -10.31417 -10.31308 -10.31021 -10.30920
 Alpha  occ. eigenvalues --  -10.30581 -10.30518 -10.30397 -10.30360 -10.30216
 Alpha  occ. eigenvalues --  -10.30139 -10.29931 -10.29894 -10.29641 -10.29434
 Alpha  occ. eigenvalues --  -10.29399 -10.29264 -10.28762 -10.28718 -10.28655
 Alpha  occ. eigenvalues --  -10.28555 -10.28403 -10.28376 -10.28139 -10.28129
 Alpha  occ. eigenvalues --  -10.28000 -10.27804 -10.27738 -10.27667 -10.27594
 Alpha  occ. eigenvalues --  -10.27517 -10.27509 -10.27490 -10.27483 -10.27464
 Alpha  occ. eigenvalues --  -10.27457 -10.27457 -10.27415 -10.27375 -10.27172
 Alpha  occ. eigenvalues --  -10.27051 -10.26720 -10.26693 -10.26416 -10.26401
 Alpha  occ. eigenvalues --  -10.26245 -10.26191 -10.26138 -10.26029 -10.26023
 Alpha  occ. eigenvalues --  -10.25933 -10.25855 -10.25853 -10.25442 -10.25396
 Alpha  occ. eigenvalues --  -10.24872 -10.24844 -10.24798 -10.24732 -10.24695
 Alpha  occ. eigenvalues --  -10.24688  -3.16550  -3.16409  -1.91432  -1.91292
 Alpha  occ. eigenvalues --   -1.91018  -1.90880  -1.90860  -1.90717  -1.16651
 Alpha  occ. eigenvalues --   -1.16646  -1.08660  -1.08641  -1.07224  -1.06959
 Alpha  occ. eigenvalues --   -1.06948  -1.06660  -1.04592  -1.04494  -1.03771
 Alpha  occ. eigenvalues --   -1.03662  -1.03244  -1.03038  -1.02422  -1.02110
 Alpha  occ. eigenvalues --   -0.91987  -0.91984  -0.89529  -0.89494  -0.89200
 Alpha  occ. eigenvalues --   -0.89150  -0.88296  -0.88220  -0.87882  -0.87794
 Alpha  occ. eigenvalues --   -0.87684  -0.87683  -0.87283  -0.87114  -0.84998
 Alpha  occ. eigenvalues --   -0.84994  -0.83946  -0.83876  -0.82975  -0.82925
 Alpha  occ. eigenvalues --   -0.82660  -0.82650  -0.81600  -0.81597  -0.80608
 Alpha  occ. eigenvalues --   -0.80442  -0.78807  -0.78632  -0.77229  -0.77143
 Alpha  occ. eigenvalues --   -0.76947  -0.76898  -0.75936  -0.75838  -0.74908
 Alpha  occ. eigenvalues --   -0.74802  -0.72785  -0.72698  -0.71683  -0.71580
 Alpha  occ. eigenvalues --   -0.69916  -0.69757  -0.68885  -0.68826  -0.67652
 Alpha  occ. eigenvalues --   -0.67600  -0.67232  -0.67197  -0.65299  -0.65271
 Alpha  occ. eigenvalues --   -0.64866  -0.64770  -0.64653  -0.64633  -0.64279
 Alpha  occ. eigenvalues --   -0.64203  -0.62312  -0.62280  -0.60451  -0.60336
 Alpha  occ. eigenvalues --   -0.59816  -0.59795  -0.58998  -0.58992  -0.58515
 Alpha  occ. eigenvalues --   -0.58425  -0.57598  -0.57555  -0.57319  -0.57235
 Alpha  occ. eigenvalues --   -0.56321  -0.56203  -0.55994  -0.55887  -0.55530
 Alpha  occ. eigenvalues --   -0.55449  -0.55351  -0.55248  -0.54536  -0.54488
 Alpha  occ. eigenvalues --   -0.53911  -0.53907  -0.53309  -0.53233  -0.53226
 Alpha  occ. eigenvalues --   -0.53140  -0.52927  -0.52902  -0.52766  -0.52662
 Alpha  occ. eigenvalues --   -0.52447  -0.52401  -0.51927  -0.51886  -0.51656
 Alpha  occ. eigenvalues --   -0.51629  -0.51208  -0.51201  -0.50580  -0.50468
 Alpha  occ. eigenvalues --   -0.50040  -0.49977  -0.49928  -0.49865  -0.49526
 Alpha  occ. eigenvalues --   -0.49484  -0.49226  -0.49200  -0.49108  -0.49104
 Alpha  occ. eigenvalues --   -0.48605  -0.48558  -0.48471  -0.48456  -0.48376
 Alpha  occ. eigenvalues --   -0.48333  -0.47706  -0.47592  -0.47307  -0.47115
 Alpha  occ. eigenvalues --   -0.46808  -0.46708  -0.46568  -0.46552  -0.46370
 Alpha  occ. eigenvalues --   -0.46269  -0.46174  -0.46086  -0.45835  -0.45823
 Alpha  occ. eigenvalues --   -0.45210  -0.45208  -0.44590  -0.44517  -0.44514
 Alpha  occ. eigenvalues --   -0.44475  -0.44155  -0.44126  -0.44100  -0.44076
 Alpha  occ. eigenvalues --   -0.44031  -0.43935  -0.43554  -0.43508  -0.43397
 Alpha  occ. eigenvalues --   -0.43385  -0.43038  -0.42931  -0.42902  -0.42713
 Alpha  occ. eigenvalues --   -0.42666  -0.42552  -0.42020  -0.41964  -0.41715
 Alpha  occ. eigenvalues --   -0.41669  -0.41546  -0.41458  -0.41152  -0.40988
 Alpha  occ. eigenvalues --   -0.40880  -0.40832  -0.40719  -0.40695  -0.40581
 Alpha  occ. eigenvalues --   -0.40493  -0.40248  -0.40225  -0.39449  -0.39426
 Alpha  occ. eigenvalues --   -0.38478  -0.38350  -0.37762  -0.37653  -0.37330
 Alpha  occ. eigenvalues --   -0.37276  -0.37265  -0.37198  -0.36773  -0.36728
 Alpha  occ. eigenvalues --   -0.36217  -0.36205  -0.34297  -0.34253  -0.33864
 Alpha  occ. eigenvalues --   -0.33787  -0.33197  -0.33175  -0.31352  -0.31266
 Alpha  occ. eigenvalues --   -0.31046  -0.30971  -0.30042  -0.29957  -0.29459
 Alpha  occ. eigenvalues --   -0.29333  -0.29324  -0.29211  -0.24091  -0.24035
 Alpha  occ. eigenvalues --   -0.21138  -0.21116
 Alpha virt. eigenvalues --   -0.08790  -0.08785  -0.01760  -0.01682  -0.00068
 Alpha virt. eigenvalues --   -0.00025   0.02189   0.02207   0.03109   0.03230
 Alpha virt. eigenvalues --    0.04706   0.04730   0.05081   0.05163   0.06163

 Mulliken charges:
               1
     1  Mg   0.838683
     2  C   -0.002991
     3  C   -0.094105
     4  C   -0.045855
     5  C   -0.063943
     6  N   -0.256765
     7  C   -0.052489
     8  C   -0.014008
     9  C   -0.086991
    10  C    0.046294
    11  C    0.104805
    12  C    0.053474
    13  C   -0.071782
    14  H    0.036031
    15  N   -0.433139
    16  C    0.168429
    17  C   -0.177147
    18  C   -0.003979
    19  C    0.148722
    20  C    0.110180
    21  C    0.012308
    22  O   -0.249579
    23  C    0.062464
    24  N   -0.341121
    25  C    0.041238
    26  C   -0.028168
    27  C   -0.023990
    28  C    0.074832
    29  C    0.076158
    30  C    0.035131
    31  C   -0.004512
    32  N   -0.310449
    33  C    0.080375
    34  C   -0.169734
    35  C    0.008343
    36  C    0.082971
    37  C    0.127317
    38  C    0.046095
    39  O   -0.188503
    40  C   -0.005341
    41  C    0.212871
    42  O   -0.257151
    43  O   -0.304778
    44  C    0.157719
    45  H   -0.017584
    46  H   -0.016794
    47  H   -0.041488
    48  H    0.000926
    49  H   -0.004034
    50  H    0.025472
    51  H    0.016471
    52  H    0.016672
    53  H    0.011206
    54  H    0.044079
    55  H    0.017889
    56  H    0.017967
    57  H    0.005873
    58  H    0.026864
    59  H    0.039572
    60  H    0.037363
    61  H    0.035711
    62  H    0.031500
    63  H    0.016587
    64  H    0.009471
    65  H    0.023254
    66  H    0.012551
    67  H    0.004767
    68  H    0.006404
    69  H    0.004720
    70  H    0.008815
    71  H    0.018143
    72  H    0.028949
    73  H    0.047521
    74  H    0.009121
    75  H    0.046012
    76  H    0.035155
    77  H    0.042922
    78  H    0.046403
    79  H    0.053616
    80  Mg   0.837884
    81  C   -0.016843
    82  C   -0.087795
    83  C   -0.045507
    84  C   -0.064877
    85  N   -0.254593
    86  C   -0.049846
    87  C   -0.015130
    88  C   -0.090477
    89  C    0.045766
    90  C    0.114350
    91  C    0.062534
    92  C   -0.077898
    93  H    0.034861
    94  N   -0.423516
    95  C    0.162932
    96  C   -0.174561
    97  C   -0.007763
    98  C    0.152132
    99  C    0.099332
   100  C    0.015595
   101  O   -0.253142
   102  C    0.061200
   103  N   -0.350080
   104  C    0.037531
   105  C   -0.019856
   106  C   -0.034790
   107  C    0.088895
   108  C    0.073641
   109  C    0.034727
   110  C   -0.007675
   111  N   -0.324087
   112  C    0.078413
   113  C   -0.163174
   114  C    0.002221
   115  C    0.096175
   116  C    0.131496
   117  C    0.042361
   118  O   -0.187932
   119  C    0.000918
   120  C    0.211255
   121  O   -0.251034
   122  O   -0.305625
   123  C    0.152032
   124  H   -0.019580
   125  H   -0.015519
   126  H   -0.040488
   127  H   -0.000658
   128  H   -0.004290
   129  H    0.022440
   130  H    0.014454
   131  H    0.016335
   132  H    0.013931
   133  H    0.037655
   134  H    0.020790
   135  H    0.019624
   136  H    0.008797
   137  H    0.026282
   138  H    0.039870
   139  H    0.038350
   140  H    0.036508
   141  H    0.033890
   142  H    0.014424
   143  H    0.012400
   144  H    0.025186
   145  H    0.011672
   146  H    0.005663
   147  H    0.006274
   148  H    0.003624
   149  H    0.010956
   150  H    0.017912
   151  H    0.030097
   152  H    0.045972
   153  H    0.008496
   154  H    0.046911
   155  H    0.035011
   156  H    0.043892
   157  H    0.049507
   158  H    0.053563
 Sum of Mulliken charges =  -0.00000

 Dipole moment (field-independent basis, Debye):
    X=              5.2121    Y=              2.8552    Z=              1.8778  Tot=              6.2325
 Quadrupole moment (field-independent basis, Debye-Ang):
   XX=           -569.7352   YY=           -471.3082   ZZ=           -517.2197
   XY=              7.2969   XZ=            110.6452   YZ=             34.3579

 Normal termination of Gaussian 16 at Sun Sep 12 09:25:37 2021.
