 Gaussian 16, Revision A.03,
 Gaussian 16:  ES64L-G16RevA.03 25-Dec-2016

 -----------------------------------
 #p cam-b3lyp/Def2SVP td=(nstates=5)
 -----------------------------------

 --------------------------------
 TDDFT excited states in gaussian
 --------------------------------
 Symbolic Z-matrix:
 Charge =  0 Multiplicity = 1

                         Standard orientation:
 ---------------------------------------------------------------------
 Center     Atomic      Atomic             Coordinates (Angstroms)
 Number     Number       Type             X           Y           Z
 ---------------------------------------------------------------------
      1         12           0       -7.845581    0.666861    0.384954
      2          6           0       -8.173970   -2.227672   -1.694963
      3          6           0       -8.571697   -1.344700    3.043797
      4          6           0       -8.009014    3.278134    2.176926
      5          6           0       -8.270180    2.596239   -2.486087
      6          7           0       -8.294944   -1.496011    0.528850
      7          6           0       -8.330415   -2.505618   -0.335214
      8          6           0       -8.474274   -3.898546    0.347742
      9          6           0       -9.148264   -3.438867    1.717570
     10          6           0       -8.612353   -2.019784    1.787755
     11          6           0      -10.671543   -3.386337    1.659585
     12          6           0       -7.089153   -4.586230    0.593226
     13          6           0       -7.152635   -6.073633    0.952330
     14          1           0       -6.105029   -6.957370    0.463576
     15          7           0       -7.751457    0.882598    2.346445
     16          6           0       -8.068973   -0.046796    3.279557
     17          6           0       -7.832011    0.594569    4.590733
     18          6           0       -7.532710    2.032882    4.346256
     19          6           0       -7.781390    2.129057    2.930528
     20          6           0       -7.852772   -0.153438    5.888347
     21          6           0       -7.102577    3.146686    5.247676
     22          8           0       -7.122623    4.369538    4.875109
     23          6           0       -6.736336    2.772403    6.625654
     24          7           0       -8.320773    2.654311   -0.041507
     25          6           0       -8.258874    3.597054    0.905271
     26          6           0       -8.362376    4.971877    0.314436
     27          6           0       -8.264008    4.781564   -1.267922
     28          6           0       -8.199401    3.235026   -1.316041
     29          6           0       -9.638851    5.752810    0.656149
     30          6           0       -7.167129    5.588940   -2.006446
     31          6           0       -5.799561    5.085041   -1.602784
     32          7           0       -7.989707    0.290942   -1.747875
     33          6           0       -8.187549    1.241247   -2.760027
     34          6           0       -8.326566    0.500206   -4.027151
     35          6           0       -8.215773   -0.839312   -3.659372
     36          6           0       -8.046216   -0.930575   -2.248269
     37          6           0       -8.585150    1.073160   -5.303588
     38          6           0       -8.225844   -2.215897   -4.127099
     39          8           0       -8.241487   -2.755411   -5.234426
     40          6           0       -8.321250   -3.175085   -2.859549
     41          6           0       -7.283946   -4.252023   -3.025421
     42          8           0       -6.066784   -3.979173   -2.987523
     43          8           0       -7.877304   -5.453988   -2.964193
     44          6           0       -6.899623   -6.567473   -3.092430
     45          1           0       -9.017565   -1.826046    3.916407
     46          1           0       -7.962502    4.210825    2.742931
     47          1           0       -8.320424    3.135176   -3.433967
     48          1           0       -9.130242   -4.595227   -0.174528
     49          1           0       -8.787706   -4.022405    2.564448
     50          1           0      -11.037507   -3.549396    0.645976
     51          1           0      -10.941765   -2.388605    2.005999
     52          1           0      -11.110638   -4.081328    2.375798
     53          1           0       -6.649903   -4.192653    1.509860
     54          1           0       -6.433259   -4.450818   -0.267467
     55          1           0       -8.136324   -6.493315    0.739891
     56          1           0       -7.045023   -6.169012    2.032850
     57          1           0       -8.263043   -1.155145    5.766663
     58          1           0       -8.565375    0.354938    6.537546
     59          1           0       -6.872553   -0.175933    6.364788
     60          1           0       -7.587274    2.288265    7.105305
     61          1           0       -6.369986    3.683480    7.097433
     62          1           0       -5.940367    2.028034    6.589639
     63          1           0       -7.541546    5.604466    0.649841
     64          1           0       -9.188021    5.065359   -1.772239
     65          1           0       -9.449144    6.715806    1.130864
     66          1           0      -10.261374    5.120796    1.288854
     67          1           0      -10.302966    5.935194   -0.188306
     68          1           0       -7.217020    6.640591   -1.726292
     69          1           0       -7.247301    5.530746   -3.092005
     70          1           0       -5.607717    5.619771   -0.673219
     71          1           0       -5.059908    5.343085   -2.361426
     72          1           0       -5.820824    4.020659   -1.367995
     73          1           0       -7.927102    0.562132   -6.006292
     74          1           0       -8.402718    2.147546   -5.299670
     75          1           0       -9.640508    0.829255   -5.424359
     76          1           0       -9.332924   -3.579440   -2.847874
     77          1           0       -7.229549   -7.190123   -3.924109
     78          1           0       -6.828990   -7.032619   -2.109040
     79          1           0       -5.897882   -6.293450   -3.425246
     80         12           0        8.010778    0.640802   -0.526157
     81          6           0        7.901882   -2.474652    1.251805
     82          6           0        7.306361    2.183077    2.433543
     83          6           0        7.654572    3.350985   -2.137200
     84          6           0        7.569638   -1.180164   -3.464716
     85          7           0        7.670840   -0.151169    1.510876
     86          6           0        7.715549   -1.347091    2.078438
     87          6           0        7.631535   -1.327036    3.628308
     88          6           0        6.883513    0.082294    3.810359
     89          6           0        7.338702    0.768558    2.524085
     90          6           0        5.368487   -0.032192    3.780277
     91          6           0        9.047832   -1.317067    4.303596
     92          6           0        9.046074   -1.608536    5.805863
     93          1           0       10.160801   -2.365016    6.369407
     94          7           0        8.034430    2.522356    0.104535
     95          6           0        7.743636    2.968656    1.344511
     96          6           0        7.887906    4.431653    1.289651
     97          6           0        8.126953    4.826698   -0.125095
     98          6           0        7.922761    3.556225   -0.791650
     99          6           0        7.874585    5.297179    2.516074
    100          6           0        8.468603    6.134503   -0.772497
    101          8           0        8.396241    6.296676   -2.041863
    102          6           0        8.800117    7.246254    0.130600
    103          7           0        7.451905    1.053206   -2.485725
    104          6           0        7.427671    2.316157   -2.946494
    105          6           0        7.266260    2.346138   -4.447637
    106          6           0        7.430540    0.829544   -4.927772
    107          6           0        7.576055    0.142896   -3.552011
    108          6           0        5.938895    2.901906   -4.963008
    109          6           0        8.506155    0.547247   -6.012226
    110          6           0        9.886819    0.783187   -5.443445
    111          7           0        7.960300   -1.450250   -1.067424
    112          6           0        7.737063   -1.993826   -2.351463
    113          6           0        7.679051   -3.462056   -2.198638
    114          6           0        7.850968   -3.671238   -0.821986
    115          6           0        7.985029   -2.420592   -0.160608
    116          6           0        7.441423   -4.398503   -3.243967
    117          6           0        7.938875   -4.665152    0.223532
    118          8           0        7.980427   -5.894457    0.252195
    119          6           0        7.849208   -3.929045    1.629406
    120          6           0        8.947793   -4.465653    2.505585
    121          8           0       10.140816   -4.262079    2.219460
    122          8           0        8.411044   -4.939849    3.644622
    123          6           0        9.462516   -5.473076    4.551203
    124          1           0        6.865695    2.745727    3.257025
    125          1           0        7.632278    4.250919   -2.756152
    126          1           0        7.533018   -1.823212   -4.346661
    127          1           0        7.036760   -2.122341    4.061317
    128          1           0        7.255456    0.617409    4.680230
    129          1           0        5.044863   -1.029639    3.522353
    130          1           0        5.034518    0.678350    3.035537
    131          1           0        4.945919    0.306301    4.730638
    132          1           0        9.433258   -0.289390    4.312049
    133          1           0        9.712577   -1.995193    3.804714
    134          1           0        8.089280   -2.024792    6.143851
    135          1           0        9.130894   -0.660919    6.343301
    136          1           0        7.515697    4.745615    3.393783
    137          1           0        7.116725    6.071086    2.353051
    138          1           0        8.836969    5.778627    2.702314
    139          1           0        7.962849    7.429968    0.799704
    140          1           0        9.102300    8.070144   -0.518833
    141          1           0        9.645579    6.945880    0.759558
    142          1           0        8.041387    2.946411   -4.908023
    143          1           0        6.504169    0.441512   -5.376234
    144          1           0        6.062639    3.756898   -5.654201
    145          1           0        5.334088    3.185413   -4.111915
    146          1           0        5.301091    2.179300   -5.469218
    147          1           0        8.392175    1.241454   -6.848431
    148          1           0        8.456467   -0.457408   -6.418653
    149          1           0       10.014439    1.864972   -5.546076
    150          1           0       10.635466    0.241188   -6.017732
    151          1           0        9.917108    0.547750   -4.373259
    152          1           0        8.140780   -5.211125   -3.098925
    153          1           0        7.561148   -3.939945   -4.223343
    154          1           0        6.400229   -4.660692   -3.037997
    155          1           0        6.860312   -4.131321    2.042624
    156          1           0        9.189900   -6.507262    4.783212
    157          1           0        9.514363   -4.763652    5.398412
    158          1           0       10.457740   -5.603297    4.142518
 ---------------------------------------------------------------------

 SCF Done:  E(RCAM-B3LYP) =  -4069.81180068     A.U. after   19 cycles

 Excitation energies and oscillator strengths:

 Excited State   1:      Singlet-A      1.6735 eV  740.85 nm  f=0.2540  <S**2>=0.000
     310 -> 316        0.15265
     311 -> 313       -0.32356
     312 -> 314        0.60501
 This state for optimization and/or second-order correction.
 Total Energy, E(TD-HF/TD-DFT) =  -4069.75029958
 Copying the excited state density for this state as the 1-particle RhoCI density.

 Excited State   2:      Singlet-A      1.6811 eV  737.52 nm  f=0.4955  <S**2>=0.000
     309 -> 315        0.15492
     311 -> 313        0.60455
     312 -> 314        0.32343

 Excited State   3:      Singlet-A      2.1859 eV  567.21 nm  f=0.0956  <S**2>=0.000
     310 -> 314        0.64069
     312 -> 316       -0.27231

 Excited State   4:      Singlet-A      2.1921 eV  565.59 nm  f=0.1034  <S**2>=0.000
     309 -> 313        0.63893
     311 -> 315       -0.27719

 Excited State   5:      Singlet-A      2.7656 eV  448.30 nm  f=0.0000  <S**2>=0.000
     312 -> 313        0.70710

 The electronic state is 1-A.
 Alpha  occ. eigenvalues --  -46.87834 -46.87592 -19.26322 -19.26288 -19.19126
 Alpha  occ. eigenvalues --  -19.19030 -19.18873 -19.18653 -19.18199 -19.17994
 Alpha  occ. eigenvalues --  -14.42485 -14.42433 -14.41487 -14.41287 -14.39443
 Alpha  occ. eigenvalues --  -14.39285 -14.38623 -14.38532 -10.39091 -10.39054
 Alpha  occ. eigenvalues --  -10.35508 -10.35331 -10.34417 -10.34172 -10.31741
 Alpha  occ. eigenvalues --  -10.31671 -10.31435 -10.31247 -10.30964 -10.30943
 Alpha  occ. eigenvalues --  -10.30605 -10.30547 -10.30329 -10.30294 -10.30249
 Alpha  occ. eigenvalues --  -10.30066 -10.29958 -10.29819 -10.29671 -10.29367
 Alpha  occ. eigenvalues --  -10.29334 -10.29296 -10.28769 -10.28676 -10.28636
 Alpha  occ. eigenvalues --  -10.28536 -10.28402 -10.28341 -10.28139 -10.28093
 Alpha  occ. eigenvalues --  -10.27934 -10.27831 -10.27762 -10.27627 -10.27605
 Alpha  occ. eigenvalues --  -10.27541 -10.27531 -10.27490 -10.27437 -10.27429
 Alpha  occ. eigenvalues --  -10.27420 -10.27409 -10.27400 -10.27289 -10.27181
 Alpha  occ. eigenvalues --  -10.26999 -10.26717 -10.26660 -10.26486 -10.26361
 Alpha  occ. eigenvalues --  -10.26255 -10.26225 -10.26057 -10.26054 -10.25978
 Alpha  occ. eigenvalues --  -10.25875 -10.25860 -10.25767 -10.25475 -10.25294
 Alpha  occ. eigenvalues --  -10.24869 -10.24827 -10.24806 -10.24732 -10.24657
 Alpha  occ. eigenvalues --  -10.24620  -3.16577  -3.16342  -1.91459  -1.91224
 Alpha  occ. eigenvalues --   -1.91045  -1.90888  -1.90813  -1.90650  -1.16638
 Alpha  occ. eigenvalues --   -1.16614  -1.08654  -1.08603  -1.07276  -1.06911
 Alpha  occ. eigenvalues --   -1.06905  -1.06652  -1.04615  -1.04432  -1.03798
 Alpha  occ. eigenvalues --   -1.03596  -1.03272  -1.02968  -1.02449  -1.02042
 Alpha  occ. eigenvalues --   -0.92004  -0.91925  -0.89558  -0.89421  -0.89211
 Alpha  occ. eigenvalues --   -0.89103  -0.88326  -0.88142  -0.87905  -0.87722
 Alpha  occ. eigenvalues --   -0.87706  -0.87620  -0.87322  -0.87058  -0.85009
 Alpha  occ. eigenvalues --   -0.84948  -0.83974  -0.83799  -0.83022  -0.82868
 Alpha  occ. eigenvalues --   -0.82679  -0.82599  -0.81606  -0.81547  -0.80627
 Alpha  occ. eigenvalues --   -0.80387  -0.78840  -0.78570  -0.77252  -0.77085
 Alpha  occ. eigenvalues --   -0.76957  -0.76843  -0.75947  -0.75787  -0.74933
 Alpha  occ. eigenvalues --   -0.74727  -0.72810  -0.72631  -0.71705  -0.71515
 Alpha  occ. eigenvalues --   -0.69947  -0.69679  -0.68903  -0.68774  -0.67678
 Alpha  occ. eigenvalues --   -0.67539  -0.67248  -0.67152  -0.65312  -0.65221
 Alpha  occ. eigenvalues --   -0.64884  -0.64707  -0.64649  -0.64598  -0.64307
 Alpha  occ. eigenvalues --   -0.64130  -0.62317  -0.62230  -0.60488  -0.60273
 Alpha  occ. eigenvalues --   -0.59832  -0.59742  -0.59021  -0.58927  -0.58537
 Alpha  occ. eigenvalues --   -0.58363  -0.57609  -0.57502  -0.57345  -0.57169
 Alpha  occ. eigenvalues --   -0.56346  -0.56141  -0.55993  -0.55843  -0.55561
 Alpha  occ. eigenvalues --   -0.55398  -0.55371  -0.55180  -0.54549  -0.54426
 Alpha  occ. eigenvalues --   -0.53918  -0.53865  -0.53339  -0.53255  -0.53163
 Alpha  occ. eigenvalues --   -0.53088  -0.52943  -0.52850  -0.52799  -0.52613
 Alpha  occ. eigenvalues --   -0.52478  -0.52326  -0.51948  -0.51809  -0.51646
 Alpha  occ. eigenvalues --   -0.51610  -0.51226  -0.51141  -0.50628  -0.50415
 Alpha  occ. eigenvalues --   -0.50071  -0.49963  -0.49922  -0.49792  -0.49549
 Alpha  occ. eigenvalues --   -0.49432  -0.49249  -0.49147  -0.49121  -0.49050
 Alpha  occ. eigenvalues --   -0.48619  -0.48506  -0.48504  -0.48482  -0.48302
 Alpha  occ. eigenvalues --   -0.48280  -0.47729  -0.47536  -0.47334  -0.47053
 Alpha  occ. eigenvalues --   -0.46831  -0.46644  -0.46580  -0.46503  -0.46395
 Alpha  occ. eigenvalues --   -0.46203  -0.46194  -0.46016  -0.45845  -0.45764
 Alpha  occ. eigenvalues --   -0.45239  -0.45132  -0.44607  -0.44547  -0.44459
 Alpha  occ. eigenvalues --   -0.44420  -0.44183  -0.44115  -0.44071  -0.44053
 Alpha  occ. eigenvalues --   -0.44013  -0.43884  -0.43518  -0.43503  -0.43417
 Alpha  occ. eigenvalues --   -0.43327  -0.43059  -0.42885  -0.42840  -0.42726
 Alpha  occ. eigenvalues --   -0.42678  -0.42481  -0.42042  -0.41901  -0.41737
 Alpha  occ. eigenvalues --   -0.41608  -0.41559  -0.41405  -0.41173  -0.40927
 Alpha  occ. eigenvalues --   -0.40901  -0.40871  -0.40668  -0.40644  -0.40606
 Alpha  occ. eigenvalues --   -0.40420  -0.40253  -0.40187  -0.39481  -0.39347
 Alpha  occ. eigenvalues --   -0.38504  -0.38276  -0.37768  -0.37610  -0.37357
 Alpha  occ. eigenvalues --   -0.37290  -0.37196  -0.37144  -0.36731  -0.36728
 Alpha  occ. eigenvalues --   -0.36218  -0.36153  -0.34322  -0.34187  -0.33821
 Alpha  occ. eigenvalues --   -0.33786  -0.33221  -0.33108  -0.31402  -0.31211
 Alpha  occ. eigenvalues --   -0.31072  -0.30908  -0.30057  -0.29899  -0.29492
 Alpha  occ. eigenvalues --   -0.29359  -0.29262  -0.29144  -0.24116  -0.23968
 Alpha  occ. eigenvalues --   -0.21165  -0.21049
 Alpha virt. eigenvalues --   -0.08813  -0.08725  -0.01789  -0.01615  -0.00102
 Alpha virt. eigenvalues --    0.00032   0.02165   0.02272   0.03075   0.03287
 Alpha virt. eigenvalues --    0.04690   0.04789   0.05085   0.05204   0.06166

 Mulliken charges:
               1
     1  Mg   0.838539
     2  C   -0.002937
     3  C   -0.094091
     4  C   -0.045971
     5  C   -0.063968
     6  N   -0.256798
     7  C   -0.052349
     8  C   -0.014012
     9  C   -0.086982
    10  C    0.046299
    11  C    0.104797
    12  C    0.053457
    13  C   -0.072024
    14  H    0.036709
    15  N   -0.433092
    16  C    0.168320
    17  C   -0.177230
    18  C   -0.004176
    19  C    0.148650
    20  C    0.110179
    21  C    0.012062
    22  O   -0.249800
    23  C    0.062590
    24  N   -0.341124
    25  C    0.041241
    26  C   -0.028154
    27  C   -0.024004
    28  C    0.074878
    29  C    0.076175
    30  C    0.035128
    31  C   -0.004496
    32  N   -0.310488
    33  C    0.080447
    34  C   -0.169685
    35  C    0.008432
    36  C    0.083000
    37  C    0.127304
    38  C    0.046158
    39  O   -0.188230
    40  C   -0.005299
    41  C    0.212911
    42  O   -0.257086
    43  O   -0.304815
    44  C    0.157602
    45  H   -0.017559
    46  H   -0.016975
    47  H   -0.041433
    48  H    0.001069
    49  H   -0.003965
    50  H    0.025530
    51  H    0.016383
    52  H    0.016751
    53  H    0.011088
    54  H    0.044190
    55  H    0.017907
    56  H    0.017947
    57  H    0.006002
    58  H    0.026808
    59  H    0.039210
    60  H    0.037505
    61  H    0.035296
    62  H    0.031132
    63  H    0.016384
    64  H    0.009548
    65  H    0.023132
    66  H    0.012578
    67  H    0.004830
    68  H    0.006384
    69  H    0.004842
    70  H    0.008582
    71  H    0.018245
    72  H    0.028929
    73  H    0.047622
    74  H    0.009132
    75  H    0.046116
    76  H    0.035254
    77  H    0.043076
    78  H    0.046544
    79  H    0.053847
    80  Mg   0.837960
    81  C   -0.016902
    82  C   -0.087855
    83  C   -0.045398
    84  C   -0.064452
    85  N   -0.254543
    86  C   -0.049803
    87  C   -0.015074
    88  C   -0.090520
    89  C    0.045757
    90  C    0.114388
    91  C    0.062564
    92  C   -0.077743
    93  H    0.034658
    94  N   -0.423484
    95  C    0.162931
    96  C   -0.174643
    97  C   -0.007811
    98  C    0.152107
    99  C    0.099387
   100  C    0.015549
   101  O   -0.253182
   102  C    0.061210
   103  N   -0.350003
   104  C    0.037652
   105  C   -0.019931
   106  C   -0.034934
   107  C    0.088939
   108  C    0.073488
   109  C    0.034720
   110  C   -0.007664
   111  N   -0.324144
   112  C    0.078445
   113  C   -0.162890
   114  C    0.002241
   115  C    0.096269
   116  C    0.131467
   117  C    0.042440
   118  O   -0.188089
   119  C    0.000875
   120  C    0.211202
   121  O   -0.251050
   122  O   -0.305687
   123  C    0.152101
   124  H   -0.019779
   125  H   -0.015535
   126  H   -0.040142
   127  H   -0.000904
   128  H   -0.004555
   129  H    0.022447
   130  H    0.014833
   131  H    0.015859
   132  H    0.013936
   133  H    0.037657
   134  H    0.020544
   135  H    0.019509
   136  H    0.008638
   137  H    0.026199
   138  H    0.039615
   139  H    0.038276
   140  H    0.036290
   141  H    0.033783
   142  H    0.014255
   143  H    0.013077
   144  H    0.024989
   145  H    0.011830
   146  H    0.006364
   147  H    0.006344
   148  H    0.003790
   149  H    0.010844
   150  H    0.017821
   151  H    0.029970
   152  H    0.045781
   153  H    0.008669
   154  H    0.047505
   155  H    0.034947
   156  H    0.043681
   157  H    0.049358
   158  H    0.053558
 Sum of Mulliken charges =  -0.00000

 Dipole moment (field-independent basis, Debye):
    X=             -3.6519    Y=              1.9917    Z=              6.6883  Tot=              7.8763
 Quadrupole moment (field-independent basis, Debye-Ang):
   XX=           -518.4306   YY=           -521.1789   ZZ=           -477.7474
   XY=             36.6403   XZ=             -8.8587   YZ=            -20.2247

 Normal termination of Gaussian 16 at Sat Sep  4 14:45:57 2021.
