 Gaussian 16, Revision A.03,
 Gaussian 16:  ES64L-G16RevA.03 25-Dec-2016

 -----------------------------------
 #p cam-b3lyp/Def2SVP td=(nstates=5)
 -----------------------------------

 --------------------------------
 TDDFT excited states in gaussian
 --------------------------------
 Symbolic Z-matrix:
 Charge =  0 Multiplicity = 1

                         Standard orientation:
 ---------------------------------------------------------------------
 Center     Atomic      Atomic             Coordinates (Angstroms)
 Number     Number       Type             X           Y           Z
 ---------------------------------------------------------------------
      1         12           0       -5.007233   -0.977273    0.055322
      2          6           0       -5.382799    1.977605    2.040230
      3          6           0       -6.026867    0.872807   -2.624345
      4          6           0       -5.120851   -3.667054   -1.620621
      5          6           0       -5.125253   -2.805604    3.019936
      6          7           0       -5.599729    1.146651   -0.140999
      7          6           0       -5.643101    2.187918    0.684260
      8          6           0       -5.917514    3.539563   -0.040397
      9          6           0       -6.647634    2.982705   -1.343790
     10          6           0       -6.029319    1.596712   -1.395123
     11          6           0       -8.157772    2.841186   -1.182676
     12          6           0       -4.596840    4.298287   -0.403566
     13          6           0       -4.776397    5.762672   -0.814283
     14          1           0       -3.757180    6.727662   -0.430433
     15          7           0       -5.025515   -1.269677   -1.898396
     16          6           0       -5.459810   -0.401328   -2.843195
     17          6           0       -5.267488   -1.082134   -4.141731
     18          6           0       -4.863480   -2.488229   -3.862862
     19          6           0       -5.014496   -2.539254   -2.431091
     20          6           0       -5.418174   -0.392246   -5.462753
     21          6           0       -4.422887   -3.611263   -4.747624
     22          8           0       -4.342263   -4.816265   -4.328048
     23          6           0       -4.169822   -3.274218   -6.160211
     24          7           0       -5.328488   -2.969892    0.588144
     25          6           0       -5.268286   -3.946382   -0.323901
     26          6           0       -5.247271   -5.298737    0.324663
     27          6           0       -5.059947   -5.036140    1.888538
     28          6           0       -5.089573   -3.487866    1.873064
     29          6           0       -6.491474   -6.168745    0.098707
     30          6           0       -3.869540   -5.744170    2.582832
     31          6           0       -2.564942   -5.176475    2.070148
     32          7           0       -5.037835   -0.520883    2.177071
     33          6           0       -5.110450   -1.437730    3.235746
     34          6           0       -5.214297   -0.653492    4.480034
     35          6           0       -5.211555    0.673520    4.054736
     36          6           0       -5.138740    0.715084    2.633025
     37          6           0       -5.354172   -1.186489    5.791821
     38          6           0       -5.278031    2.065547    4.469099
     39          8           0       -5.256582    2.649467    5.553567
     40          6           0       -5.514390    2.962828    3.174939
     41          6           0       -4.538227    4.106229    3.230155
     42          8           0       -3.311269    3.905692    3.121870
     43          8           0       -5.208545    5.266682    3.162587
     44          6           0       -4.296467    6.441355    3.182845
     45          1           0       -6.557008    1.289161   -3.483148
     46          1           0       -5.052228   -4.618351   -2.152376
     47          1           0       -5.080795   -3.306040    3.988977
     48          1           0       -6.581128    4.216998    0.497304
     49          1           0       -6.379360    3.550546   -2.234468
     50          1           0       -8.467608    3.024646   -0.153956
     51          1           0       -8.386469    1.815263   -1.471938
     52          1           0       -8.684561    3.477625   -1.894164
     53          1           0       -4.193339    3.893437   -1.331652
     54          1           0       -3.879992    4.239055    0.416157
     55          1           0       -5.768864    6.131058   -0.553113
     56          1           0       -4.744374    5.818590   -1.902423
     57          1           0       -5.881866    0.587228   -5.352462
     58          1           0       -6.137564   -0.969531   -6.043209
     59          1           0       -4.473813   -0.331019   -6.003830
     60          1           0       -5.078420   -2.862824   -6.600383
     61          1           0       -3.777973   -4.180748   -6.620111
     62          1           0       -3.421464   -2.482485   -6.205703
     63          1           0       -4.411518   -5.894442   -0.040138
     64          1           0       -5.930146   -5.353403    2.463666
     65          1           0       -6.272487   -7.137797   -0.350389
     66          1           0       -7.191655   -5.602611   -0.514913
     67          1           0       -7.087411   -6.354869    0.991810
     68          1           0       -3.871168   -6.807818    2.347046
     69          1           0       -3.883549   -5.645067    3.668296
     70          1           0       -2.399819   -5.737517    1.151019
     71          1           0       -1.763508   -5.357286    2.787241
     72          1           0       -2.667944   -4.126175    1.796752
     73          1           0       -4.685859   -0.607577    6.429150
     74          1           0       -5.105303   -2.247167    5.816878
     75          1           0       -6.412856   -1.001588    5.973082
     76          1           0       -6.548113    3.304772    3.215104
     77          1           0       -4.610899    7.077639    4.010195
     78          1           0       -4.318261    6.867923    2.179864
     79          1           0       -3.260258    6.242368    3.458551
     80         12           0        5.554142   -0.289688   -0.030806
     81          6           0        3.190311    1.914023   -1.591259
     82          6           0        7.869620    2.190814   -0.377570
     83          6           0        7.764651   -2.355608    0.924712
     84          6           0        3.421004   -2.924584   -0.838755
     85          7           0        5.425703    1.744917   -0.888795
     86          6           0        4.460166    2.496192   -1.396402
     87          6           0        4.857444    3.977113   -1.638533
     88          6           0        6.446253    3.781968   -1.766814
     89          6           0        6.604944    2.513301   -0.931370
     90          6           0        6.903055    3.480542   -3.184491
     91          6           0        4.488302    4.901038   -0.425223
     92          6           0        4.563793    6.402010   -0.713578
     93          1           0        3.592644    7.283762   -0.071827
     94          7           0        7.380008    0.021242    0.682000
     95          6           0        8.168627    1.093592    0.459709
     96          6           0        9.418883    0.831718    1.189393
     97          6           0        9.367502   -0.555727    1.725182
     98          6           0        8.151016   -1.034806    1.100108
     99          6           0       10.477969    1.876445    1.390201
    100          6           0       10.271331   -1.328225    2.637630
    101          8           0       10.159463   -2.597080    2.780200
    102          6           0       11.350462   -0.570074    3.287375
    103          7           0        5.694496   -2.360497   -0.150819
    104          6           0        6.736670   -3.015303    0.390524
    105          6           0        6.487136   -4.504241    0.424760
    106          6           0        4.953192   -4.692359    0.013397
    107          6           0        4.589622   -3.221696   -0.287196
    108          6           0        7.367992   -5.347742   -0.496641
    109          6           0        4.053559   -5.490023    0.996787
    110          6           0        3.877193   -4.712563    2.281257
    111          7           0        3.569842   -0.485349   -0.862865
    112          6           0        2.876020   -1.683302   -1.141443
    113          6           0        1.610782   -1.309190   -1.805986
    114          6           0        1.667187    0.090227   -1.889307
    115          6           0        2.890897    0.554030   -1.335318
    116          6           0        0.622367   -2.215336   -2.283552
    117          6           0        0.974523    1.279804   -2.329551
    118          8           0       -0.140817    1.514221   -2.793023
    119          6           0        1.985961    2.504516   -2.270590
    120          6           0        1.288869    3.650261   -1.589529
    121          8           0        0.961696    3.569376   -0.392438
    122          8           0        1.318492    4.726463   -2.396540
    123          6           0        0.648868    5.892059   -1.760267
    124          1           0        8.725529    2.812431   -0.641952
    125          1           0        8.443936   -3.104497    1.338521
    126          1           0        2.658113   -3.681398   -1.033438
    127          1           0        4.461367    4.410646   -2.548998
    128          1           0        6.983912    4.608905   -1.310239
    129          1           0        6.068615    3.329972   -3.853214
    130          1           0        7.500232    2.580684   -3.116077
    131          1           0        7.578953    4.264687   -3.537502
    132          1           0        5.270855    4.817097    0.339829
    133          1           0        3.517526    4.655314   -0.040741
    134          1           0        4.622867    6.612813   -1.788298
    135          1           0        5.505423    6.785373   -0.313102
    136          1           0       10.312797    2.746340    0.742580
    137          1           0       11.421225    1.448077    1.034341
    138          1           0       10.593110    2.163636    2.437542
    139          1           0       11.979044   -0.112794    2.526960
    140          1           0       11.833122   -1.273896    3.968226
    141          1           0       10.905131    0.249592    3.862210
    142          1           0        6.634131   -4.898140    1.422936
    143          1           0        4.849811   -5.241570   -0.933982
    144          1           0        7.936008   -6.131257    0.039585
    145          1           0        8.040301   -4.685790   -1.026142
    146          1           0        6.842662   -5.843378   -1.311234
    147          1           0        4.533234   -6.433548    1.268466
    148          1           0        3.076859   -5.730597    0.590370
    149          1           0        4.779919   -4.962268    2.846785
    150          1           0        2.980613   -5.037164    2.805479
    151          1           0        3.894169   -3.632754    2.093204
    152          1           0       -0.337882   -1.809340   -1.994438
    153          1           0        0.770453   -3.214507   -1.879201
    154          1           0        0.822028   -2.173420   -3.357628
    155          1           0        2.266472    2.747393   -3.296215
    156          1           0       -0.127761    6.231470   -2.452600
    157          1           0        1.458011    6.607447   -1.520976
    158          1           0        0.067794    5.708530   -0.864101
 ---------------------------------------------------------------------

 SCF Done:  E(RCAM-B3LYP) =  -4069.81126696     A.U. after   19 cycles

 Excitation energies and oscillator strengths:

 Excited State   1:      Singlet-A      1.6610 eV  746.43 nm  f=0.2695  <S**2>=0.000
     309 -> 315        0.13255
     310 -> 316        0.10552
     311 -> 313        0.53486
     312 -> 314        0.43090
 This state for optimization and/or second-order correction.
 Total Energy, E(TD-HF/TD-DFT) =  -4069.75022544
 Copying the excited state density for this state as the 1-particle RhoCI density.

 Excited State   2:      Singlet-A      1.6907 eV  733.34 nm  f=0.5073  <S**2>=0.000
     309 -> 315       -0.11097
     310 -> 316        0.13791
     311 -> 313       -0.42978
     312 -> 314        0.53347

 Excited State   3:      Singlet-A      2.1799 eV  568.76 nm  f=0.0085  <S**2>=0.000
     309 -> 313        0.53522
     310 -> 314       -0.35984
     311 -> 315       -0.22331
     312 -> 316        0.14857

 Excited State   4:      Singlet-A      2.1931 eV  565.35 nm  f=0.1683  <S**2>=0.000
     309 -> 313        0.35647
     310 -> 314        0.53105
     311 -> 315       -0.15493
     312 -> 316       -0.23161

 Excited State   5:      Singlet-A      2.3851 eV  519.84 nm  f=0.0000  <S**2>=0.000
     312 -> 313        0.70581

 The electronic state is 1-A.
 Alpha  occ. eigenvalues --  -46.87560 -46.87222 -19.26264 -19.25769 -19.18989
 Alpha  occ. eigenvalues --  -19.18628 -19.18415 -19.18375 -19.18041 -19.17659
 Alpha  occ. eigenvalues --  -14.42403 -14.41879 -14.41265 -14.40934 -14.39257
 Alpha  occ. eigenvalues --  -14.38835 -14.38502 -14.38029 -10.38936 -10.38489
 Alpha  occ. eigenvalues --  -10.35306 -10.35011 -10.34205 -10.33875 -10.31726
 Alpha  occ. eigenvalues --  -10.31258 -10.31223 -10.30932 -10.30844 -10.30332
 Alpha  occ. eigenvalues --  -10.30306 -10.30272 -10.30043 -10.30013 -10.30000
 Alpha  occ. eigenvalues --  -10.29804 -10.29718 -10.29455 -10.29341 -10.29313
 Alpha  occ. eigenvalues --  -10.29119 -10.28714 -10.28636 -10.28568 -10.28316
 Alpha  occ. eigenvalues --  -10.28184 -10.28137 -10.28067 -10.27916 -10.27799
 Alpha  occ. eigenvalues --  -10.27581 -10.27574 -10.27422 -10.27391 -10.27384
 Alpha  occ. eigenvalues --  -10.27377 -10.27287 -10.27256 -10.27170 -10.27153
 Alpha  occ. eigenvalues --  -10.27109 -10.27056 -10.26987 -10.26906 -10.26859
 Alpha  occ. eigenvalues --  -10.26629 -10.26574 -10.26331 -10.26035 -10.26023
 Alpha  occ. eigenvalues --  -10.25985 -10.25981 -10.25937 -10.25832 -10.25773
 Alpha  occ. eigenvalues --  -10.25761 -10.25518 -10.25408 -10.25322 -10.25131
 Alpha  occ. eigenvalues --  -10.24792 -10.24622 -10.24601 -10.24509 -10.24298
 Alpha  occ. eigenvalues --  -10.24293  -3.16309  -3.15961  -1.91191  -1.90841
 Alpha  occ. eigenvalues --   -1.90780  -1.90617  -1.90430  -1.90272  -1.16544
 Alpha  occ. eigenvalues --   -1.16103  -1.08640  -1.08117  -1.06881  -1.06795
 Alpha  occ. eigenvalues --   -1.06786  -1.06053  -1.04403  -1.04014  -1.03571
 Alpha  occ. eigenvalues --   -1.03239  -1.02945  -1.02693  -1.02019  -1.01876
 Alpha  occ. eigenvalues --   -0.91903  -0.91433  -0.89401  -0.89105  -0.89069
 Alpha  occ. eigenvalues --   -0.88638  -0.88128  -0.87877  -0.87706  -0.87592
 Alpha  occ. eigenvalues --   -0.87365  -0.87130  -0.87033  -0.86751  -0.84913
 Alpha  occ. eigenvalues --   -0.84461  -0.83785  -0.83571  -0.82845  -0.82570
 Alpha  occ. eigenvalues --   -0.82517  -0.82154  -0.81520  -0.81095  -0.80361
 Alpha  occ. eigenvalues --   -0.80091  -0.78548  -0.78275  -0.77058  -0.76820
 Alpha  occ. eigenvalues --   -0.76763  -0.76462  -0.75766  -0.75427  -0.74720
 Alpha  occ. eigenvalues --   -0.74486  -0.72609  -0.72273  -0.71500  -0.71185
 Alpha  occ. eigenvalues --   -0.69662  -0.69571  -0.68743  -0.68369  -0.67517
 Alpha  occ. eigenvalues --   -0.67139  -0.67108  -0.66690  -0.65187  -0.64750
 Alpha  occ. eigenvalues --   -0.64681  -0.64568  -0.64352  -0.64144  -0.64114
 Alpha  occ. eigenvalues --   -0.63823  -0.62195  -0.61805  -0.60252  -0.59953
 Alpha  occ. eigenvalues --   -0.59712  -0.59258  -0.58905  -0.58487  -0.58338
 Alpha  occ. eigenvalues --   -0.58002  -0.57466  -0.57149  -0.57061  -0.56840
 Alpha  occ. eigenvalues --   -0.56113  -0.55808  -0.55804  -0.55478  -0.55368
 Alpha  occ. eigenvalues --   -0.55159  -0.55042  -0.54922  -0.54394  -0.54077
 Alpha  occ. eigenvalues --   -0.53826  -0.53349  -0.53142  -0.53053  -0.52825
 Alpha  occ. eigenvalues --   -0.52795  -0.52712  -0.52584  -0.52422  -0.52303
 Alpha  occ. eigenvalues --   -0.52265  -0.52085  -0.51798  -0.51571  -0.51438
 Alpha  occ. eigenvalues --   -0.51128  -0.51081  -0.50717  -0.50389  -0.50079
 Alpha  occ. eigenvalues --   -0.49895  -0.49783  -0.49644  -0.49420  -0.49399
 Alpha  occ. eigenvalues --   -0.49113  -0.49042  -0.49017  -0.48704  -0.48607
 Alpha  occ. eigenvalues --   -0.48474  -0.48302  -0.48259  -0.48127  -0.48017
 Alpha  occ. eigenvalues --   -0.47968  -0.47513  -0.47216  -0.47031  -0.46812
 Alpha  occ. eigenvalues --   -0.46618  -0.46468  -0.46330  -0.46179  -0.46035
 Alpha  occ. eigenvalues --   -0.45990  -0.45864  -0.45740  -0.45689  -0.45349
 Alpha  occ. eigenvalues --   -0.45123  -0.44801  -0.44437  -0.44393  -0.44103
 Alpha  occ. eigenvalues --   -0.44061  -0.44053  -0.43990  -0.43863  -0.43713
 Alpha  occ. eigenvalues --   -0.43601  -0.43525  -0.43474  -0.43301  -0.43013
 Alpha  occ. eigenvalues --   -0.42894  -0.42844  -0.42818  -0.42551  -0.42462
 Alpha  occ. eigenvalues --   -0.42306  -0.42179  -0.41874  -0.41605  -0.41583
 Alpha  occ. eigenvalues --   -0.41371  -0.41207  -0.41044  -0.40912  -0.40661
 Alpha  occ. eigenvalues --   -0.40634  -0.40610  -0.40423  -0.40405  -0.40361
 Alpha  occ. eigenvalues --   -0.40144  -0.40133  -0.39653  -0.39326  -0.39128
 Alpha  occ. eigenvalues --   -0.38259  -0.38061  -0.37561  -0.37242  -0.37171
 Alpha  occ. eigenvalues --   -0.37107  -0.36867  -0.36718  -0.36655  -0.36207
 Alpha  occ. eigenvalues --   -0.36113  -0.35690  -0.34158  -0.33750  -0.33696
 Alpha  occ. eigenvalues --   -0.33170  -0.33076  -0.32645  -0.31186  -0.30908
 Alpha  occ. eigenvalues --   -0.30880  -0.30509  -0.29937  -0.29518  -0.29241
 Alpha  occ. eigenvalues --   -0.29130  -0.28908  -0.28783  -0.23941  -0.23532
 Alpha  occ. eigenvalues --   -0.21027  -0.20593
 Alpha virt. eigenvalues --   -0.08705  -0.08237  -0.01589  -0.01229   0.00053
 Alpha virt. eigenvalues --    0.00465   0.02269   0.02702   0.03385   0.03691
 Alpha virt. eigenvalues --    0.04816   0.05173   0.05298   0.05664   0.06203

 Mulliken charges:
               1
     1  Mg   0.843029
     2  C    0.000199
     3  C   -0.089531
     4  C   -0.047657
     5  C   -0.065192
     6  N   -0.256459
     7  C   -0.050337
     8  C   -0.015565
     9  C   -0.088346
    10  C    0.049413
    11  C    0.105142
    12  C    0.052259
    13  C   -0.069944
    14  H    0.028422
    15  N   -0.433464
    16  C    0.173764
    17  C   -0.174094
    18  C   -0.004021
    19  C    0.147947
    20  C    0.110882
    21  C    0.011575
    22  O   -0.252191
    23  C    0.061848
    24  N   -0.341064
    25  C    0.041216
    26  C   -0.027693
    27  C   -0.023642
    28  C    0.074384
    29  C    0.076634
    30  C    0.035757
    31  C   -0.004644
    32  N   -0.310511
    33  C    0.080614
    34  C   -0.170529
    35  C    0.007735
    36  C    0.084280
    37  C    0.127411
    38  C    0.046614
    39  O   -0.190034
    40  C   -0.006074
    41  C    0.211237
    42  O   -0.251986
    43  O   -0.305755
    44  C    0.158416
    45  H   -0.018896
    46  H   -0.018912
    47  H   -0.043254
    48  H   -0.000807
    49  H   -0.003749
    50  H    0.024688
    51  H    0.015877
    52  H    0.015315
    53  H    0.019441
    54  H    0.048997
    55  H    0.016623
    56  H    0.017476
    57  H    0.005854
    58  H    0.024469
    59  H    0.042813
    60  H    0.036860
    61  H    0.033387
    62  H    0.034046
    63  H    0.014408
    64  H    0.008703
    65  H    0.021824
    66  H    0.012723
    67  H    0.004013
    68  H    0.004829
    69  H    0.004585
    70  H    0.005993
    71  H    0.016130
    72  H    0.031241
    73  H    0.046993
    74  H    0.007933
    75  H    0.044847
    76  H    0.033724
    77  H    0.041144
    78  H    0.044929
    79  H    0.054290
    80  Mg   0.839262
    81  C   -0.015909
    82  C   -0.087848
    83  C   -0.045474
    84  C   -0.064952
    85  N   -0.254595
    86  C   -0.049683
    87  C   -0.015264
    88  C   -0.090526
    89  C    0.046043
    90  C    0.114519
    91  C    0.062348
    92  C   -0.077740
    93  H    0.035027
    94  N   -0.423418
    95  C    0.163223
    96  C   -0.174675
    97  C   -0.007753
    98  C    0.152248
    99  C    0.099450
   100  C    0.015699
   101  O   -0.253263
   102  C    0.061121
   103  N   -0.350124
   104  C    0.037549
   105  C   -0.019831
   106  C   -0.034854
   107  C    0.088946
   108  C    0.073728
   109  C    0.034594
   110  C   -0.007574
   111  N   -0.324149
   112  C    0.078590
   113  C   -0.163637
   114  C    0.000979
   115  C    0.097610
   116  C    0.130369
   117  C    0.043710
   118  O   -0.190839
   119  C    0.000697
   120  C    0.209289
   121  O   -0.245322
   122  O   -0.306945
   123  C    0.151243
   124  H   -0.019967
   125  H   -0.015671
   126  H   -0.039776
   127  H   -0.001476
   128  H   -0.004346
   129  H    0.021850
   130  H    0.014348
   131  H    0.015920
   132  H    0.014401
   133  H    0.039512
   134  H    0.019815
   135  H    0.019479
   136  H    0.008630
   137  H    0.025876
   138  H    0.039990
   139  H    0.038046
   140  H    0.036311
   141  H    0.034187
   142  H    0.014408
   143  H    0.012525
   144  H    0.024972
   145  H    0.011420
   146  H    0.005624
   147  H    0.005848
   148  H    0.004138
   149  H    0.010765
   150  H    0.017498
   151  H    0.030910
   152  H    0.047766
   153  H    0.011157
   154  H    0.045412
   155  H    0.033410
   156  H    0.040573
   157  H    0.049305
   158  H    0.056683
 Sum of Mulliken charges =  -0.00000

 Dipole moment (field-independent basis, Debye):
    X=              2.1107    Y=              2.7934    Z=             -4.8793  Tot=              6.0055
 Quadrupole moment (field-independent basis, Debye-Ang):
   XX=           -470.6839   YY=           -469.4100   ZZ=           -523.2307
   XY=             26.4251   XZ=              9.7597   YZ=            -30.6264

 Normal termination of Gaussian 16 at Fri Sep 10 17:02:22 2021.
