 Gaussian 16, Revision A.03,
 Gaussian 16:  ES64L-G16RevA.03 25-Dec-2016

 -----------------------------------
 #p cam-b3lyp/Def2SVP td=(nstates=5)
 -----------------------------------

 --------------------------------
 TDDFT excited states in gaussian
 --------------------------------
 Symbolic Z-matrix:
 Charge =  0 Multiplicity = 1

                         Standard orientation:
 ---------------------------------------------------------------------
 Center     Atomic      Atomic             Coordinates (Angstroms)
 Number     Number       Type             X           Y           Z
 ---------------------------------------------------------------------
      1         12           0        7.826830    0.648798    0.524319
      2          6           0        8.296323   -2.243424   -1.531610
      3          6           0        8.550518    2.536652   -2.224381
      4          6           0        7.864664    3.193439    2.416406
      5          6           0        8.260699   -1.428082    3.289095
      6          7           0        8.340057    0.100226   -1.558063
      7          6           0        8.428186   -1.042264   -2.231948
      8          6           0        8.598893   -0.842179   -3.767591
      9          6           0        9.224550    0.624287   -3.762361
     10          6           0        8.642914    1.131856   -2.454693
     11          6           0       10.746399    0.637043   -3.660791
     12          6           0        7.230410   -0.878474   -4.527636
     13          6           0        7.331659   -1.017871   -6.049369
     14          1           0        6.324472   -1.800709   -6.749431
     15          7           0        7.678188    2.570361    0.090322
     16          6           0        8.001799    3.162707   -1.084279
     17          6           0        7.712963    4.602213   -0.907997
     18          6           0        7.374822    4.826298    0.525021
     19          6           0        7.654822    3.526865    1.080404
     20          6           0        7.725484    5.588068   -2.035687
     21          6           0        6.888167    6.024707    1.276763
     22          8           0        6.878992    6.068578    2.554481
     23          6           0        6.500329    7.194582    0.468050
     24          7           0        8.249815    0.904131    2.552501
     25          6           0        8.135354    2.102336    3.135757
     26          6           0        8.210133    1.991727    4.629783
     27          6           0        8.156394    0.430525    4.960715
     28          6           0        8.141438   -0.117349    3.512309
     29          6           0        9.452815    2.609864    5.285267
     30          6           0        7.053108   -0.043161    5.939898
     31          6           0        5.692552    0.130155    5.302758
     32          7           0        8.034630   -1.484941    0.863466
     33          6           0        8.227243   -2.128151    2.094667
     34          6           0        8.420258   -3.561492    1.807708
     35          6           0        8.342528   -3.650642    0.419236
     36          6           0        8.141547   -2.351365   -0.128284
     37          6           0        8.691827   -4.574662    2.769046
     38          6           0        8.407103   -4.537873   -0.730769
     39          8           0        8.466634   -5.759015   -0.881630
     40          6           0        8.501556   -3.646276   -2.046808
     41          6           0        7.502837   -4.185925   -3.034051
     42          8           0        6.277167   -4.102264   -2.814738
     43          8           0        8.131872   -4.497087   -4.177745
     44          6           0        7.192955   -5.010986   -5.210459
     45          1           0        8.989826    3.220967   -2.952847
     46          1           0        7.775179    4.028821    3.113950
     47          1           0        8.317145   -2.148469    4.107209
     48          1           0        9.288896   -1.539621   -4.242874
     49          1           0        8.861895    1.224427   -4.596648
     50          1           0       11.141900   -0.362074   -3.478405
     51          1           0       10.976717    1.296324   -2.823657
     52          1           0       11.189442    1.104131   -4.540745
     53          1           0        6.756827    0.101064   -4.462164
     54          1           0        6.591784   -1.670388   -4.134756
     55          1           0        8.332897   -1.321837   -6.356025
     56          1           0        7.200768   -0.030489   -6.492249
     57          1           0        8.169766    5.162624   -2.934662
     58          1           0        8.405774    6.390095   -1.749913
     59          1           0        6.735122    5.998784   -2.232732
     60          1           0        7.354058    7.519843   -0.126845
     61          1           0        6.094233    7.923243    1.168757
     62          1           0        5.729173    6.893321   -0.241534
     63          1           0        7.361962    2.486250    5.101459
     64          1           0        9.083091    0.076098    5.412696
     65          1           0        9.221526    3.363961    6.037960
     66          1           0       10.079207    3.024444    4.495934
     67          1           0       10.131290    1.892346    5.745980
     68          1           0        7.063197    0.563582    6.844723
     69          1           0        7.161514   -1.085893    6.238578
     70          1           0        5.461445    1.175795    5.502904
     71          1           0        4.963904   -0.528369    5.776707
     72          1           0        5.741401    0.008621    4.220478
     73          1           0        8.067437   -5.426332    2.499297
     74          1           0        8.475801   -4.229508    3.779890
     75          1           0        9.756936   -4.732704    2.600462
     76          1           0        9.524809   -3.732418   -2.411026
     77          1           0        7.562402   -5.987910   -5.522490
     78          1           0        7.112960   -4.233827   -5.970742
     79          1           0        6.191540   -5.270361   -4.865159
     80         12           0       -7.993940   -0.748822    0.455382
     81          6           0       -8.009095    1.879681   -1.987940
     82          6           0       -7.336071    1.638564    2.801063
     83          6           0       -7.528330   -3.081551    2.555134
     84          6           0       -7.514251   -2.994214   -2.166416
     85          7           0       -7.730107    1.441957    0.303270
     86          6           0       -7.819153    2.338396   -0.667727
     87          6           0       -7.778100    3.813724   -0.186816
     88          6           0       -7.002095    3.592535    1.201636
     89          6           0       -7.404634    2.145535    1.478799
     90          6           0       -5.489971    3.649208    1.061600
     91          6           0       -9.212098    4.407031    0.044793
     92          6           0       -9.259318    5.927034    0.215397
     93          1           0      -10.407086    6.652439   -0.322076
     94          7           0       -7.990391   -0.708905    2.439557
     95          6           0       -7.723865    0.350720    3.231656
     96          6           0       -7.831647   -0.142642    4.613378
     97          6           0       -8.021533   -1.618061    4.571166
     98          6           0       -7.829092   -1.868256    3.156787
     99          6           0       -7.832029    0.769699    5.805452
    100          6           0       -8.313674   -2.637076    5.630634
    101          8           0       -8.201986   -3.893864    5.405142
    102          6           0       -8.643758   -2.118228    6.966043
    103          7           0       -7.370787   -2.722159    0.255495
    104          6           0       -7.303593   -3.537384    1.322645
    105          6           0       -7.099565   -4.972848    0.900501
    106          6           0       -7.286429   -4.984299   -0.687743
    107          6           0       -7.486704   -3.472129   -0.929892
    108          6           0       -5.745432   -5.585273    1.257792
    109          6           0       -8.337705   -5.971002   -1.265596
    110          6           0       -9.727717   -5.545462   -0.850691
    111          7           0       -7.978180   -0.640059   -1.702396
    112          6           0       -7.732100   -1.695346   -2.607868
    113          6           0       -7.713381   -1.109885   -3.964084
    114          6           0       -7.928687    0.259894   -3.749971
    115          6           0       -8.051379    0.513412   -2.357073
    116          6           0       -7.468976   -1.819859   -5.173350
    117          6           0       -8.069480    1.550565   -4.384819
    118          8           0       -8.141099    1.942987   -5.548696
    119          6           0       -8.001678    2.675259   -3.263723
    120          6           0       -9.136820    3.633888   -3.498230
    121          8           0      -10.316172    3.259905   -3.372297
    122          8           0       -8.643599    4.879970   -3.618190
    123          6           0       -9.732440    5.868189   -3.841072
    124          1           0       -6.905348    2.271272    3.577619
    125          1           0       -7.467285   -3.939521    3.228664
    126          1           0       -7.468301   -3.642585   -3.044010
    127          1           0       -7.214781    4.483995   -0.824918
    128          1           0       -7.385381    4.250224    1.977454
    129          1           0       -5.183120    3.711467    0.028112
    130          1           0       -5.118464    2.738245    1.512352
    131          1           0       -5.086231    4.469165    1.662424
    132          1           0       -9.573008    4.095690    1.033509
    133          1           0       -9.878582    4.110811   -0.741761
    134          1           0       -8.322550    6.405906   -0.094605
    135          1           0       -9.336542    6.154345    1.281411
    136          1           0       -7.511087    1.783548    5.536172
    137          1           0       -7.051681    0.409102    6.484339
    138          1           0       -8.787505    0.771281    6.334353
    139          1           0       -7.821401   -1.506404    7.329180
    140          1           0       -8.907928   -2.993585    7.562570
    141          1           0       -9.513401   -1.457297    6.879461
    142          1           0       -7.846984   -5.617187    1.346938
    143          1           0       -6.357382   -5.265088   -1.205302
    144          1           0       -5.829374   -6.503694    1.868955
    145          1           0       -5.158097   -4.837455    1.773864
    146          1           0       -5.111105   -5.831170    0.407868
    147          1           0       -8.183854   -6.971781   -0.854587
    148          1           0       -8.300600   -6.057520   -2.346392
    149          1           0       -9.826610   -5.970182    0.152762
    150          1           0      -10.472703   -5.957027   -1.528668
    151          1           0       -9.793543   -4.455418   -0.755211
    152          1           0       -8.191291   -1.462880   -5.895391
    153          1           0       -7.550290   -2.894858   -5.026628
    154          1           0       -6.440496   -1.509992   -5.376985
    155          1           0       -7.029836    3.163187   -3.347537
    156          1           0       -9.491144    6.407040   -4.762534
    157          1           0       -9.791061    6.463122   -2.910287
    158          1           0      -10.718653    5.483506   -4.073100
 ---------------------------------------------------------------------

 SCF Done:  E(RCAM-B3LYP) =  -4069.81184072     A.U. after   19 cycles

 Excitation energies and oscillator strengths:

 Excited State   1:      Singlet-A      1.6747 eV  740.36 nm  f=0.3287  <S**2>=0.000
     310 -> 316        0.16627
     311 -> 313        0.19628
     312 -> 314        0.65741
     310 <- 316        0.10029
 This state for optimization and/or second-order correction.
 Total Energy, E(TD-HF/TD-DFT) =  -4069.75029826
 Copying the excited state density for this state as the 1-particle RhoCI density.

 Excited State   2:      Singlet-A      1.6800 eV  738.00 nm  f=0.4206  <S**2>=0.000
     309 -> 315        0.16812
     311 -> 313        0.65699
     312 -> 314       -0.19615
     309 <- 315        0.10063

 Excited State   3:      Singlet-A      2.1858 eV  567.23 nm  f=0.0980  <S**2>=0.000
     310 -> 314        0.64045
     312 -> 316       -0.27200

 Excited State   4:      Singlet-A      2.1924 eV  565.53 nm  f=0.1013  <S**2>=0.000
     309 -> 313        0.63858
     311 -> 315       -0.27718

 Excited State   5:      Singlet-A      2.7658 eV  448.27 nm  f=0.0000  <S**2>=0.000
     312 -> 313        0.70710

 The electronic state is 1-A.
 Alpha  occ. eigenvalues --  -46.87836 -46.87592 -19.26327 -19.26303 -19.19131
 Alpha  occ. eigenvalues --  -19.19043 -19.18869 -19.18649 -19.18202 -19.18004
 Alpha  occ. eigenvalues --  -14.42486 -14.42432 -14.41490 -14.41286 -14.39443
 Alpha  occ. eigenvalues --  -14.39285 -14.38625 -14.38534 -10.39103 -10.39060
 Alpha  occ. eigenvalues --  -10.35503 -10.35327 -10.34421 -10.34182 -10.31745
 Alpha  occ. eigenvalues --  -10.31692 -10.31437 -10.31248 -10.30962 -10.30943
 Alpha  occ. eigenvalues --  -10.30606 -10.30549 -10.30331 -10.30298 -10.30251
 Alpha  occ. eigenvalues --  -10.30063 -10.29963 -10.29819 -10.29671 -10.29367
 Alpha  occ. eigenvalues --  -10.29338 -10.29295 -10.28769 -10.28671 -10.28626
 Alpha  occ. eigenvalues --  -10.28537 -10.28402 -10.28342 -10.28138 -10.28087
 Alpha  occ. eigenvalues --  -10.27938 -10.27831 -10.27762 -10.27625 -10.27603
 Alpha  occ. eigenvalues --  -10.27553 -10.27516 -10.27502 -10.27439 -10.27422
 Alpha  occ. eigenvalues --  -10.27421 -10.27407 -10.27402 -10.27277 -10.27187
 Alpha  occ. eigenvalues --  -10.27007 -10.26716 -10.26654 -10.26470 -10.26356
 Alpha  occ. eigenvalues --  -10.26253 -10.26245 -10.26060 -10.26050 -10.25967
 Alpha  occ. eigenvalues --  -10.25877 -10.25861 -10.25792 -10.25487 -10.25266
 Alpha  occ. eigenvalues --  -10.24870 -10.24830 -10.24811 -10.24758 -10.24654
 Alpha  occ. eigenvalues --  -10.24618  -3.16579  -3.16342  -1.91460  -1.91225
 Alpha  occ. eigenvalues --   -1.91047  -1.90889  -1.90813  -1.90650  -1.16652
 Alpha  occ. eigenvalues --   -1.16619  -1.08659  -1.08614  -1.07272  -1.06917
 Alpha  occ. eigenvalues --   -1.06901  -1.06665  -1.04616  -1.04431  -1.03800
 Alpha  occ. eigenvalues --   -1.03595  -1.03274  -1.02968  -1.02450  -1.02043
 Alpha  occ. eigenvalues --   -0.92007  -0.91928  -0.89566  -0.89419  -0.89210
 Alpha  occ. eigenvalues --   -0.89097  -0.88334  -0.88136  -0.87906  -0.87732
 Alpha  occ. eigenvalues --   -0.87707  -0.87619  -0.87316  -0.87057  -0.85009
 Alpha  occ. eigenvalues --   -0.84944  -0.83986  -0.83794  -0.83017  -0.82864
 Alpha  occ. eigenvalues --   -0.82681  -0.82596  -0.81614  -0.81551  -0.80631
 Alpha  occ. eigenvalues --   -0.80388  -0.78836  -0.78573  -0.77255  -0.77084
 Alpha  occ. eigenvalues --   -0.76962  -0.76840  -0.75951  -0.75786  -0.74941
 Alpha  occ. eigenvalues --   -0.74719  -0.72812  -0.72633  -0.71708  -0.71511
 Alpha  occ. eigenvalues --   -0.69960  -0.69674  -0.68903  -0.68771  -0.67680
 Alpha  occ. eigenvalues --   -0.67539  -0.67246  -0.67149  -0.65314  -0.65219
 Alpha  occ. eigenvalues --   -0.64889  -0.64708  -0.64655  -0.64597  -0.64314
 Alpha  occ. eigenvalues --   -0.64127  -0.62327  -0.62232  -0.60486  -0.60271
 Alpha  occ. eigenvalues --   -0.59832  -0.59740  -0.59025  -0.58927  -0.58541
 Alpha  occ. eigenvalues --   -0.58363  -0.57615  -0.57509  -0.57350  -0.57168
 Alpha  occ. eigenvalues --   -0.56346  -0.56145  -0.56003  -0.55845  -0.55560
 Alpha  occ. eigenvalues --   -0.55399  -0.55381  -0.55178  -0.54561  -0.54424
 Alpha  occ. eigenvalues --   -0.53918  -0.53860  -0.53340  -0.53255  -0.53164
 Alpha  occ. eigenvalues --   -0.53087  -0.52949  -0.52849  -0.52794  -0.52610
 Alpha  occ. eigenvalues --   -0.52493  -0.52323  -0.51950  -0.51826  -0.51645
 Alpha  occ. eigenvalues --   -0.51607  -0.51231  -0.51144  -0.50618  -0.50411
 Alpha  occ. eigenvalues --   -0.50079  -0.49959  -0.49918  -0.49785  -0.49548
 Alpha  occ. eigenvalues --   -0.49430  -0.49249  -0.49148  -0.49122  -0.49050
 Alpha  occ. eigenvalues --   -0.48624  -0.48508  -0.48506  -0.48485  -0.48298
 Alpha  occ. eigenvalues --   -0.48276  -0.47731  -0.47534  -0.47335  -0.47050
 Alpha  occ. eigenvalues --   -0.46835  -0.46643  -0.46580  -0.46498  -0.46398
 Alpha  occ. eigenvalues --   -0.46204  -0.46200  -0.46016  -0.45851  -0.45770
 Alpha  occ. eigenvalues --   -0.45247  -0.45122  -0.44611  -0.44547  -0.44460
 Alpha  occ. eigenvalues --   -0.44418  -0.44188  -0.44116  -0.44071  -0.44055
 Alpha  occ. eigenvalues --   -0.44011  -0.43884  -0.43525  -0.43505  -0.43420
 Alpha  occ. eigenvalues --   -0.43324  -0.43063  -0.42889  -0.42840  -0.42737
 Alpha  occ. eigenvalues --   -0.42692  -0.42477  -0.42051  -0.41898  -0.41740
 Alpha  occ. eigenvalues --   -0.41610  -0.41560  -0.41401  -0.41175  -0.40923
 Alpha  occ. eigenvalues --   -0.40903  -0.40869  -0.40664  -0.40639  -0.40614
 Alpha  occ. eigenvalues --   -0.40415  -0.40252  -0.40181  -0.39497  -0.39343
 Alpha  occ. eigenvalues --   -0.38513  -0.38269  -0.37770  -0.37605  -0.37363
 Alpha  occ. eigenvalues --   -0.37290  -0.37193  -0.37142  -0.36743  -0.36731
 Alpha  occ. eigenvalues --   -0.36227  -0.36150  -0.34324  -0.34188  -0.33825
 Alpha  occ. eigenvalues --   -0.33797  -0.33224  -0.33109  -0.31399  -0.31208
 Alpha  occ. eigenvalues --   -0.31074  -0.30907  -0.30061  -0.29909  -0.29490
 Alpha  occ. eigenvalues --   -0.29359  -0.29263  -0.29150  -0.24118  -0.23969
 Alpha  occ. eigenvalues --   -0.21166  -0.21050
 Alpha virt. eigenvalues --   -0.08813  -0.08727  -0.01791  -0.01614  -0.00100
 Alpha virt. eigenvalues --    0.00033   0.02163   0.02266   0.03074   0.03290
 Alpha virt. eigenvalues --    0.04688   0.04792   0.05074   0.05199   0.06162

 Mulliken charges:
               1
     1  Mg   0.838583
     2  C   -0.002931
     3  C   -0.093943
     4  C   -0.046027
     5  C   -0.064004
     6  N   -0.256785
     7  C   -0.052402
     8  C   -0.013992
     9  C   -0.087034
    10  C    0.046323
    11  C    0.104782
    12  C    0.053409
    13  C   -0.071977
    14  H    0.036461
    15  N   -0.433128
    16  C    0.168343
    17  C   -0.177093
    18  C   -0.004142
    19  C    0.148667
    20  C    0.110136
    21  C    0.012088
    22  O   -0.249934
    23  C    0.062547
    24  N   -0.341102
    25  C    0.041249
    26  C   -0.028129
    27  C   -0.023976
    28  C    0.074802
    29  C    0.076174
    30  C    0.035177
    31  C   -0.004477
    32  N   -0.310471
    33  C    0.080401
    34  C   -0.169701
    35  C    0.008402
    36  C    0.082979
    37  C    0.127313
    38  C    0.046135
    39  O   -0.188320
    40  C   -0.005331
    41  C    0.212926
    42  O   -0.257157
    43  O   -0.304768
    44  C    0.157680
    45  H   -0.017451
    46  H   -0.017038
    47  H   -0.041497
    48  H    0.001028
    49  H   -0.003834
    50  H    0.025496
    51  H    0.016390
    52  H    0.016814
    53  H    0.011276
    54  H    0.044082
    55  H    0.017888
    56  H    0.018153
    57  H    0.006091
    58  H    0.026840
    59  H    0.039564
    60  H    0.037554
    61  H    0.035311
    62  H    0.031416
    63  H    0.016239
    64  H    0.009539
    65  H    0.023048
    66  H    0.012652
    67  H    0.004820
    68  H    0.006216
    69  H    0.004863
    70  H    0.008393
    71  H    0.018053
    72  H    0.029079
    73  H    0.047623
    74  H    0.009092
    75  H    0.046089
    76  H    0.035257
    77  H    0.043001
    78  H    0.046563
    79  H    0.053637
    80  Mg   0.838008
    81  C   -0.016948
    82  C   -0.087857
    83  C   -0.045371
    84  C   -0.064516
    85  N   -0.254590
    86  C   -0.049835
    87  C   -0.015111
    88  C   -0.090491
    89  C    0.045787
    90  C    0.114354
    91  C    0.062566
    92  C   -0.077782
    93  H    0.034634
    94  N   -0.423534
    95  C    0.162993
    96  C   -0.174567
    97  C   -0.007741
    98  C    0.152203
    99  C    0.099350
   100  C    0.015590
   101  O   -0.253022
   102  C    0.061203
   103  N   -0.350022
   104  C    0.037733
   105  C   -0.020018
   106  C   -0.034837
   107  C    0.088903
   108  C    0.073367
   109  C    0.034710
   110  C   -0.007654
   111  N   -0.324070
   112  C    0.078410
   113  C   -0.163093
   114  C    0.002100
   115  C    0.096229
   116  C    0.131503
   117  C    0.042270
   118  O   -0.188342
   119  C    0.000930
   120  C    0.211197
   121  O   -0.251020
   122  O   -0.305709
   123  C    0.152101
   124  H   -0.019637
   125  H   -0.015366
   126  H   -0.040334
   127  H   -0.000920
   128  H   -0.004436
   129  H    0.022268
   130  H    0.014828
   131  H    0.016250
   132  H    0.013941
   133  H    0.037595
   134  H    0.020631
   135  H    0.019604
   136  H    0.008737
   137  H    0.026225
   138  H    0.039665
   139  H    0.038264
   140  H    0.036361
   141  H    0.033776
   142  H    0.014287
   143  H    0.013014
   144  H    0.025228
   145  H    0.012031
   146  H    0.006580
   147  H    0.006466
   148  H    0.003611
   149  H    0.010917
   150  H    0.017749
   151  H    0.029928
   152  H    0.045725
   153  H    0.008614
   154  H    0.046994
   155  H    0.034766
   156  H    0.043615
   157  H    0.049468
   158  H    0.053543
 Sum of Mulliken charges =  -0.00000

 Dipole moment (field-independent basis, Debye):
    X=              3.5895    Y=              5.2432    Z=              1.4272  Tot=              6.5125
 Quadrupole moment (field-independent basis, Debye-Ang):
   XX=           -519.5188   YY=           -509.8191   ZZ=           -488.8209
   XY=             14.4236   XZ=            -52.9969   YZ=              9.3244

 Normal termination of Gaussian 16 at Sat Sep  4 14:16:55 2021.
