 Gaussian 16, Revision A.03,
 Gaussian 16:  ES64L-G16RevA.03 25-Dec-2016

 -----------------------------------
 #p cam-b3lyp/Def2SVP td=(nstates=5)
 -----------------------------------

 --------------------------------
 TDDFT excited states in gaussian
 --------------------------------
 Symbolic Z-matrix:
 Charge =  0 Multiplicity = 1

                         Standard orientation:
 ---------------------------------------------------------------------
 Center     Atomic      Atomic             Coordinates (Angstroms)
 Number     Number       Type             X           Y           Z
 ---------------------------------------------------------------------
      1         12           0        6.660558   -0.606205    0.719409
      2          6           0        7.090836    2.199856   -1.460751
      3          6           0        7.237399    1.519376    3.325598
      4          6           0        6.735924   -3.138783    2.626498
      5          6           0        7.243872   -2.652518   -2.040666
      6          7           0        7.095004    1.563158    0.795331
      7          6           0        7.173534    2.535650   -0.107589
      8          6           0        7.276444    3.956851    0.522469
      9          6           0        7.877652    3.558853    1.944490
     10          6           0        7.343076    2.141165    2.046050
     11          6           0        9.402006    3.512000    1.970013
     12          6           0        5.878097    4.646914    0.664478
     13          6           0        5.917767    6.148438    0.963153
     14          1           0        4.895098    7.005241    0.382305
     15          7           0        6.462387   -0.739631    2.680473
     16          6           0        6.726745    0.229908    3.588985
     17          6           0        6.421993   -0.356909    4.911654
     18          6           0        6.140566   -1.805809    4.712700
     19          6           0        6.464851   -1.960207    3.317574
     20          6           0        6.371093    0.445187    6.175695
     21          6           0        5.666259   -2.882922    5.636277
     22          8           0        5.709912   -4.120257    5.317418
     23          6           0        5.225754   -2.452878    6.975702
     24          7           0        7.163910   -2.607308    0.403402
     25          6           0        7.054365   -3.509652    1.384605
     26          6           0        7.193481   -4.907573    0.858865
     27          6           0        7.179251   -4.784599   -0.733123
     28          6           0        7.112601   -3.241824   -0.850055
     29          6           0        8.452238   -5.666644    1.300853
     30          6           0        6.125874   -5.628165   -1.494184
     31          6           0        4.737159   -5.114965   -1.185646
     32          7           0        6.917330   -0.319693   -1.416715
     33          6           0        7.171878   -1.310723   -2.375745
     34          6           0        7.376167   -0.622984   -3.663902
     35          6           0        7.241799    0.730230   -3.359595
     36          6           0        6.996786    0.879946   -1.964660
     37          6           0        7.704347   -1.247812   -4.899346
     38          6           0        7.272666    2.085928   -3.883987
     39          8           0        7.345830    2.578399   -5.010758
     40          6           0        7.297268    3.098145   -2.654906
     41          6           0        6.267039    4.161629   -2.921253
     42          8           0        5.050428    3.884170   -2.936731
     43          8           0        6.852616    5.368233   -2.879450
     44          6           0        5.879802    6.470132   -3.106620
     45          1           0        7.634524    2.039404    4.199557
     46          1           0        6.662065   -4.047040    3.228205
     47          1           0        7.346348   -3.230627   -2.960852
     48          1           0        7.957266    4.634382    0.006856
     49          1           0        7.470570    4.175623    2.745490
     50          1           0        9.821125    3.634159    0.971345
     51          1           0        9.656361    2.531189    2.372265
     52          1           0        9.800075    4.238857    2.678530
     53          1           0        5.391681    4.289971    1.572252
     54          1           0        5.269559    4.471897   -0.223427
     55          1           0        6.910124    6.564007    0.785840
     56          1           0        5.752268    6.288670    2.031397
     57          1           0        6.784231    1.443040    6.033736
     58          1           0        7.049523   -0.031611    6.882877
     59          1           0        5.366746    0.482534    6.597861
     60          1           0        6.048362   -1.944465    7.479073
     61          1           0        4.837486   -3.345205    7.465447
     62          1           0        4.430586   -1.714915    6.865850
     63          1           0        6.357826   -5.529814    1.176549
     64          1           0        8.129757   -5.084482   -1.175030
     65          1           0        8.240361   -6.609783    1.805136
     66          1           0        9.038128   -5.005253    1.938494
     67          1           0        9.161091   -5.880912    0.501456
     68          1           0        6.163921   -6.666804   -1.167493
     69          1           0        6.263776   -5.615320   -2.575419
     70          1           0        4.497533   -5.611078   -0.245815
     71          1           0        4.039900   -5.408650   -1.971006
     72          1           0        4.742603   -4.041542   -0.995336
     73          1           0        7.083247   -0.770328   -5.657113
     74          1           0        7.525238   -2.322032   -4.859664
     75          1           0        8.763905   -1.003621   -4.973942
     76          1           0        8.305636    3.507987   -2.606486
     77          1           0        6.251813    7.058940   -3.945159
     78          1           0        5.755295    6.975903   -2.148967
     79          1           0        4.898121    6.177031   -3.480427
     80         12           0       -6.478920   -0.678598   -0.747463
     81          6           0       -7.935751    1.685483    1.525834
     82          6           0       -6.122625    1.893604   -2.959129
     83          6           0       -5.610327   -2.808926   -2.932565
     84          6           0       -7.967969   -3.201429    1.140316
     85          7           0       -6.999200    1.467259   -0.617605
     86          6           0       -7.491788    2.264254    0.318612
     87          6           0       -7.435505    3.776094   -0.028831
     88          6           0       -7.396278    3.653651   -1.629561
     89          6           0       -6.768132    2.267005   -1.753318
     90          6           0       -8.776558    3.611086   -2.263889
     91          6           0       -6.141802    4.469181    0.526113
     92          6           0       -6.167321    5.998897    0.493413
     93          1           0       -5.514435    6.729222    1.576393
     94          7           0       -5.503915   -0.438083   -2.459219
     95          6           0       -5.447037    0.679775   -3.213170
     96          6           0       -4.621227    0.335790   -4.381022
     97          6           0       -4.331894   -1.123359   -4.337518
     98          6           0       -5.173232   -1.525977   -3.228402
     99          6           0       -4.121369    1.362810   -5.355073
    100          6           0       -3.454298   -2.011803   -5.166194
    101          8           0       -3.537694   -3.289242   -5.102749
    102          6           0       -2.559867   -1.342631   -6.122074
    103          7           0       -6.920125   -2.693812   -1.005509
    104          6           0       -6.369134   -3.399175   -2.008908
    105          6           0       -6.611849   -4.879185   -1.832744
    106          6           0       -7.235474   -5.041047   -0.369014
    107          6           0       -7.332366   -3.552375    0.030801
    108          6           0       -7.543260   -5.527113   -2.856981
    109          6           0       -6.516104   -6.020812    0.598067
    110          6           0       -5.153006   -5.478256    0.962730
    111          7           0       -7.571260   -0.790110    1.113297
    112          6           0       -8.127195   -1.943838    1.708202
    113          6           0       -8.872623   -1.500804    2.904229
    114          6           0       -8.716617   -0.106480    2.909334
    115          6           0       -7.946462    0.293360    1.783952
    116          6           0       -9.611709   -2.342231    3.782797
    117          6           0       -9.037270    1.119061    3.604976
    118          8           0       -9.590392    1.394905    4.668791
    119          6           0       -8.652458    2.346003    2.670667
    120          6           0       -7.883664    3.337979    3.499790
    121          8           0       -6.766155    3.045313    3.960374
    122          8           0       -8.492358    4.535911    3.430367
    123          6           0       -7.760716    5.555871    4.227989
    124          1           0       -6.172843    2.576641   -3.807555
    125          1           0       -5.244608   -3.596286   -3.595731
    126          1           0       -8.377692   -3.936956    1.835883
    127          1           0       -8.304078    4.345654    0.279336
    128          1           0       -6.746643    4.407004   -2.067526
    129          1           0       -9.559131    3.551014   -1.522192
    130          1           0       -8.783849    2.731121   -2.893701
    131          1           0       -8.909041    4.463813   -2.935928
    132          1           0       -5.310024    4.280335   -0.164711
    133          1           0       -5.926367    4.132568    1.521548
    134          1           0       -7.176896    6.390682    0.319642
    135          1           0       -5.595592    6.337030   -0.374236
    136          1           0       -4.632224    2.324581   -5.223082
    137          1           0       -4.423254    1.029742   -6.353969
    138          1           0       -3.034935    1.471479   -5.332100
    139          1           0       -3.150714   -0.744177   -6.811426
    140          1           0       -1.949784   -2.136857   -6.556676
    141          1           0       -1.917537   -0.646221   -5.571592
    142          1           0       -5.681797   -5.432106   -1.881580
    143          1           0       -8.265791   -5.424418   -0.405205
    144          1           0       -7.077237   -6.372725   -3.397202
    145          1           0       -7.869010   -4.764904   -3.552299
    146          1           0       -8.487113   -5.892999   -2.456397
    147          1           0       -6.346265   -6.981824    0.106377
    148          1           0       -7.074465   -6.218349    1.507022
    149          1           0       -4.528890   -5.792897    0.120967
    150          1           0       -4.804630   -5.914043    1.896951
    151          1           0       -5.157018   -4.382174    0.978517
    152          1           0       -9.380935   -2.020384    4.789600
    153          1           0       -9.362315   -3.390585    3.632709
    154          1           0      -10.631066   -2.112673    3.461117
    155          1           0       -9.581275    2.767740    2.284631
    156          1           0       -8.478505    5.984201    4.934388
    157          1           0       -7.308423    6.244403    3.489682
    158          1           0       -6.986049    5.205475    4.899975
 ---------------------------------------------------------------------

 SCF Done:  E(RCAM-B3LYP) =  -4069.81209516     A.U. after   19 cycles

 Excitation energies and oscillator strengths:

 Excited State   1:      Singlet-A      1.6657 eV  744.36 nm  f=0.0429  <S**2>=0.000
     309 -> 315        0.11155
     310 -> 316        0.13057
     311 -> 313       -0.44484
     312 -> 314        0.52303
 This state for optimization and/or second-order correction.
 Total Energy, E(TD-HF/TD-DFT) =  -4069.75088336
 Copying the excited state density for this state as the 1-particle RhoCI density.

 Excited State   2:      Singlet-A      1.6896 eV  733.79 nm  f=0.7060  <S**2>=0.000
     309 -> 315       -0.13574
     310 -> 316        0.11490
     311 -> 313        0.52186
     312 -> 314        0.44398

 Excited State   3:      Singlet-A      2.1867 eV  567.00 nm  f=0.0383  <S**2>=0.000
     309 -> 313        0.21226
     310 -> 314        0.60681
     312 -> 316       -0.25780

 Excited State   4:      Singlet-A      2.1939 eV  565.14 nm  f=0.1510  <S**2>=0.000
     309 -> 313        0.60467
     310 -> 314       -0.21080
     311 -> 315        0.26351

 Excited State   5:      Singlet-A      2.6973 eV  459.65 nm  f=0.0000  <S**2>=0.000
     312 -> 313        0.70708

 The electronic state is 1-A.
 Alpha  occ. eigenvalues --  -46.87752 -46.87547 -19.26336 -19.26305 -19.19108
 Alpha  occ. eigenvalues --  -19.19068 -19.18743 -19.18553 -19.18164 -19.17960
 Alpha  occ. eigenvalues --  -14.42410 -14.42386 -14.41403 -14.41250 -14.39356
 Alpha  occ. eigenvalues --  -14.39231 -14.38549 -14.38490 -10.39122 -10.39034
 Alpha  occ. eigenvalues --  -10.35374 -10.35224 -10.34386 -10.34140 -10.31753
 Alpha  occ. eigenvalues --  -10.31732 -10.31375 -10.31207 -10.30905 -10.30870
 Alpha  occ. eigenvalues --  -10.30534 -10.30465 -10.30286 -10.30251 -10.30148
 Alpha  occ. eigenvalues --  -10.30020 -10.29878 -10.29796 -10.29587 -10.29310
 Alpha  occ. eigenvalues --  -10.29278 -10.29204 -10.28730 -10.28623 -10.28584
 Alpha  occ. eigenvalues --  -10.28544 -10.28327 -10.28288 -10.28091 -10.28041
 Alpha  occ. eigenvalues --  -10.27884 -10.27755 -10.27685 -10.27553 -10.27535
 Alpha  occ. eigenvalues --  -10.27434 -10.27420 -10.27407 -10.27388 -10.27375
 Alpha  occ. eigenvalues --  -10.27370 -10.27334 -10.27282 -10.27262 -10.27160
 Alpha  occ. eigenvalues --  -10.26968 -10.26697 -10.26602 -10.26308 -10.26210
 Alpha  occ. eigenvalues --  -10.26177 -10.26096 -10.26046 -10.25970 -10.25935
 Alpha  occ. eigenvalues --  -10.25824 -10.25824 -10.25767 -10.25379 -10.25314
 Alpha  occ. eigenvalues --  -10.24801 -10.24762 -10.24742 -10.24633 -10.24580
 Alpha  occ. eigenvalues --  -10.24577  -3.16495  -3.16296  -1.91377  -1.91179
 Alpha  occ. eigenvalues --   -1.90963  -1.90805  -1.90767  -1.90604  -1.16683
 Alpha  occ. eigenvalues --   -1.16596  -1.08628  -1.08574  -1.07142  -1.06892
 Alpha  occ. eigenvalues --   -1.06804  -1.06689  -1.04543  -1.04383  -1.03715
 Alpha  occ. eigenvalues --   -1.03550  -1.03191  -1.02926  -1.02369  -1.01999
 Alpha  occ. eigenvalues --   -0.91946  -0.91885  -0.89464  -0.89390  -0.89163
 Alpha  occ. eigenvalues --   -0.89053  -0.88230  -0.88120  -0.87839  -0.87691
 Alpha  occ. eigenvalues --   -0.87634  -0.87574  -0.87212  -0.86959  -0.84954
 Alpha  occ. eigenvalues --   -0.84897  -0.83880  -0.83780  -0.82894  -0.82774
 Alpha  occ. eigenvalues --   -0.82615  -0.82529  -0.81585  -0.81516  -0.80570
 Alpha  occ. eigenvalues --   -0.80340  -0.78746  -0.78498  -0.77176  -0.77035
 Alpha  occ. eigenvalues --   -0.76915  -0.76811  -0.75906  -0.75742  -0.74852
 Alpha  occ. eigenvalues --   -0.74706  -0.72734  -0.72590  -0.71637  -0.71480
 Alpha  occ. eigenvalues --   -0.69837  -0.69659  -0.68841  -0.68720  -0.67604
 Alpha  occ. eigenvalues --   -0.67491  -0.67187  -0.67080  -0.65263  -0.65174
 Alpha  occ. eigenvalues --   -0.64828  -0.64669  -0.64591  -0.64558  -0.64217
 Alpha  occ. eigenvalues --   -0.64104  -0.62303  -0.62203  -0.60384  -0.60200
 Alpha  occ. eigenvalues --   -0.59775  -0.59692  -0.58952  -0.58889  -0.58471
 Alpha  occ. eigenvalues --   -0.58323  -0.57585  -0.57473  -0.57267  -0.57123
 Alpha  occ. eigenvalues --   -0.56276  -0.56092  -0.55992  -0.55806  -0.55475
 Alpha  occ. eigenvalues --   -0.55328  -0.55308  -0.55158  -0.54505  -0.54405
 Alpha  occ. eigenvalues --   -0.53872  -0.53813  -0.53254  -0.53187  -0.53114
 Alpha  occ. eigenvalues --   -0.53025  -0.52898  -0.52805  -0.52700  -0.52503
 Alpha  occ. eigenvalues --   -0.52366  -0.52303  -0.51891  -0.51794  -0.51587
 Alpha  occ. eigenvalues --   -0.51541  -0.51168  -0.51105  -0.50494  -0.50295
 Alpha  occ. eigenvalues --   -0.49969  -0.49864  -0.49853  -0.49753  -0.49477
 Alpha  occ. eigenvalues --   -0.49356  -0.49185  -0.49086  -0.49074  -0.49009
 Alpha  occ. eigenvalues --   -0.48580  -0.48465  -0.48423  -0.48392  -0.48283
 Alpha  occ. eigenvalues --   -0.48191  -0.47655  -0.47478  -0.47254  -0.46994
 Alpha  occ. eigenvalues --   -0.46756  -0.46607  -0.46531  -0.46449  -0.46320
 Alpha  occ. eigenvalues --   -0.46158  -0.46133  -0.45992  -0.45815  -0.45741
 Alpha  occ. eigenvalues --   -0.45149  -0.45109  -0.44562  -0.44454  -0.44421
 Alpha  occ. eigenvalues --   -0.44369  -0.44101  -0.44055  -0.44025  -0.43984
 Alpha  occ. eigenvalues --   -0.43968  -0.43798  -0.43490  -0.43477  -0.43348
 Alpha  occ. eigenvalues --   -0.43286  -0.42994  -0.42857  -0.42806  -0.42720
 Alpha  occ. eigenvalues --   -0.42599  -0.42442  -0.41964  -0.41867  -0.41674
 Alpha  occ. eigenvalues --   -0.41570  -0.41504  -0.41358  -0.41106  -0.40888
 Alpha  occ. eigenvalues --   -0.40831  -0.40760  -0.40613  -0.40560  -0.40519
 Alpha  occ. eigenvalues --   -0.40397  -0.40212  -0.40116  -0.39364  -0.39326
 Alpha  occ. eigenvalues --   -0.38416  -0.38253  -0.37730  -0.37561  -0.37269
 Alpha  occ. eigenvalues --   -0.37237  -0.37164  -0.37093  -0.36729  -0.36709
 Alpha  occ. eigenvalues --   -0.36172  -0.36126  -0.34248  -0.34146  -0.33803
 Alpha  occ. eigenvalues --   -0.33798  -0.33150  -0.33066  -0.31274  -0.31117
 Alpha  occ. eigenvalues --   -0.30996  -0.30861  -0.30026  -0.29868  -0.29402
 Alpha  occ. eigenvalues --   -0.29286  -0.29198  -0.29098  -0.24041  -0.23927
 Alpha  occ. eigenvalues --   -0.21085  -0.21002
 Alpha virt. eigenvalues --   -0.08731  -0.08673  -0.01702  -0.01568  -0.00008
 Alpha virt. eigenvalues --    0.00108   0.02227   0.02310   0.03178   0.03350
 Alpha virt. eigenvalues --    0.04749   0.04830   0.05064   0.05227   0.06184

 Mulliken charges:
               1
     1  Mg   0.838953
     2  C   -0.003205
     3  C   -0.094010
     4  C   -0.045683
     5  C   -0.063787
     6  N   -0.256814
     7  C   -0.052616
     8  C   -0.014029
     9  C   -0.087065
    10  C    0.046434
    11  C    0.104803
    12  C    0.053420
    13  C   -0.071605
    14  H    0.035278
    15  N   -0.433209
    16  C    0.168686
    17  C   -0.176852
    18  C   -0.003682
    19  C    0.148859
    20  C    0.110109
    21  C    0.012636
    22  O   -0.249464
    23  C    0.062261
    24  N   -0.341161
    25  C    0.041374
    26  C   -0.028209
    27  C   -0.023955
    28  C    0.074829
    29  C    0.076186
    30  C    0.035083
    31  C   -0.004640
    32  N   -0.310308
    33  C    0.080192
    34  C   -0.170003
    35  C    0.007984
    36  C    0.082788
    37  C    0.127426
    38  C    0.045605
    39  O   -0.189323
    40  C   -0.005196
    41  C    0.212808
    42  O   -0.257879
    43  O   -0.304548
    44  C    0.158039
    45  H   -0.017520
    46  H   -0.016629
    47  H   -0.041478
    48  H    0.000683
    49  H   -0.003905
    50  H    0.025351
    51  H    0.016555
    52  H    0.016667
    53  H    0.011697
    54  H    0.043622
    55  H    0.017816
    56  H    0.018326
    57  H    0.005859
    58  H    0.026881
    59  H    0.040427
    60  H    0.037216
    61  H    0.035970
    62  H    0.032307
    63  H    0.016847
    64  H    0.009305
    65  H    0.023297
    66  H    0.012440
    67  H    0.004695
    68  H    0.006394
    69  H    0.004693
    70  H    0.008904
    71  H    0.019149
    72  H    0.028756
    73  H    0.046888
    74  H    0.009313
    75  H    0.045883
    76  H    0.035097
    77  H    0.042700
    78  H    0.046593
    79  H    0.052691
    80  Mg   0.837938
    81  C   -0.016920
    82  C   -0.087298
    83  C   -0.045456
    84  C   -0.064942
    85  N   -0.254554
    86  C   -0.050086
    87  C   -0.015104
    88  C   -0.090594
    89  C    0.045838
    90  C    0.114380
    91  C    0.062376
    92  C   -0.077643
    93  H    0.033999
    94  N   -0.423602
    95  C    0.163267
    96  C   -0.173958
    97  C   -0.007354
    98  C    0.152220
    99  C    0.099081
   100  C    0.015900
   101  O   -0.253654
   102  C    0.060782
   103  N   -0.350059
   104  C    0.037607
   105  C   -0.019826
   106  C   -0.034695
   107  C    0.088744
   108  C    0.073743
   109  C    0.034801
   110  C   -0.007634
   111  N   -0.323948
   112  C    0.078104
   113  C   -0.163497
   114  C    0.001994
   115  C    0.095969
   116  C    0.131580
   117  C    0.042040
   118  O   -0.188647
   119  C    0.000973
   120  C    0.211215
   121  O   -0.251293
   122  O   -0.305567
   123  C    0.152240
   124  H   -0.019445
   125  H   -0.015621
   126  H   -0.040800
   127  H   -0.000989
   128  H   -0.004037
   129  H    0.022249
   130  H    0.014464
   131  H    0.016223
   132  H    0.014651
   133  H    0.037366
   134  H    0.020569
   135  H    0.019956
   136  H    0.008716
   137  H    0.026079
   138  H    0.042545
   139  H    0.038155
   140  H    0.036443
   141  H    0.036419
   142  H    0.014380
   143  H    0.012127
   144  H    0.024982
   145  H    0.011646
   146  H    0.005469
   147  H    0.006000
   148  H    0.003414
   149  H    0.010951
   150  H    0.017883
   151  H    0.030273
   152  H    0.045551
   153  H    0.008320
   154  H    0.046618
   155  H    0.034792
   156  H    0.043586
   157  H    0.049488
   158  H    0.053115
 Sum of Mulliken charges =  -0.00000

 Dipole moment (field-independent basis, Debye):
    X=              1.8114    Y=              3.0879    Z=              0.1369  Tot=              3.5826
 Quadrupole moment (field-independent basis, Debye-Ang):
   XX=           -501.3525   YY=           -461.5166   ZZ=           -530.9507
   XY=              4.9179   XZ=             61.6580   YZ=             10.3863

 Normal termination of Gaussian 16 at Sat Sep 11 05:40:20 2021.
