 Gaussian 16, Revision A.03,
 Gaussian 16:  ES64L-G16RevA.03 25-Dec-2016

 -----------------------------------
 #p cam-b3lyp/Def2SVP td=(nstates=5)
 -----------------------------------

 --------------------------------
 TDDFT excited states in gaussian
 --------------------------------
 Symbolic Z-matrix:
 Charge =  0 Multiplicity = 1

                         Standard orientation:
 ---------------------------------------------------------------------
 Center     Atomic      Atomic             Coordinates (Angstroms)
 Number     Number       Type             X           Y           Z
 ---------------------------------------------------------------------
      1         12           0        3.587012    1.205557    0.144551
      2          6           0        4.166020   -1.743224    2.089199
      3          6           0        4.829339   -0.499251   -2.537485
      4          6           0        3.510313    3.926380   -1.482674
      5          6           0        3.472463    2.980888    3.141340
      6          7           0        4.365188   -0.855630   -0.071313
      7          6           0        4.477452   -1.904758    0.737326
      8          6           0        4.885501   -3.213941   -0.002206
      9          6           0        5.597379   -2.571968   -1.276215
     10          6           0        4.863338   -1.243392   -1.320879
     11          6           0        7.085166   -2.304521   -1.072588
     12          6           0        3.644708   -4.076137   -0.413036
     13          6           0        3.960124   -5.511697   -0.843191
     14          1           0        3.018599   -6.567632   -0.502780
     15          7           0        3.629061    1.535343   -1.802838
     16          6           0        4.160200    0.725463   -2.750082
     17          6           0        3.942554    1.411697   -4.041746
     18          6           0        3.411930    2.772435   -3.750325
     19          6           0        3.521986    2.809141   -2.314387
     20          6           0        4.185288    0.762379   -5.369607
     21          6           0        2.898494    3.870070   -4.627657
     22          8           0        2.703754    5.055567   -4.190337
     23          6           0        2.710981    3.539334   -6.051909
     24          7           0        3.721769    3.207954    0.718904
     25          6           0        3.600507    4.192754   -0.178007
     26          6           0        3.446680    5.525816    0.492233
     27          6           0        3.243491    5.218597    2.045965
     28          6           0        3.406892    3.679139    2.005464
     29          6           0        4.616508    6.503448    0.314047
     30          6           0        1.979409    5.808663    2.720010
     31          6           0        0.741907    5.140964    2.163355
     32          7           0        3.603571    0.713435    2.258455
     33          6           0        3.570253    1.612949    3.333833
     34          6           0        3.710062    0.817120    4.567193
     35          6           0        3.832437   -0.496957    4.119899
     36          6           0        3.799197   -0.517723    2.696257
     37          6           0        3.770475    1.335249    5.890948
     38          6           0        4.008274   -1.885739    4.512610
     39          8           0        4.010034   -2.489748    5.586232
     40          6           0        4.353544   -2.734809    3.210421
     41          6           0        3.478534   -3.958559    3.220532
     42          8           0        2.241961   -3.861983    3.082957
     43          8           0        4.247904   -5.055758    3.151501
     44          6           0        3.440296   -6.304502    3.127856
     45          1           0        5.414802   -0.852288   -3.388684
     46          1           0        3.373289    4.878170   -2.000127
     47          1           0        3.360702    3.457253    4.117065
     48          1           0        5.591348   -3.842009    0.541610
     49          1           0        5.401518   -3.143782   -2.183072
     50          1           0        7.383741   -2.480150   -0.039182
     51          1           0        7.231737   -1.257478   -1.338503
     52          1           0        7.682570   -2.879866   -1.780306
     53          1           0        3.231229   -3.689910   -1.344661
     54          1           0        2.905067   -4.094117    0.388172
     55          1           0        4.973788   -5.798476   -0.561853
     56          1           0        3.960374   -5.549570   -1.932579
     57          1           0        4.728796   -0.175626   -5.263354
     58          1           0        4.866566    1.410110   -5.920982
     59          1           0        3.263608    0.630624   -5.936597
     60          1           0        3.662435    3.215781   -6.474519
     61          1           0        2.254094    4.417449   -6.506901
     62          1           0        2.035061    2.687336   -6.130521
     63          1           0        2.572097    6.054437    0.115283
     64          1           0        4.068376    5.598394    2.649284
     65          1           0        4.326122    7.458465   -0.124498
     66          1           0        5.378085    6.011158   -0.290059
     67          1           0        5.171564    6.723078    1.225690
     68          1           0        1.895233    6.872800    2.502125
     69          1           0        1.974653    5.690620    3.803659
     70          1           0        0.552151    5.703055    1.249638
     71          1           0       -0.089884    5.238779    2.861758
     72          1           0        0.941924    4.108726    1.875319
     73          1           0        3.138780    0.689203    6.500501
     74          1           0        3.430521    2.370010    5.927054
     75          1           0        4.836274    1.238436    6.097241
     76          1           0        5.411566   -2.987530    3.272402
     77          1           0        3.787550   -6.927004    3.952562
     78          1           0        3.523967   -6.708587    2.118837
     79          1           0        2.384193   -6.200371    3.379139
     80         12           0       -4.256315    0.011584   -0.138053
     81          6           0       -1.606376   -1.968446   -1.529596
     82          6           0       -6.339110   -2.621294   -0.741805
     83          6           0       -6.691029    1.882389    0.661725
     84          6           0       -2.266038    2.817299   -0.697058
     85          7           0       -3.900689   -1.983342   -1.024653
     86          6           0       -2.840791   -2.647339   -1.460622
     87          6           0       -3.102641   -4.146046   -1.768688
     88          6           0       -4.684491   -4.064368   -2.033130
     89          6           0       -5.010411   -2.834601   -1.188077
     90          6           0       -5.037918   -3.757698   -3.478943
     91          6           0       -2.771567   -5.073997   -0.547495
     92          6           0       -2.708252   -6.567804   -0.873486
     93          1           0       -1.732721   -7.393616   -0.167175
     94          7           0       -6.108483   -0.452153    0.403222
     95          6           0       -6.791639   -1.572787    0.088958
     96          6           0       -8.116718   -1.423757    0.710356
     97          6           0       -8.216903   -0.051804    1.278182
     98          6           0       -6.990371    0.532442    0.773835
     99          6           0       -9.107352   -2.548500    0.794037
    100          6           0       -9.252247    0.626546    2.123230
    101          8           0       -9.249259    1.895697    2.302299
    102          6           0      -10.323420   -0.226530    2.658347
    103          7           0       -4.541602    2.069082   -0.225663
    104          6           0       -5.673266    2.630333    0.235035
    105          6           0       -5.540741    4.132026    0.323147
    106          6           0       -3.995459    4.443499    0.053538
    107          6           0       -3.497209    3.012415   -0.245050
    108          6           0       -6.399406    4.934125   -0.654453
    109          6           0       -3.247385    5.277134    1.129693
    110          6           0       -3.125039    4.479077    2.407783
    111          7           0       -2.227709    0.375346   -0.786511
    112          6           0       -1.604718    1.628257   -0.976743
    113          6           0       -0.261939    1.366608   -1.534337
    114          6           0       -0.205130   -0.030295   -1.652287
    115          6           0       -1.433815   -0.597852   -1.219050
    116          6           0        0.692989    2.355762   -1.902870
    117          6           0        0.610940   -1.153127   -2.054760
    118          8           0        1.776806   -1.292118   -2.422427
    119          6           0       -0.306480   -2.449843   -2.111963
    120          6           0        0.413323   -3.560012   -1.396459
    121          8           0        0.628273   -3.488876   -0.173623
    122          8           0        0.535191   -4.612507   -2.225778
    123          6           0        1.233078   -5.743215   -1.557753
    124          1           0       -7.119467   -3.296328   -1.094299
    125          1           0       -7.458244    2.567613    1.029612
    126          1           0       -1.548433    3.633145   -0.807077
    127          1           0       -2.597423   -4.523754   -2.649512
    128          1           0       -5.195817   -4.940937   -1.643849
    129          1           0       -4.162321   -3.527729   -4.067668
    130          1           0       -5.704975   -2.906296   -3.444489
    131          1           0       -5.619506   -4.579087   -3.907213
    132          1           0       -3.621688   -5.069070    0.146784
    133          1           0       -1.859158   -4.768631   -0.073266
    134          1           0       -2.657705   -6.752236   -1.953477
    135          1           0       -3.649470   -7.030211   -0.566386
    136          1           0       -8.821411   -3.385498    0.145141
    137          1           0      -10.045777   -2.180637    0.365203
    138          1           0       -9.290993   -2.872541    1.820661
    139          1           0      -10.847292   -0.707211    1.835563
    140          1           0      -10.915103    0.420701    3.308633
    141          1           0       -9.869090   -1.027107    3.252721
    142          1           0       -5.803156    4.486009    1.312561
    143          1           0       -3.851956    5.025084   -0.868953
    144          1           0       -7.069332    5.658602   -0.154050
    145          1           0       -6.971310    4.239747   -1.255537
    146          1           0       -5.844234    5.489528   -1.408447
    147          1           0       -3.818668    6.175006    1.377909
    148          1           0       -2.260032    5.599920    0.816728
    149          1           0       -4.089712    4.646023    2.896264
    150          1           0       -2.304424    4.853732    3.016276
    151          1           0       -3.044076    3.406605    2.195885
    152          1           0        1.652407    2.013317   -1.538518
    153          1           0        0.435370    3.329699   -1.491941
    154          1           0        0.591072    2.329383   -2.991065
    155          1           0       -0.477754   -2.683843   -3.163378
    156          1           0        2.090280   -6.005298   -2.185604
    157          1           0        0.462529   -6.522403   -1.406524
    158          1           0        1.718639   -5.542726   -0.609873
 ---------------------------------------------------------------------

 SCF Done:  E(RCAM-B3LYP) =  -4069.78179206     A.U. after   18 cycles

 Excitation energies and oscillator strengths:

 Excited State   1:      Singlet-A      1.6194 eV  765.62 nm  f=0.3194  <S**2>=0.000
     309 -> 315        0.11364
     310 -> 316       -0.10672
     311 -> 313        0.48628
     312 -> 314        0.48398
 This state for optimization and/or second-order correction.
 Total Energy, E(TD-HF/TD-DFT) =  -4069.72228013
 Copying the excited state density for this state as the 1-particle RhoCI density.

 Excited State   2:      Singlet-A      1.6905 eV  733.40 nm  f=0.4749  <S**2>=0.000
     309 -> 315        0.12377
     310 -> 316        0.12377
     311 -> 313        0.48390
     312 -> 314       -0.48286

 Excited State   3:      Singlet-A      1.9535 eV  634.68 nm  f=0.0003  <S**2>=0.000
     312 -> 313        0.69938

 Excited State   4:      Singlet-A      2.1589 eV  574.29 nm  f=0.0015  <S**2>=0.000
     309 -> 313       -0.42755
     310 -> 314        0.48523
     311 -> 315        0.16831
     312 -> 316        0.19173

 Excited State   5:      Singlet-A      2.1883 eV  566.58 nm  f=0.1540  <S**2>=0.000
     309 -> 313        0.48170
     310 -> 314        0.41509
     311 -> 315       -0.20546
     312 -> 316        0.18665

 The electronic state is 1-A.
 Alpha  occ. eigenvalues --  -46.87628 -46.86951 -19.26396 -19.25510 -19.19231
 Alpha  occ. eigenvalues --  -19.18795 -19.18697 -19.18409 -19.18042 -19.17302
 Alpha  occ. eigenvalues --  -14.42447 -14.41393 -14.41345 -14.40679 -14.39335
 Alpha  occ. eigenvalues --  -14.38610 -14.38461 -14.37646 -10.39143 -10.38113
 Alpha  occ. eigenvalues --  -10.35372 -10.35020 -10.34727 -10.33521 -10.31327
 Alpha  occ. eigenvalues --  -10.31181 -10.31119 -10.31021 -10.30391 -10.30380
 Alpha  occ. eigenvalues --  -10.30367 -10.30052 -10.29874 -10.29861 -10.29731
 Alpha  occ. eigenvalues --  -10.29689 -10.29404 -10.29390 -10.29349 -10.29328
 Alpha  occ. eigenvalues --  -10.28985 -10.28705 -10.28603 -10.28461 -10.28288
 Alpha  occ. eigenvalues --  -10.28200 -10.28142 -10.27970 -10.27856 -10.27639
 Alpha  occ. eigenvalues --  -10.27476 -10.27472 -10.27444 -10.27398 -10.27352
 Alpha  occ. eigenvalues --  -10.27311 -10.27294 -10.27176 -10.27052 -10.27042
 Alpha  occ. eigenvalues --  -10.26920 -10.26828 -10.26768 -10.26581 -10.26578
 Alpha  occ. eigenvalues --  -10.26468 -10.26377 -10.26273 -10.26075 -10.26073
 Alpha  occ. eigenvalues --  -10.25960 -10.25957 -10.25840 -10.25544 -10.25465
 Alpha  occ. eigenvalues --  -10.25326 -10.25189 -10.25118 -10.25059 -10.24973
 Alpha  occ. eigenvalues --  -10.24797 -10.24700 -10.24693 -10.24583 -10.24010
 Alpha  occ. eigenvalues --  -10.23895  -3.16376  -3.15680  -1.91257  -1.90847
 Alpha  occ. eigenvalues --   -1.90685  -1.90566  -1.90143  -1.89992  -1.16739
 Alpha  occ. eigenvalues --   -1.15825  -1.09339  -1.07771  -1.07073  -1.06947
 Alpha  occ. eigenvalues --   -1.06816  -1.05686  -1.04480  -1.03645  -1.03627
 Alpha  occ. eigenvalues --   -1.03027  -1.02957  -1.02435  -1.02113  -1.01531
 Alpha  occ. eigenvalues --   -0.92071  -0.91048  -0.89453  -0.89133  -0.88975
 Alpha  occ. eigenvalues --   -0.88345  -0.88152  -0.87823  -0.87663  -0.87561
 Alpha  occ. eigenvalues --   -0.87105  -0.87026  -0.86792  -0.86618  -0.84976
 Alpha  occ. eigenvalues --   -0.84485  -0.83815  -0.83469  -0.82900  -0.82675
 Alpha  occ. eigenvalues --   -0.82469  -0.82115  -0.81535  -0.80899  -0.80418
 Alpha  occ. eigenvalues --   -0.79819  -0.78598  -0.78040  -0.77195  -0.77080
 Alpha  occ. eigenvalues --   -0.76609  -0.76328  -0.75696  -0.75193  -0.74751
 Alpha  occ. eigenvalues --   -0.74316  -0.72657  -0.71983  -0.71582  -0.70896
 Alpha  occ. eigenvalues --   -0.69669  -0.69517  -0.68854  -0.68211  -0.67627
 Alpha  occ. eigenvalues --   -0.67168  -0.66900  -0.66626  -0.65312  -0.64838
 Alpha  occ. eigenvalues --   -0.64687  -0.64479  -0.64178  -0.64070  -0.63950
 Alpha  occ. eigenvalues --   -0.63558  -0.62485  -0.61548  -0.60329  -0.59933
 Alpha  occ. eigenvalues --   -0.59776  -0.59149  -0.58856  -0.58501  -0.58278
 Alpha  occ. eigenvalues --   -0.57729  -0.57726  -0.57284  -0.56752  -0.56631
 Alpha  occ. eigenvalues --   -0.56259  -0.56158  -0.55670  -0.55537  -0.55299
 Alpha  occ. eigenvalues --   -0.55227  -0.54864  -0.54772  -0.54542  -0.53939
 Alpha  occ. eigenvalues --   -0.53877  -0.53461  -0.53297  -0.53080  -0.52978
 Alpha  occ. eigenvalues --   -0.52788  -0.52692  -0.52488  -0.52328  -0.52189
 Alpha  occ. eigenvalues --   -0.52109  -0.52017  -0.51860  -0.51639  -0.51324
 Alpha  occ. eigenvalues --   -0.51126  -0.50921  -0.50488  -0.50423  -0.50065
 Alpha  occ. eigenvalues --   -0.50046  -0.49909  -0.49525  -0.49506  -0.49410
 Alpha  occ. eigenvalues --   -0.49304  -0.49214  -0.48880  -0.48727  -0.48536
 Alpha  occ. eigenvalues --   -0.48349  -0.48273  -0.48161  -0.47914  -0.47819
 Alpha  occ. eigenvalues --   -0.47731  -0.47468  -0.47237  -0.47039  -0.46728
 Alpha  occ. eigenvalues --   -0.46571  -0.46490  -0.46318  -0.46181  -0.46025
 Alpha  occ. eigenvalues --   -0.45850  -0.45764  -0.45622  -0.45434  -0.45317
 Alpha  occ. eigenvalues --   -0.45010  -0.44756  -0.44568  -0.44430  -0.44178
 Alpha  occ. eigenvalues --   -0.44136  -0.44033  -0.43867  -0.43833  -0.43740
 Alpha  occ. eigenvalues --   -0.43422  -0.43334  -0.43263  -0.43058  -0.42842
 Alpha  occ. eigenvalues --   -0.42737  -0.42582  -0.42573  -0.42464  -0.42362
 Alpha  occ. eigenvalues --   -0.42002  -0.41921  -0.41890  -0.41755  -0.41421
 Alpha  occ. eigenvalues --   -0.41320  -0.41026  -0.40885  -0.40683  -0.40638
 Alpha  occ. eigenvalues --   -0.40570  -0.40461  -0.40339  -0.40203  -0.40172
 Alpha  occ. eigenvalues --   -0.39991  -0.39807  -0.39374  -0.39220  -0.39038
 Alpha  occ. eigenvalues --   -0.38277  -0.37886  -0.37598  -0.37219  -0.37193
 Alpha  occ. eigenvalues --   -0.36985  -0.36700  -0.36496  -0.36429  -0.36139
 Alpha  occ. eigenvalues --   -0.35872  -0.35368  -0.34237  -0.33686  -0.33399
 Alpha  occ. eigenvalues --   -0.33150  -0.32761  -0.32157  -0.31254  -0.31004
 Alpha  occ. eigenvalues --   -0.30875  -0.30404  -0.30164  -0.29517  -0.29281
 Alpha  occ. eigenvalues --   -0.29167  -0.28512  -0.28388  -0.24014  -0.23151
 Alpha  occ. eigenvalues --   -0.21093  -0.20157
 Alpha virt. eigenvalues --   -0.08816  -0.07869  -0.01668  -0.01131  -0.00078
 Alpha virt. eigenvalues --    0.00744   0.01965   0.02975   0.03306   0.04639
 Alpha virt. eigenvalues --    0.04701   0.04929   0.05061   0.06062   0.06206

 Mulliken charges:
               1
     1  Mg   0.790849
     2  C    0.010387
     3  C   -0.074837
     4  C   -0.056055
     5  C   -0.066279
     6  N   -0.255299
     7  C   -0.048584
     8  C    0.007239
     9  C   -0.094731
    10  C    0.070112
    11  C    0.106611
    12  C   -0.012742
    13  C   -0.097371
    14  H    0.028386
    15  N   -0.454130
    16  C    0.213062
    17  C   -0.180913
    18  C   -0.008046
    19  C    0.135672
    20  C    0.115470
    21  C    0.007186
    22  O   -0.252441
    23  C    0.065921
    24  N   -0.337492
    25  C    0.042593
    26  C   -0.026410
    27  C   -0.022082
    28  C    0.075114
    29  C    0.077567
    30  C    0.038414
    31  C   -0.020736
    32  N   -0.304145
    33  C    0.079405
    34  C   -0.172992
    35  C    0.006519
    36  C    0.077939
    37  C    0.127830
    38  C    0.046689
    39  O   -0.192237
    40  C   -0.010448
    41  C    0.210487
    42  O   -0.246915
    43  O   -0.306900
    44  C    0.159247
    45  H   -0.024476
    46  H   -0.023960
    47  H   -0.045719
    48  H   -0.005172
    49  H   -0.003940
    50  H    0.023971
    51  H    0.016260
    52  H    0.013195
    53  H    0.031342
    54  H    0.091196
    55  H    0.011144
    56  H    0.022778
    57  H    0.007439
    58  H    0.022997
    59  H    0.038653
    60  H    0.038198
    61  H    0.032982
    62  H    0.028675
    63  H    0.011558
    64  H    0.008498
    65  H    0.020891
    66  H    0.013702
    67  H    0.003998
    68  H    0.003611
    69  H    0.004094
    70  H    0.010893
    71  H    0.020099
    72  H    0.036441
    73  H    0.045481
    74  H    0.006514
    75  H    0.043801
    76  H    0.032476
    77  H    0.040596
    78  H    0.042572
    79  H    0.053533
    80  Mg   0.841897
    81  C   -0.016579
    82  C   -0.088315
    83  C   -0.044831
    84  C   -0.066998
    85  N   -0.255367
    86  C   -0.050248
    87  C   -0.016199
    88  C   -0.090524
    89  C    0.047280
    90  C    0.114624
    91  C    0.061852
    92  C   -0.077212
    93  H    0.034665
    94  N   -0.423384
    95  C    0.164218
    96  C   -0.174552
    97  C   -0.007155
    98  C    0.152404
    99  C    0.099387
   100  C    0.016025
   101  O   -0.252800
   102  C    0.060962
   103  N   -0.349768
   104  C    0.037853
   105  C   -0.020195
   106  C   -0.034059
   107  C    0.088446
   108  C    0.073666
   109  C    0.034603
   110  C   -0.005741
   111  N   -0.323160
   112  C    0.079104
   113  C   -0.173343
   114  C   -0.002408
   115  C    0.100481
   116  C    0.159921
   117  C    0.048604
   118  O   -0.192673
   119  C    0.021181
   120  C    0.209036
   121  O   -0.237008
   122  O   -0.312484
   123  C    0.154897
   124  H   -0.019919
   125  H   -0.015192
   126  H   -0.035979
   127  H   -0.002353
   128  H   -0.003988
   129  H    0.021130
   130  H    0.014456
   131  H    0.016110
   132  H    0.015064
   133  H    0.042818
   134  H    0.019106
   135  H    0.019518
   136  H    0.008832
   137  H    0.026091
   138  H    0.040516
   139  H    0.038089
   140  H    0.036610
   141  H    0.034546
   142  H    0.014747
   143  H    0.013337
   144  H    0.025006
   145  H    0.011109
   146  H    0.006287
   147  H    0.004803
   148  H    0.004006
   149  H    0.008148
   150  H    0.016182
   151  H    0.031586
   152  H    0.072233
   153  H    0.011817
   154  H    0.039239
   155  H    0.031175
   156  H    0.035382
   157  H    0.040405
   158  H    0.067752
 Sum of Mulliken charges =  -0.00000

 Dipole moment (field-independent basis, Debye):
    X=             -2.1066    Y=             -3.1953    Z=             -5.6077  Tot=              6.7893
 Quadrupole moment (field-independent basis, Debye-Ang):
   XX=           -490.1468   YY=           -472.6728   ZZ=           -522.4810
   XY=             22.7841   XZ=             -8.4680   YZ=             33.4554

 Normal termination of Gaussian 16 at Wed Sep  8 23:18:13 2021.
