 Gaussian 16, Revision A.03,
 Gaussian 16:  ES64L-G16RevA.03 25-Dec-2016

 -----------------------------------
 #p cam-b3lyp/Def2SVP td=(nstates=5)
 -----------------------------------

 --------------------------------
 TDDFT excited states in gaussian
 --------------------------------
 Symbolic Z-matrix:
 Charge =  0 Multiplicity = 1

                         Standard orientation:
 ---------------------------------------------------------------------
 Center     Atomic      Atomic             Coordinates (Angstroms)
 Number     Number       Type             X           Y           Z
 ---------------------------------------------------------------------
      1         12           0        4.794410    1.177416    0.690278
      2          6           0        5.517840   -2.114538   -0.514670
      3          6           0        5.842970    2.354313   -2.336023
      4          6           0        4.595326    4.108872    1.883405
      5          6           0        4.893282   -0.141008    3.914816
      6          7           0        5.558802    0.150867   -1.115974
      7          6           0        5.731126   -1.118713   -1.470435
      8          6           0        6.087139   -1.296743   -2.976733
      9          6           0        6.703952    0.145577   -3.261785
     10          6           0        5.966130    0.939774   -2.198398
     11          6           0        8.202060    0.232394   -2.988583
     12          6           0        4.821524   -1.563211   -3.859310
     13          6           0        5.107723   -2.068965   -5.276228
     14          1           0        4.195210   -3.032178   -5.873629
     15          7           0        4.695095    2.927491   -0.220888
     16          6           0        5.157945    3.223184   -1.459283
     17          6           0        4.846305    4.651683   -1.680536
     18          6           0        4.335581    5.209972   -0.397739
     19          6           0        4.548984    4.096710    0.491352
     20          6           0        4.993717    5.330011   -3.007898
     21          6           0        3.758081    6.539899   -0.029065
     22          8           0        3.593225    6.896132    1.187691
     23          6           0        3.468815    7.461879   -1.142313
     24          7           0        4.966566    1.937008    2.627033
     25          6           0        4.779012    3.237433    2.877437
     26          6           0        4.671509    3.499901    4.350357
     27          6           0        4.581633    2.067024    5.049314
     28          6           0        4.744549    1.179787    3.790529
     29          6           0        5.823591    4.300258    4.973371
     30          6           0        3.368434    1.812900    5.978824
     31          6           0        2.095208    1.779963    5.163404
     32          7           0        4.964509   -0.799599    1.569779
     33          6           0        5.007266   -1.113868    2.935825
     34          6           0        5.237265   -2.566712    3.037867
     35          6           0        5.329464   -2.996857    1.715627
     36          6           0        5.193534   -1.879244    0.843414
     37          6           0        5.392157   -3.303148    4.245387
     38          6           0        5.535790   -4.136929    0.837264
     39          8           0        5.616207   -5.355091    1.001906
     40          6           0        5.787695   -3.593543   -0.638236
     41          6           0        4.917981   -4.391465   -1.571096
     42          8           0        3.674524   -4.296378   -1.524848
     43          8           0        5.682399   -4.953544   -2.519923
     44          6           0        4.877519   -5.735750   -3.495871
     45          1           0        6.366087    2.852516   -3.154610
     46          1           0        4.419517    5.086702    2.336591
     47          1           0        4.851392   -0.635998    4.886764
     48          1           0        6.831585   -2.066782   -3.179869
     49          1           0        6.444175    0.510141   -4.255430
     50          1           0        8.574814   -0.677843   -2.519069
     51          1           0        8.327093    1.084330   -2.319954
     52          1           0        8.747863    0.483040   -3.898557
     53          1           0        4.341124   -0.613565   -4.094787
     54          1           0        4.141712   -2.254614   -3.360166
     55          1           0        6.139592   -2.406245   -5.378206
     56          1           0        5.029368   -1.225513   -5.962266
     57          1           0        5.545226    4.711355   -3.714756
     58          1           0        5.632188    6.199362   -2.852035
     59          1           0        4.033743    5.647267   -3.415488
     60          1           0        4.387864    7.658542   -1.694782
     61          1           0        2.978627    8.326799   -0.696804
     62          1           0        2.790570    6.970544   -1.840542
     63          1           0        3.771003    4.067325    4.581757
     64          1           0        5.447226    1.864886    5.680632
     65          1           0        5.500513    5.208283    5.483091
     66          1           0        6.540465    4.528271    4.185087
     67          1           0        6.442626    3.740438    5.673952
     68          1           0        3.266761    2.623411    6.699712
     69          1           0        3.442172    0.879654    6.537273
     70          1           0        1.838913    2.834634    5.069519
     71          1           0        1.315847    1.234782    5.696870
     72          1           0        2.275824    1.397816    4.158502
     73          1           0        4.807337   -4.214835    4.123804
     74          1           0        5.053771   -2.727357    5.106528
     75          1           0        6.470249   -3.463049    4.247511
     76          1           0        6.847900   -3.733230   -0.846982
     77          1           0        5.284585   -6.746849   -3.510372
     78          1           0        4.888853   -5.172313   -4.429046
     79          1           0        3.842129   -5.934733   -3.217099
     80         12           0       -5.657141   -0.084457   -0.372003
     81          6           0       -3.012120   -2.479044    0.013809
     82          6           0       -3.291428    2.136136   -1.424124
     83          6           0       -7.884625    2.173776   -0.293611
     84          6           0       -7.579403   -2.073570    1.747922
     85          7           0       -3.467935   -0.266196   -0.630060
     86          6           0       -2.581194   -1.242870   -0.511182
     87          6           0       -1.169048   -0.899391   -1.056541
     88          6           0       -1.246008    0.699885   -0.933035
     89          6           0       -2.759054    0.880508   -1.036733
     90          6           0       -0.794431    1.221344    0.421035
     91          6           0       -0.977449   -1.351871   -2.546704
     92          6           0        0.469306   -1.328782   -3.044843
     93          1           0        0.897680   -2.359287   -3.986656
     94          7           0       -5.709039    1.698973   -1.241059
     95          6           0       -4.654140    2.449598   -1.621873
     96          6           0       -5.221648    3.681743   -2.191006
     97          6           0       -6.692509    3.668771   -1.964918
     98          6           0       -6.819154    2.497550   -1.120934
     99          6           0       -4.396208    4.687825   -2.939258
    100          6           0       -7.800042    4.569658   -2.420945
    101          8           0       -8.973605    4.505938   -1.909570
    102          6           0       -7.446054    5.591101   -3.417356
    103          7           0       -7.391294    0.147080    0.751141
    104          6           0       -8.209746    1.194966    0.551118
    105          6           0       -9.522846    1.007068    1.272812
    106          6           0       -9.509043   -0.501262    1.804172
    107          6           0       -8.090382   -0.914829    1.354989
    108          6           0       -9.780615    1.956221    2.442874
    109          6           0      -10.706065   -1.402569    1.394951
    110          6           0      -10.673435   -1.659066   -0.094524
    111          7           0       -5.448808   -2.026472    0.551698
    112          6           0       -6.361937   -2.658543    1.423918
    113          6           0       -5.729723   -3.912786    1.881741
    114          6           0       -4.473353   -3.912123    1.257227
    115          6           0       -4.324486   -2.730400    0.482055
    116          6           0       -6.296076   -4.843837    2.797445
    117          6           0       -3.234994   -4.637260    1.085939
    118          8           0       -2.821244   -5.743447    1.430755
    119          6           0       -2.183764   -3.681023    0.373951
    120          6           0       -1.541021   -4.450448   -0.747366
    121          8           0       -2.212222   -4.818232   -1.727580
    122          8           0       -0.205685   -4.436047   -0.582901
    123          6           0        0.477049   -5.177205   -1.676699
    124          1           0       -2.605391    2.974436   -1.548584
    125          1           0       -8.727795    2.868027   -0.317157
    126          1           0       -8.152818   -2.796231    2.332401
    127          1           0       -0.347412   -1.279190   -0.461191
    128          1           0       -0.746026    1.184998   -1.767320
    129          1           0       -0.607554    0.419416    1.119695
    130          1           0       -1.598324    1.852813    0.776093
    131          1           0        0.073422    1.876390    0.302401
    132          1           0       -1.416577   -0.595474   -3.209858
    133          1           0       -1.399188   -2.325107   -2.706597
    134          1           0        1.187561   -1.238686   -2.220865
    135          1           0        0.619655   -0.419627   -3.632071
    136          1           0       -3.322591    4.510492   -2.800333
    137          1           0       -4.573938    5.660812   -2.468555
    138          1           0       -4.665743    4.751783   -3.995639
    139          1           0       -6.660016    6.227777   -3.018279
    140          1           0       -8.386430    6.077231   -3.684286
    141          1           0       -7.028823    5.090678   -4.298330
    142          1           0      -10.358171    1.133245    0.595011
    143          1           0       -9.516296   -0.546192    2.903153
    144          1           0      -10.716689    2.536293    2.336291
    145          1           0       -8.931067    2.619373    2.537998
    146          1           0       -9.814998    1.482823    3.422623
    147          1           0      -11.650995   -0.894127    1.601705
    148          1           0      -10.730228   -2.352514    1.918415
    149          1           0      -11.155011   -0.768317   -0.508929
    150          1           0      -11.231754   -2.560105   -0.340391
    151          1           0       -9.642942   -1.680457   -0.467713
    152          1           0       -6.104878   -5.830375    2.396582
    153          1           0       -7.361196   -4.669076    2.934394
    154          1           0       -5.722122   -4.606301    3.697113
    155          1           0       -1.458124   -3.372999    1.127702
    156          1           0        1.101753   -5.941117   -1.203548
    157          1           0        0.993172   -4.408282   -2.281763
    158          1           0       -0.138144   -5.782995   -2.331675
 ---------------------------------------------------------------------

 SCF Done:  E(RCAM-B3LYP) =  -4069.81393493     A.U. after   19 cycles

 Excitation energies and oscillator strengths:

 Excited State   1:      Singlet-A      1.6523 eV  750.38 nm  f=0.0021  <S**2>=0.000
     309 -> 315        0.12040
     310 -> 316       -0.11702
     311 -> 313        0.49007
     312 -> 314       -0.48204
 This state for optimization and/or second-order correction.
 Total Energy, E(TD-HF/TD-DFT) =  -4069.75321416
 Copying the excited state density for this state as the 1-particle RhoCI density.

 Excited State   2:      Singlet-A      1.6977 eV  730.30 nm  f=0.7053  <S**2>=0.000
     309 -> 315        0.12650
     310 -> 316        0.12727
     311 -> 313        0.47994
     312 -> 314        0.48802

 Excited State   3:      Singlet-A      2.1820 eV  568.22 nm  f=0.0932  <S**2>=0.000
     309 -> 313        0.12277
     310 -> 314        0.63160
     312 -> 316       -0.26586

 Excited State   4:      Singlet-A      2.1949 eV  564.86 nm  f=0.1064  <S**2>=0.000
     309 -> 313        0.62857
     310 -> 314       -0.12110
     311 -> 315       -0.27428

 Excited State   5:      Singlet-A      2.3336 eV  531.29 nm  f=0.0000  <S**2>=0.000
     312 -> 313        0.70632

 The electronic state is 1-A.
 Alpha  occ. eigenvalues --  -46.88214 -46.87359 -19.26892 -19.25068 -19.19779
 Alpha  occ. eigenvalues --  -19.19202 -19.18536 -19.18474 -19.18223 -19.17604
 Alpha  occ. eigenvalues --  -14.42846 -14.42191 -14.41835 -14.41060 -14.39815
 Alpha  occ. eigenvalues --  -14.39055 -14.38983 -14.38287 -10.39754 -10.38143
 Alpha  occ. eigenvalues --  -10.35835 -10.35158 -10.34769 -10.33754 -10.32235
 Alpha  occ. eigenvalues --  -10.31784 -10.31330 -10.30973 -10.30950 -10.30890
 Alpha  occ. eigenvalues --  -10.30677 -10.30579 -10.30277 -10.30091 -10.30033
 Alpha  occ. eigenvalues --  -10.30002 -10.29900 -10.29888 -10.29640 -10.29596
 Alpha  occ. eigenvalues --  -10.29169 -10.29141 -10.29100 -10.28919 -10.28772
 Alpha  occ. eigenvalues --  -10.28481 -10.28271 -10.28160 -10.28102 -10.28069
 Alpha  occ. eigenvalues --  -10.28052 -10.27971 -10.27862 -10.27814 -10.27811
 Alpha  occ. eigenvalues --  -10.27805 -10.27756 -10.27694 -10.27616 -10.27381
 Alpha  occ. eigenvalues --  -10.27296 -10.27271 -10.27172 -10.27146 -10.27127
 Alpha  occ. eigenvalues --  -10.27121 -10.26813 -10.26553 -10.26452 -10.26433
 Alpha  occ. eigenvalues --  -10.26383 -10.26239 -10.26195 -10.26070 -10.25943
 Alpha  occ. eigenvalues --  -10.25793 -10.25704 -10.25652 -10.25582 -10.25201
 Alpha  occ. eigenvalues --  -10.25195 -10.25169 -10.24976 -10.24545 -10.24541
 Alpha  occ. eigenvalues --  -10.24388  -3.16957  -3.16110  -1.91840  -1.91424
 Alpha  occ. eigenvalues --   -1.91266  -1.90992  -1.90581  -1.90417  -1.17255
 Alpha  occ. eigenvalues --   -1.15441  -1.09006  -1.08166  -1.07604  -1.07338
 Alpha  occ. eigenvalues --   -1.06732  -1.05966  -1.04978  -1.04173  -1.04145
 Alpha  occ. eigenvalues --   -1.03623  -1.03357  -1.02797  -1.02743  -1.01806
 Alpha  occ. eigenvalues --   -0.92382  -0.91582  -0.89870  -0.89565  -0.89205
 Alpha  occ. eigenvalues --   -0.88784  -0.88623  -0.88198  -0.88050  -0.87955
 Alpha  occ. eigenvalues --   -0.87661  -0.87492  -0.87355  -0.86867  -0.85364
 Alpha  occ. eigenvalues --   -0.84621  -0.84277  -0.83582  -0.83345  -0.83046
 Alpha  occ. eigenvalues --   -0.82694  -0.82259  -0.82028  -0.81005  -0.80904
 Alpha  occ. eigenvalues --   -0.79790  -0.79169  -0.78356  -0.77575  -0.77325
 Alpha  occ. eigenvalues --   -0.76814  -0.76392  -0.76319  -0.75279  -0.75242
 Alpha  occ. eigenvalues --   -0.74377  -0.73133  -0.72393  -0.72042  -0.71213
 Alpha  occ. eigenvalues --   -0.70222  -0.69510  -0.69252  -0.68447  -0.68028
 Alpha  occ. eigenvalues --   -0.67611  -0.67237  -0.66798  -0.65681  -0.65268
 Alpha  occ. eigenvalues --   -0.65013  -0.64844  -0.64620  -0.64431  -0.64120
 Alpha  occ. eigenvalues --   -0.63835  -0.62776  -0.61405  -0.60819  -0.60183
 Alpha  occ. eigenvalues --   -0.60071  -0.59441  -0.59370  -0.58902  -0.58631
 Alpha  occ. eigenvalues --   -0.58073  -0.58024  -0.57690  -0.57055  -0.56755
 Alpha  occ. eigenvalues --   -0.56690  -0.56459  -0.55909  -0.55894  -0.55741
 Alpha  occ. eigenvalues --   -0.55282  -0.55016  -0.54923  -0.54659  -0.54284
 Alpha  occ. eigenvalues --   -0.53822  -0.53677  -0.53625  -0.53529  -0.53389
 Alpha  occ. eigenvalues --   -0.53152  -0.52844  -0.52758  -0.52739  -0.52373
 Alpha  occ. eigenvalues --   -0.52334  -0.52226  -0.52029  -0.52004  -0.51574
 Alpha  occ. eigenvalues --   -0.51559  -0.51223  -0.50960  -0.50714  -0.50367
 Alpha  occ. eigenvalues --   -0.50285  -0.50252  -0.49918  -0.49701  -0.49636
 Alpha  occ. eigenvalues --   -0.49593  -0.49455  -0.49176  -0.49023  -0.48841
 Alpha  occ. eigenvalues --   -0.48810  -0.48795  -0.48703  -0.48130  -0.48081
 Alpha  occ. eigenvalues --   -0.48026  -0.47931  -0.47680  -0.47199  -0.47154
 Alpha  occ. eigenvalues --   -0.46958  -0.46780  -0.46695  -0.46536  -0.46355
 Alpha  occ. eigenvalues --   -0.46213  -0.46165  -0.45951  -0.45611  -0.45539
 Alpha  occ. eigenvalues --   -0.45199  -0.44968  -0.44894  -0.44869  -0.44520
 Alpha  occ. eigenvalues --   -0.44448  -0.44406  -0.44142  -0.44039  -0.43927
 Alpha  occ. eigenvalues --   -0.43793  -0.43753  -0.43741  -0.43488  -0.43401
 Alpha  occ. eigenvalues --   -0.43237  -0.43069  -0.42997  -0.42670  -0.42535
 Alpha  occ. eigenvalues --   -0.42362  -0.42300  -0.42080  -0.41908  -0.41709
 Alpha  occ. eigenvalues --   -0.41568  -0.41505  -0.41263  -0.41241  -0.41207
 Alpha  occ. eigenvalues --   -0.41068  -0.40906  -0.40655  -0.40629  -0.40433
 Alpha  occ. eigenvalues --   -0.40356  -0.40152  -0.39763  -0.39741  -0.39187
 Alpha  occ. eigenvalues --   -0.38808  -0.38142  -0.38072  -0.37679  -0.37667
 Alpha  occ. eigenvalues --   -0.37274  -0.37222  -0.36972  -0.36790  -0.36615
 Alpha  occ. eigenvalues --   -0.36134  -0.35429  -0.34682  -0.34431  -0.33932
 Alpha  occ. eigenvalues --   -0.33589  -0.33118  -0.32764  -0.31731  -0.31430
 Alpha  occ. eigenvalues --   -0.31030  -0.30632  -0.30401  -0.29843  -0.29691
 Alpha  occ. eigenvalues --   -0.29483  -0.29040  -0.28889  -0.24480  -0.23711
 Alpha  occ. eigenvalues --   -0.21505  -0.20820
 Alpha virt. eigenvalues --   -0.09158  -0.08485  -0.02140  -0.01395  -0.00451
 Alpha virt. eigenvalues --    0.00237   0.01813   0.02015   0.02572   0.03518
 Alpha virt. eigenvalues --    0.04237   0.04365   0.05001   0.05508   0.06038

 Mulliken charges:
               1
     1  Mg   0.830100
     2  C   -0.004635
     3  C   -0.094121
     4  C   -0.045228
     5  C   -0.062965
     6  N   -0.257126
     7  C   -0.053466
     8  C   -0.013809
     9  C   -0.086835
    10  C    0.045871
    11  C    0.104593
    12  C    0.049376
    13  C   -0.072364
    14  H    0.036182
    15  N   -0.433591
    16  C    0.167083
    17  C   -0.178085
    18  C   -0.004783
    19  C    0.147158
    20  C    0.110205
    21  C    0.011099
    22  O   -0.248920
    23  C    0.063123
    24  N   -0.340500
    25  C    0.040855
    26  C   -0.028261
    27  C   -0.024275
    28  C    0.074564
    29  C    0.075890
    30  C    0.034914
    31  C   -0.004739
    32  N   -0.311360
    33  C    0.080480
    34  C   -0.167854
    35  C    0.009724
    36  C    0.083278
    37  C    0.126729
    38  C    0.047285
    39  O   -0.186489
    40  C   -0.006216
    41  C    0.216397
    42  O   -0.256751
    43  O   -0.302684
    44  C    0.157805
    45  H   -0.017075
    46  H   -0.016410
    47  H   -0.040002
    48  H    0.001433
    49  H   -0.003780
    50  H    0.025863
    51  H    0.016922
    52  H    0.017479
    53  H    0.011537
    54  H    0.045799
    55  H    0.018815
    56  H    0.018687
    57  H    0.006359
    58  H    0.027751
    59  H    0.038155
    60  H    0.038371
    61  H    0.036237
    62  H    0.029201
    63  H    0.016717
    64  H    0.010426
    65  H    0.023855
    66  H    0.012763
    67  H    0.005531
    68  H    0.007340
    69  H    0.005942
    70  H    0.008750
    71  H    0.019654
    72  H    0.027149
    73  H    0.050211
    74  H    0.010101
    75  H    0.046631
    76  H    0.036849
    77  H    0.045865
    78  H    0.048210
    79  H    0.050088
    80  Mg   0.836810
    81  C   -0.016447
    82  C   -0.087968
    83  C   -0.046106
    84  C   -0.066014
    85  N   -0.254180
    86  C   -0.050308
    87  C   -0.016036
    88  C   -0.091079
    89  C    0.045435
    90  C    0.109201
    91  C    0.065082
    92  C   -0.081470
    93  H    0.035462
    94  N   -0.423330
    95  C    0.162353
    96  C   -0.175092
    97  C   -0.008540
    98  C    0.151909
    99  C    0.099823
   100  C    0.015090
   101  O   -0.253956
   102  C    0.061412
   103  N   -0.350300
   104  C    0.037236
   105  C   -0.019561
   106  C   -0.034812
   107  C    0.089360
   108  C    0.073921
   109  C    0.034914
   110  C   -0.007559
   111  N   -0.324241
   112  C    0.078972
   113  C   -0.163866
   114  C    0.002905
   115  C    0.095728
   116  C    0.131605
   117  C    0.041393
   118  O   -0.185843
   119  C    0.003025
   120  C    0.209446
   121  O   -0.255811
   122  O   -0.302506
   123  C    0.160039
   124  H   -0.020539
   125  H   -0.016448
   126  H   -0.041144
   127  H    0.004987
   128  H   -0.005594
   129  H    0.024079
   130  H    0.014677
   131  H    0.018989
   132  H    0.010337
   133  H    0.038550
   134  H    0.032363
   135  H    0.013428
   136  H    0.007366
   137  H    0.025460
   138  H    0.038325
   139  H    0.037824
   140  H    0.035584
   141  H    0.033270
   142  H    0.013850
   143  H    0.011918
   144  H    0.024479
   145  H    0.011573
   146  H    0.005067
   147  H    0.005672
   148  H    0.003388
   149  H    0.010626
   150  H    0.017465
   151  H    0.030526
   152  H    0.046182
   153  H    0.007797
   154  H    0.046558
   155  H    0.036544
   156  H    0.045602
   157  H    0.056713
   158  H    0.039354
 Sum of Mulliken charges =  -0.00000

 Dipole moment (field-independent basis, Debye):
    X=              4.9461    Y=              6.3283    Z=             -2.9532  Tot=              8.5576
 Quadrupole moment (field-independent basis, Debye-Ang):
   XX=           -494.6849   YY=           -560.2883   ZZ=           -464.5160
   XY=             18.3267   XZ=            -36.0081   YZ=             -8.7895

 Normal termination of Gaussian 16 at Fri Sep 10 20:04:13 2021.
