 Gaussian 16, Revision A.03,
 Gaussian 16:  ES64L-G16RevA.03 25-Dec-2016

 -----------------------------------
 #p cam-b3lyp/Def2SVP td=(nstates=5)
 -----------------------------------

 --------------------------------
 TDDFT excited states in gaussian
 --------------------------------
 Symbolic Z-matrix:
 Charge =  0 Multiplicity = 1

                         Standard orientation:
 ---------------------------------------------------------------------
 Center     Atomic      Atomic             Coordinates (Angstroms)
 Number     Number       Type             X           Y           Z
 ---------------------------------------------------------------------
      1         12           0       -3.909402   -0.325262    0.545656
      2          6           0       -3.799919    3.196507   -0.084717
      3          6           0       -5.226538   -0.693156   -2.580503
      4          6           0       -4.437783   -3.372914    1.245124
      5          6           0       -3.668354    0.424361    3.940596
      6          7           0       -4.402046    1.141194   -1.037838
      7          6           0       -4.256100    2.455165   -1.176943
      8          6           0       -4.561987    2.961606   -2.618236
      9          6           0       -5.517388    1.780652   -3.102543
     10          6           0       -4.995464    0.665825   -2.213341
     11          6           0       -6.989492    2.017110   -2.780829
     12          6           0       -3.272720    3.054420   -3.501924
     13          6           0       -3.429592    3.842243   -4.805796
     14          1           0       -2.309134    4.639600   -5.281340
     15          7           0       -4.249150   -1.870895   -0.636902
     16          6           0       -4.774862   -1.835559   -1.884966
     17          6           0       -4.827046   -3.239904   -2.345153
     18          6           0       -4.466071   -4.110363   -1.191857
     19          6           0       -4.394482   -3.141870   -0.127774
     20          6           0       -5.142084   -3.632281   -3.756019
     21          6           0       -4.234321   -5.582998   -1.066270
     22          8           0       -4.158693   -6.165216    0.069457
     23          6           0       -4.185827   -6.350011   -2.324198
     24          7           0       -4.257712   -1.330234    2.341860
     25          6           0       -4.396877   -2.660145    2.372747
     26          6           0       -4.352773   -3.181249    3.778608
     27          6           0       -3.908892   -1.949635    4.692857
     28          6           0       -3.851414   -0.853468    3.600436
     29          6           0       -5.664977   -3.768897    4.316011
     30          6           0       -2.667467   -2.156172    5.596529
     31          6           0       -1.428377   -2.299515    4.741422
     32          7           0       -3.582199    1.459726    1.736370
     33          6           0       -3.541355    1.544072    3.135617
     34          6           0       -3.404441    2.971565    3.478527
     35          6           0       -3.391735    3.624212    2.247375
     36          6           0       -3.539410    2.667623    1.202663
     37          6           0       -3.368329    3.512927    4.793843
     38          6           0       -3.312507    4.909522    1.572425
     39          8           0       -3.088513    6.065952    1.932967
     40          6           0       -3.695896    4.696092    0.041645
     41          6           0       -2.658909    5.401504   -0.789235
     42          8           0       -1.477483    5.000258   -0.813735
     43          8           0       -3.263647    6.281996   -1.601372
     44          6           0       -2.293509    6.995313   -2.474393
     45          1           0       -5.859354   -0.906251   -3.444260
     46          1           0       -4.507849   -4.425284    1.528049
     47          1           0       -3.502091    0.726122    4.976333
     48          1           0       -5.093457    3.912390   -2.662654
     49          1           0       -5.359168    1.533690   -4.152161
     50          1           0       -7.123915    2.899912   -2.155918
     51          1           0       -7.319188    1.122584   -2.252042
     52          1           0       -7.583347    2.061261   -3.694154
     53          1           0       -3.042973    2.068965   -3.907086
     54          1           0       -2.441343    3.466943   -2.929243
     55          1           0       -4.346275    4.432666   -4.806904
     56          1           0       -3.564609    3.130817   -5.620562
     57          1           0       -5.525734   -2.789654   -4.329898
     58          1           0       -5.975261   -4.333477   -3.713010
     59          1           0       -4.291793   -4.101616   -4.251055
     60          1           0       -5.126785   -6.222657   -2.859855
     61          1           0       -3.923380   -7.369740   -2.044689
     62          1           0       -3.409428   -5.929863   -2.964220
     63          1           0       -3.619877   -3.981080    3.876379
     64          1           0       -4.695476   -1.650367    5.385965
     65          1           0       -5.574896   -4.799779    4.659336
     66          1           0       -6.418583   -3.681639    3.533863
     67          1           0       -6.123950   -3.199311    5.123682
     68          1           0       -2.767084   -3.074962    6.173459
     69          1           0       -2.506183   -1.338915    6.299615
     70          1           0       -1.441281   -3.354246    4.469011
     71          1           0       -0.536606   -2.056653    5.320191
     72          1           0       -1.512163   -1.723805    3.819455
     73          1           0       -2.576548    4.261962    4.793774
     74          1           0       -3.180060    2.737578    5.536131
     75          1           0       -4.373337    3.927839    4.869097
     76          1           0       -4.689271    5.122279   -0.095071
     77          1           0       -2.437827    8.063071   -2.309171
     78          1           0       -2.446971    6.614276   -3.484177
     79          1           0       -1.240161    6.887212   -2.213412
     80         12           0        3.926580   -1.195451   -0.434904
     81          6           0        4.238399    2.190110    0.713930
     82          6           0        2.810135    0.070860   -3.398782
     83          6           0        3.215022   -4.158482   -1.318972
     84          6           0        3.960521   -2.185707    2.906346
     85          7           0        3.609475    0.879684   -1.131684
     86          6           0        3.820784    2.086891   -0.629341
     87          6           0        3.647744    3.246284   -1.646892
     88          6           0        2.666436    2.511429   -2.684154
     89          6           0        3.072460    1.062884   -2.420438
     90          6           0        1.195746    2.666475   -2.334376
     91          6           0        5.002427    3.652108   -2.326702
     92          6           0        4.964901    4.974046   -3.096671
     93          1           0        6.156629    5.817961   -3.089182
     94          7           0        3.601105   -1.954050   -2.239670
     95          6           0        3.170914   -1.292984   -3.334751
     96          6           0        3.072373   -2.301858   -4.400874
     97          6           0        3.321336   -3.641806   -3.803157
     98          6           0        3.369313   -3.298030   -2.396173
     99          6           0        2.846270   -1.944279   -5.841165
    100          6           0        3.476205   -5.008569   -4.398274
    101          8           0        3.449231   -6.065487   -3.673686
    102          6           0        3.566728   -5.078986   -5.863995
    103          7           0        3.417735   -2.902824    0.636681
    104          6           0        3.209419   -4.074893    0.011560
    105          6           0        3.129795   -5.213727    1.000047
    106          6           0        3.571031   -4.593459    2.406522
    107          6           0        3.751402   -3.118043    1.987009
    108          6           0        1.759460   -5.875550    1.143441
    109          6           0        4.737807   -5.298038    3.151439
    110          6           0        6.025754   -5.117933    2.380635
    111          7           0        4.255512   -0.230555    1.470039
    112          6           0        4.198345   -0.826255    2.749081
    113          6           0        4.377177    0.253958    3.740847
    114          6           0        4.503974    1.415671    2.964419
    115          6           0        4.390549    1.085727    1.586818
    116          6           0        4.357883    0.096151    5.155361
    117          6           0        4.697349    2.847526    2.997381
    118          8           0        4.941370    3.671090    3.878264
    119          6           0        4.407565    3.430119    1.547217
    120          6           0        5.529232    4.366556    1.190177
    121          8           0        6.685842    3.936953    1.034295
    122          8           0        5.015861    5.570940    0.879874
    123          6           0        6.088879    6.531253    0.508049
    124          1           0        2.236404    0.352360   -4.282240
    125          1           0        3.077938   -5.212123   -1.573008
    126          1           0        4.081078   -2.426210    3.964783
    127          1           0        3.170360    4.133297   -1.248026
    128          1           0        2.894639    2.790763   -3.709461
    129          1           0        1.057746    3.147252   -1.377314
    130          1           0        0.790444    1.663262   -2.315747
    131          1           0        0.670033    3.189020   -3.138685
    132          1           0        5.210232    2.959536   -3.152481
    133          1           0        5.797760    3.675393   -1.607312
    134          1           0        4.073357    5.565907   -2.856280
    135          1           0        4.860417    4.752526   -4.161574
    136          1           0        2.535552   -0.898044   -5.951885
    137          1           0        1.980473   -2.522272   -6.182013
    138          1           0        3.703040   -2.184525   -6.474323
    139          1           0        2.674336   -4.638745   -6.302491
    140          1           0        3.763451   -6.127801   -6.094578
    141          1           0        4.413740   -4.466164   -6.192052
    142          1           0        3.818729   -6.005890    0.733681
    143          1           0        2.748876   -4.614230    3.136909
    144          1           0        1.777689   -6.964066    0.946231
    145          1           0        1.069072   -5.379390    0.474322
    146          1           0        1.280336   -5.740333    2.111608
    147          1           0        4.556927   -6.374329    3.206419
    148          1           0        4.879012   -4.942921    4.166789
    149          1           0        5.976993   -5.912080    1.629607
    150          1           0        6.885243   -5.246219    3.035496
    151          1           0        6.034702   -4.160149    1.847505
    152          1           0        5.173546    0.689930    5.546029
    153          1           0        4.454348   -0.949502    5.440103
    154          1           0        3.364987    0.493485    5.382405
    155          1           0        3.444553    3.940713    1.585710
    156          1           0        5.979714    7.401472    1.162641
    157          1           0        5.974221    6.701114   -0.579034
    158          1           0        7.113245    6.241326    0.710718
 ---------------------------------------------------------------------

 SCF Done:  E(RCAM-B3LYP) =  -4069.81328959     A.U. after   19 cycles

 Excitation energies and oscillator strengths:

 Excited State   1:      Singlet-A      1.6409 eV  755.57 nm  f=0.0366  <S**2>=0.000
     309 -> 315       -0.11092
     310 -> 316        0.12159
     311 -> 313       -0.45980
     312 -> 314        0.51188
 This state for optimization and/or second-order correction.
 Total Energy, E(TD-HF/TD-DFT) =  -4069.75298595
 Copying the excited state density for this state as the 1-particle RhoCI density.

 Excited State   2:      Singlet-A      1.7046 eV  727.36 nm  f=0.6390  <S**2>=0.000
     309 -> 315        0.13611
     310 -> 316        0.11956
     311 -> 313        0.50873
     312 -> 314        0.45695

 Excited State   3:      Singlet-A      2.1766 eV  569.62 nm  f=0.0305  <S**2>=0.000
     309 -> 313       -0.28789
     310 -> 314        0.57875
     311 -> 315        0.11684
     312 -> 316       -0.23583

 Excited State   4:      Singlet-A      2.1987 eV  563.91 nm  f=0.1425  <S**2>=0.000
     309 -> 313        0.57184
     310 -> 314        0.28211
     311 -> 315       -0.25400
     312 -> 316       -0.12649

 Excited State   5:      Singlet-A      2.2128 eV  560.30 nm  f=0.0001  <S**2>=0.000
     312 -> 313        0.70674

 The electronic state is 1-A.
 Alpha  occ. eigenvalues --  -46.87951 -46.87337 -19.26715 -19.25898 -19.19545
 Alpha  occ. eigenvalues --  -19.18890 -19.18747 -19.18523 -19.18340 -19.17690
 Alpha  occ. eigenvalues --  -14.42624 -14.42125 -14.41604 -14.41038 -14.39547
 Alpha  occ. eigenvalues --  -14.39045 -14.38739 -14.38276 -10.39541 -10.38664
 Alpha  occ. eigenvalues --  -10.35518 -10.35209 -10.34574 -10.33851 -10.32111
 Alpha  occ. eigenvalues --  -10.31594 -10.31348 -10.31109 -10.30901 -10.30730
 Alpha  occ. eigenvalues --  -10.30646 -10.30635 -10.30341 -10.30097 -10.30067
 Alpha  occ. eigenvalues --  -10.30036 -10.29861 -10.29765 -10.29578 -10.29385
 Alpha  occ. eigenvalues --  -10.29152 -10.29118 -10.29043 -10.29008 -10.28529
 Alpha  occ. eigenvalues --  -10.28362 -10.28277 -10.28133 -10.28068 -10.27927
 Alpha  occ. eigenvalues --  -10.27893 -10.27713 -10.27701 -10.27630 -10.27605
 Alpha  occ. eigenvalues --  -10.27591 -10.27583 -10.27494 -10.27416 -10.27324
 Alpha  occ. eigenvalues --  -10.27317 -10.27257 -10.27198 -10.27136 -10.27118
 Alpha  occ. eigenvalues --  -10.27078 -10.26577 -10.26442 -10.26411 -10.26317
 Alpha  occ. eigenvalues --  -10.26317 -10.26259 -10.26159 -10.25925 -10.25893
 Alpha  occ. eigenvalues --  -10.25643 -10.25635 -10.25550 -10.25043 -10.24975
 Alpha  occ. eigenvalues --  -10.24939 -10.24931 -10.24845 -10.24560 -10.24528
 Alpha  occ. eigenvalues --  -10.24375  -3.16693  -3.16088  -1.91574  -1.91161
 Alpha  occ. eigenvalues --   -1.91003  -1.90970  -1.90558  -1.90396  -1.17068
 Alpha  occ. eigenvalues --   -1.16201  -1.08816  -1.08284  -1.07287  -1.07111
 Alpha  occ. eigenvalues --   -1.06782  -1.06529  -1.04761  -1.04120  -1.03916
 Alpha  occ. eigenvalues --   -1.03380  -1.03329  -1.02729  -1.02563  -1.01788
 Alpha  occ. eigenvalues --   -0.92167  -0.91611  -0.89671  -0.89452  -0.89202
 Alpha  occ. eigenvalues --   -0.88590  -0.88436  -0.87993  -0.87922  -0.87860
 Alpha  occ. eigenvalues --   -0.87507  -0.87385  -0.87327  -0.86901  -0.85230
 Alpha  occ. eigenvalues --   -0.84552  -0.84096  -0.83584  -0.83072  -0.82857
 Alpha  occ. eigenvalues --   -0.82739  -0.82233  -0.81850  -0.81222  -0.80794
 Alpha  occ. eigenvalues --   -0.80096  -0.78922  -0.78375  -0.77408  -0.77185
 Alpha  occ. eigenvalues --   -0.76805  -0.76463  -0.76153  -0.75341  -0.75061
 Alpha  occ. eigenvalues --   -0.74452  -0.72923  -0.72376  -0.71854  -0.71154
 Alpha  occ. eigenvalues --   -0.70054  -0.69479  -0.69097  -0.68405  -0.67818
 Alpha  occ. eigenvalues --   -0.67462  -0.67291  -0.66851  -0.65537  -0.65064
 Alpha  occ. eigenvalues --   -0.64837  -0.64823  -0.64426  -0.64422  -0.64261
 Alpha  occ. eigenvalues --   -0.63895  -0.62585  -0.61900  -0.60564  -0.60086
 Alpha  occ. eigenvalues --   -0.60024  -0.59329  -0.59166  -0.58691  -0.58646
 Alpha  occ. eigenvalues --   -0.58081  -0.57856  -0.57471  -0.57163  -0.56922
 Alpha  occ. eigenvalues --   -0.56493  -0.56285  -0.55901  -0.55672  -0.55551
 Alpha  occ. eigenvalues --   -0.55496  -0.55142  -0.54920  -0.54781  -0.54167
 Alpha  occ. eigenvalues --   -0.54140  -0.53471  -0.53420  -0.53394  -0.53185
 Alpha  occ. eigenvalues --   -0.52941  -0.52896  -0.52791  -0.52593  -0.52567
 Alpha  occ. eigenvalues --   -0.52319  -0.52147  -0.52027  -0.51844  -0.51623
 Alpha  occ. eigenvalues --   -0.51389  -0.51252  -0.50850  -0.50662  -0.50284
 Alpha  occ. eigenvalues --   -0.50187  -0.50065  -0.49709  -0.49643  -0.49566
 Alpha  occ. eigenvalues --   -0.49411  -0.49312  -0.49105  -0.48856  -0.48830
 Alpha  occ. eigenvalues --   -0.48638  -0.48571  -0.48508  -0.48147  -0.48085
 Alpha  occ. eigenvalues --   -0.48030  -0.47884  -0.47462  -0.47217  -0.46981
 Alpha  occ. eigenvalues --   -0.46829  -0.46807  -0.46532  -0.46366  -0.46325
 Alpha  occ. eigenvalues --   -0.46096  -0.46037  -0.45971  -0.45759  -0.45437
 Alpha  occ. eigenvalues --   -0.45353  -0.44869  -0.44780  -0.44687  -0.44320
 Alpha  occ. eigenvalues --   -0.44293  -0.44183  -0.44181  -0.44115  -0.43805
 Alpha  occ. eigenvalues --   -0.43742  -0.43620  -0.43615  -0.43581  -0.43212
 Alpha  occ. eigenvalues --   -0.43172  -0.43053  -0.42938  -0.42818  -0.42551
 Alpha  occ. eigenvalues --   -0.42510  -0.42277  -0.42210  -0.41896  -0.41774
 Alpha  occ. eigenvalues --   -0.41635  -0.41325  -0.41288  -0.41104  -0.41052
 Alpha  occ. eigenvalues --   -0.40971  -0.40733  -0.40572  -0.40537  -0.40460
 Alpha  occ. eigenvalues --   -0.40302  -0.40085  -0.39794  -0.39594  -0.39165
 Alpha  occ. eigenvalues --   -0.38647  -0.38075  -0.38016  -0.37491  -0.37481
 Alpha  occ. eigenvalues --   -0.37269  -0.37084  -0.36934  -0.36784  -0.36428
 Alpha  occ. eigenvalues --   -0.36380  -0.35852  -0.34457  -0.34207  -0.33910
 Alpha  occ. eigenvalues --   -0.33465  -0.33358  -0.32851  -0.31429  -0.31205
 Alpha  occ. eigenvalues --   -0.31077  -0.30619  -0.30208  -0.29582  -0.29576
 Alpha  occ. eigenvalues --   -0.29458  -0.29063  -0.28904  -0.24248  -0.23698
 Alpha  occ. eigenvalues --   -0.21280  -0.20787
 Alpha virt. eigenvalues --   -0.08919  -0.08485  -0.01900  -0.01371  -0.00191
 Alpha virt. eigenvalues --    0.00261   0.02041   0.02382   0.02634   0.03647
 Alpha virt. eigenvalues --    0.04422   0.04613   0.05130   0.05586   0.05730

 Mulliken charges:
               1
     1  Mg   0.838825
     2  C   -0.004381
     3  C   -0.094979
     4  C   -0.045416
     5  C   -0.063153
     6  N   -0.256657
     7  C   -0.053568
     8  C   -0.013643
     9  C   -0.086677
    10  C    0.045969
    11  C    0.104749
    12  C    0.049088
    13  C   -0.071138
    14  H    0.032242
    15  N   -0.433361
    16  C    0.168807
    17  C   -0.176930
    18  C   -0.002974
    19  C    0.148967
    20  C    0.110151
    21  C    0.013399
    22  O   -0.249487
    23  C    0.061987
    24  N   -0.340880
    25  C    0.041330
    26  C   -0.028266
    27  C   -0.023875
    28  C    0.074615
    29  C    0.076055
    30  C    0.034984
    31  C   -0.004623
    32  N   -0.310658
    33  C    0.080439
    34  C   -0.168537
    35  C    0.008509
    36  C    0.082734
    37  C    0.127062
    38  C    0.045815
    39  O   -0.187664
    40  C   -0.006259
    41  C    0.215514
    42  O   -0.259124
    43  O   -0.303585
    44  C    0.157503
    45  H   -0.017652
    46  H   -0.016536
    47  H   -0.040752
    48  H    0.001069
    49  H   -0.004733
    50  H    0.025743
    51  H    0.017171
    52  H    0.016827
    53  H    0.010347
    54  H    0.046363
    55  H    0.019729
    56  H    0.018181
    57  H    0.005130
    58  H    0.027319
    59  H    0.039884
    60  H    0.036754
    61  H    0.036904
    62  H    0.033281
    63  H    0.016159
    64  H    0.009927
    65  H    0.023395
    66  H    0.012744
    67  H    0.005123
    68  H    0.006193
    69  H    0.005507
    70  H    0.007131
    71  H    0.017374
    72  H    0.030905
    73  H    0.049354
    74  H    0.009781
    75  H    0.046060
    76  H    0.035861
    77  H    0.044776
    78  H    0.046071
    79  H    0.051811
    80  Mg   0.836300
    81  C   -0.016382
    82  C   -0.088240
    83  C   -0.046627
    84  C   -0.066065
    85  N   -0.255370
    86  C   -0.046722
    87  C   -0.015412
    88  C   -0.092615
    89  C    0.046923
    90  C    0.114137
    91  C    0.062514
    92  C   -0.076831
    93  H    0.032583
    94  N   -0.423386
    95  C    0.162998
    96  C   -0.176146
    97  C   -0.009025
    98  C    0.152110
    99  C    0.100340
   100  C    0.014207
   101  O   -0.253932
   102  C    0.061638
   103  N   -0.350551
   104  C    0.037718
   105  C   -0.019894
   106  C   -0.034498
   107  C    0.089385
   108  C    0.073544
   109  C    0.034874
   110  C   -0.007499
   111  N   -0.324385
   112  C    0.079196
   113  C   -0.163885
   114  C    0.003182
   115  C    0.095900
   116  C    0.131199
   117  C    0.042612
   118  O   -0.187684
   119  C    0.000605
   120  C    0.210429
   121  O   -0.252525
   122  O   -0.303424
   123  C    0.152708
   124  H   -0.021212
   125  H   -0.016502
   126  H   -0.041926
   127  H    0.006229
   128  H   -0.008347
   129  H    0.041090
   130  H    0.007878
   131  H    0.014143
   132  H    0.012289
   133  H    0.036688
   134  H    0.022124
   135  H    0.017794
   136  H    0.008076
   137  H    0.022995
   138  H    0.038949
   139  H    0.036371
   140  H    0.035449
   141  H    0.033985
   142  H    0.013532
   143  H    0.011770
   144  H    0.025071
   145  H    0.013299
   146  H    0.006032
   147  H    0.005849
   148  H    0.002713
   149  H    0.010719
   150  H    0.017183
   151  H    0.030468
   152  H    0.045791
   153  H    0.007424
   154  H    0.046036
   155  H    0.042771
   156  H    0.043879
   157  H    0.049026
   158  H    0.052254
 Sum of Mulliken charges =  -0.00000

 Dipole moment (field-independent basis, Debye):
    X=             -5.5393    Y=             -1.3357    Z=             -6.4885  Tot=              8.6353
 Quadrupole moment (field-independent basis, Debye-Ang):
   XX=           -518.9105   YY=           -542.7540   ZZ=           -457.1847
   XY=             -4.1669   XZ=              0.9935   YZ=            -42.8971

 Normal termination of Gaussian 16 at Thu Sep  9 03:37:02 2021.
