 Gaussian 16, Revision A.03,
 Gaussian 16:  ES64L-G16RevA.03 25-Dec-2016

 -----------------------------------
 #p cam-b3lyp/Def2SVP td=(nstates=5)
 -----------------------------------

 --------------------------------
 TDDFT excited states in gaussian
 --------------------------------
 Symbolic Z-matrix:
 Charge =  0 Multiplicity = 1

                         Standard orientation:
 ---------------------------------------------------------------------
 Center     Atomic      Atomic             Coordinates (Angstroms)
 Number     Number       Type             X           Y           Z
 ---------------------------------------------------------------------
      1         12           0       -5.138774   -0.956714    0.003188
      2          6           0       -5.471367    2.598644    0.250228
      3          6           0       -5.976802   -0.656927   -3.290882
      4          6           0       -5.295907   -4.121122   -0.132655
      5          6           0       -5.446855   -1.078559    3.472468
      6          7           0       -5.636372    0.801737   -1.246169
      7          6           0       -5.669664    2.115364   -1.045057
      8          6           0       -5.860385    2.936351   -2.355393
      9          6           0       -6.560972    1.819785   -3.252308
     10          6           0       -5.997933    0.579884   -2.580329
     11          6           0       -8.080758    1.800573   -3.124313
     12          6           0       -4.496786    3.395165   -2.973307
     13          6           0       -4.600504    4.467800   -4.061448
     14          1           0       -3.558728    5.479953   -4.148603
     15          7           0       -5.092473   -2.176261   -1.550328
     16          6           0       -5.453842   -1.881588   -2.822281
     17          6           0       -5.238680   -3.118236   -3.604003
     18          6           0       -4.903341   -4.208967   -2.646951
     19          6           0       -5.112202   -3.543196   -1.386593
     20          6           0       -5.309422   -3.169170   -5.099379
     21          6           0       -4.474454   -5.629427   -2.837955
     22          8           0       -4.459321   -6.470655   -1.875313
     23          6           0       -4.152838   -6.038752   -4.217106
     24          7           0       -5.561305   -2.420099    1.430636
     25          6           0       -5.505183   -3.720592    1.123141
     26          6           0       -5.564508   -4.575754    2.354042
     27          6           0       -5.427997   -3.577513    3.592844
     28          6           0       -5.394078   -2.239001    2.814701
     29          6           0       -6.833231   -5.423711    2.519334
     30          6           0       -4.295407   -3.868758    4.609129
     31          6           0       -2.949768   -3.649622    3.954657
     32          7           0       -5.233795    0.489198    1.619157
     33          6           0       -5.384955    0.216767    2.986493
     34          6           0       -5.505458    1.515085    3.674910
     35          6           0       -5.432178    2.458197    2.651673
     36          6           0       -5.302171    1.790427    1.400484
     37          6           0       -5.718081    1.702463    5.069226
     38          6           0       -5.458214    3.873958    2.321826
     39          8           0       -5.455507    4.917167    2.976960
     40          6           0       -5.607119    4.017927    0.742925
     41          6           0       -4.588224    5.023397    0.280115
     42          8           0       -3.367129    4.775952    0.351272
     43          8           0       -5.207694    6.009330   -0.386769
     44          6           0       -4.250144    7.025726   -0.898817
     45          1           0       -6.455589   -0.711066   -4.270563
     46          1           0       -5.245232   -5.211880   -0.121861
     47          1           0       -5.460706   -1.035242    4.563057
     48          1           0       -6.516461    3.801537   -2.258221
     49          1           0       -6.235215    1.868785   -4.291155
     50          1           0       -8.422895    2.473464   -2.338131
     51          1           0       -8.339449    0.769569   -2.882231
     52          1           0       -8.553022    2.010482   -4.084355
     53          1           0       -4.074064    2.578096   -3.557913
     54          1           0       -3.815554    3.737396   -2.193482
     55          1           0       -5.586645    4.932949   -4.069884
     56          1           0       -4.523692    3.978037   -5.032238
     57          1           0       -5.736904   -2.255926   -5.511435
     58          1           0       -6.028408   -3.946324   -5.357835
     59          1           0       -4.342909   -3.398505   -5.548366
     60          1           0       -5.026059   -5.884227   -4.851263
     61          1           0       -3.780445   -7.060254   -4.148496
     62          1           0       -3.371731   -5.385071   -4.606364
     63          1           0       -4.740012   -5.287196    2.376048
     64          1           0       -6.332198   -3.555068    4.201606
     65          1           0       -6.636387   -6.491450    2.618793
     66          1           0       -7.485296   -5.223760    1.669556
     67          1           0       -7.470721   -5.134502    3.354428
     68          1           0       -4.331015   -4.909750    4.928524
     69          1           0       -4.347833   -3.245870    5.502164
     70          1           0       -2.771740   -4.594207    3.441921
     71          1           0       -2.185008   -3.465144    4.709853
     72          1           0       -2.999247   -2.870240    3.193999
     73          1           0       -5.052249    2.509960    5.373507
     74          1           0       -5.513673    0.788977    5.627225
     75          1           0       -6.774660    1.969698    5.078249
     76          1           0       -6.626878    4.351514    0.553365
     77          1           0       -4.570597    7.992730   -0.510942
     78          1           0       -4.215338    6.901068   -1.981247
     79          1           0       -3.234454    6.972480   -0.505274
     80         12           0        5.444683   -0.576901    0.152863
     81          6           0        4.646555    2.917595    0.327674
     82          6           0        5.062396   -0.342233   -3.228468
     83          6           0        5.699395   -3.736101    0.004620
     84          6           0        4.648103   -0.786138    3.539215
     85          7           0        4.921655    1.122538   -1.162668
     86          6           0        4.700839    2.417033   -0.989869
     87          6           0        4.608199    3.235000   -2.305887
     88          6           0        4.181384    2.046636   -3.298103
     89          6           0        4.786783    0.866556   -2.540753
     90          6           0        2.677877    1.841282   -3.379440
     91          6           0        5.986454    3.861004   -2.718847
     92          6           0        5.907101    4.922140   -3.818595
     93          1           0        6.826073    6.055501   -3.759844
     94          7           0        5.869128   -1.760466   -1.382591
     95          6           0        5.669915   -1.498435   -2.691375
     96          6           0        6.128094   -2.694285   -3.415382
     97          6           0        6.460674   -3.747667   -2.418143
     98          6           0        5.992650   -3.115554   -1.200978
     99          6           0        6.290663   -2.729758   -4.907275
    100          6           0        7.083648   -5.105196   -2.541449
    101          8           0        7.060392   -5.947011   -1.575199
    102          6           0        7.639309   -5.454486   -3.857017
    103          7           0        5.007338   -2.091831    1.507866
    104          6           0        5.261619   -3.378590    1.212030
    105          6           0        5.125041   -4.256335    2.433218
    106          6           0        4.961635   -3.252718    3.667575
    107          6           0        4.941713   -1.911387    2.902197
    108          6           0        3.954570   -5.239270    2.418423
    109          6           0        5.961033   -3.416979    4.845241
    110          6           0        7.354462   -3.040238    4.396005
    111          7           0        4.947830    0.821503    1.723102
    112          6           0        4.624589    0.518851    3.063999
    113          6           0        4.248536    1.788767    3.718471
    114          6           0        4.357773    2.746285    2.698798
    115          6           0        4.753082    2.114430    1.488848
    116          6           0        3.823876    1.934634    5.069214
    117          6           0        4.218260    4.146277    2.368247
    118          8           0        3.992341    5.171868    3.009233
    119          6           0        4.276540    4.300494    0.787356
    120          6           0        5.224342    5.423053    0.464801
    121          8           0        6.435843    5.322400    0.726977
    122          8           0        4.586660    6.334306   -0.292401
    123          6           0        5.488910    7.462021   -0.647420
    124          1           0        4.746101   -0.431378   -4.268130
    125          1           0        5.878483   -4.813323    0.036260
    126          1           0        4.481618   -0.752420    4.618020
    127          1           0        3.851150    4.010025   -2.306693
    128          1           0        4.651958    2.156733   -4.271657
    129          1           0        2.148451    2.452670   -2.663858
    130          1           0        2.512907    0.791414   -3.175433
    131          1           0        2.329475    2.007825   -4.402774
    132          1           0        6.585167    3.099662   -3.235227
    133          1           0        6.493364    4.264041   -1.863730
    134          1           0        4.879661    5.268629   -3.983696
    135          1           0        6.189920    4.460180   -4.767603
    136          1           0        5.812386   -1.865621   -5.384687
    137          1           0        5.719977   -3.591217   -5.270713
    138          1           0        7.332623   -2.840854   -5.214915
    139          1           0        6.855268   -5.393250   -4.608010
    140          1           0        8.118990   -6.426002   -3.723056
    141          1           0        8.393541   -4.707217   -4.127831
    142          1           0        6.016173   -4.853795    2.581663
    143          1           0        3.977604   -3.354891    4.148276
    144          1           0        4.267187   -6.292273    2.550810
    145          1           0        3.417311   -5.116289    1.487429
    146          1           0        3.180334   -5.046607    3.159133
    147          1           0        6.008168   -4.462717    5.158891
    148          1           0        5.698894   -2.830130    5.719247
    149          1           0        7.714302   -3.954627    3.914867
    150          1           0        7.973492   -2.773897    5.250359
    151          1           0        7.322706   -2.255767    3.630988
    152          1           0        4.329239    2.806889    5.461994
    153          1           0        4.049513    1.046017    5.655077
    154          1           0        2.748670    2.067397    4.922374
    155          1           0        3.263364    4.507814    0.440854
    156          1           0        4.996581    8.381549   -0.316107
    157          1           0        5.684971    7.357973   -1.731155
    158          1           0        6.436223    7.529425   -0.125397
 ---------------------------------------------------------------------

 SCF Done:  E(RCAM-B3LYP) =  -4069.81126281     A.U. after   19 cycles

 Excitation energies and oscillator strengths:

 Excited State   1:      Singlet-A      1.6567 eV  748.39 nm  f=0.0102  <S**2>=0.000
     309 -> 315       -0.11416
     310 -> 316        0.12469
     311 -> 313       -0.46223
     312 -> 314        0.50845
 This state for optimization and/or second-order correction.
 Total Energy, E(TD-HF/TD-DFT) =  -4069.75038106
 Copying the excited state density for this state as the 1-particle RhoCI density.

 Excited State   2:      Singlet-A      1.6975 eV  730.41 nm  f=0.7105  <S**2>=0.000
     309 -> 315        0.13328
     310 -> 316        0.12030
     311 -> 313        0.50652
     312 -> 314        0.46057

 Excited State   3:      Singlet-A      2.1829 eV  567.98 nm  f=0.0194  <S**2>=0.000
     309 -> 313       -0.28757
     310 -> 314        0.57611
     311 -> 315        0.12016
     312 -> 316       -0.24229

 Excited State   4:      Singlet-A      2.1948 eV  564.91 nm  f=0.1613  <S**2>=0.000
     309 -> 313        0.57249
     310 -> 314        0.28435
     311 -> 315       -0.25131
     312 -> 316       -0.12573

 Excited State   5:      Singlet-A      2.4879 eV  498.35 nm  f=0.0000  <S**2>=0.000
     312 -> 313        0.70709

 The electronic state is 1-A.
 Alpha  occ. eigenvalues --  -46.87844 -46.87474 -19.26274 -19.26132 -19.19008
 Alpha  occ. eigenvalues --  -19.18945 -19.18858 -19.18560 -19.18170 -19.17788
 Alpha  occ. eigenvalues --  -14.42502 -14.42315 -14.41497 -14.41174 -14.39450
 Alpha  occ. eigenvalues --  -14.39168 -14.38627 -14.38400 -10.39073 -10.38868
 Alpha  occ. eigenvalues --  -10.35493 -10.35242 -10.34392 -10.33962 -10.31661
 Alpha  occ. eigenvalues --  -10.31573 -10.31451 -10.31112 -10.30964 -10.30845
 Alpha  occ. eigenvalues --  -10.30611 -10.30546 -10.30261 -10.30201 -10.30159
 Alpha  occ. eigenvalues --  -10.29981 -10.29960 -10.29700 -10.29670 -10.29302
 Alpha  occ. eigenvalues --  -10.29263 -10.29208 -10.28822 -10.28661 -10.28544
 Alpha  occ. eigenvalues --  -10.28540 -10.28406 -10.28206 -10.28183 -10.27971
 Alpha  occ. eigenvalues --  -10.27828 -10.27799 -10.27779 -10.27628 -10.27556
 Alpha  occ. eigenvalues --  -10.27556 -10.27496 -10.27495 -10.27446 -10.27371
 Alpha  occ. eigenvalues --  -10.27348 -10.27287 -10.27282 -10.27216 -10.27171
 Alpha  occ. eigenvalues --  -10.26812 -10.26777 -10.26548 -10.26467 -10.26302
 Alpha  occ. eigenvalues --  -10.26290 -10.26254 -10.26067 -10.26013 -10.25848
 Alpha  occ. eigenvalues --  -10.25845 -10.25756 -10.25602 -10.25475 -10.25237
 Alpha  occ. eigenvalues --  -10.24863 -10.24831 -10.24777 -10.24659 -10.24608
 Alpha  occ. eigenvalues --  -10.24502  -3.16587  -3.16224  -1.91468  -1.91106
 Alpha  occ. eigenvalues --   -1.91055  -1.90897  -1.90695  -1.90531  -1.16623
 Alpha  occ. eigenvalues --   -1.16426  -1.08623  -1.08387  -1.07259  -1.06815
 Alpha  occ. eigenvalues --   -1.06727  -1.06631  -1.04631  -1.04308  -1.03808
 Alpha  occ. eigenvalues --   -1.03477  -1.03277  -1.02851  -1.02455  -1.01920
 Alpha  occ. eigenvalues --   -0.92006  -0.91773  -0.89570  -0.89322  -0.89257
 Alpha  occ. eigenvalues --   -0.88981  -0.88337  -0.88055  -0.87899  -0.87729
 Alpha  occ. eigenvalues --   -0.87579  -0.87506  -0.87326  -0.86962  -0.85047
 Alpha  occ. eigenvalues --   -0.84831  -0.83986  -0.83712  -0.83021  -0.82787
 Alpha  occ. eigenvalues --   -0.82702  -0.82485  -0.81609  -0.81398  -0.80634
 Alpha  occ. eigenvalues --   -0.80256  -0.78844  -0.78459  -0.77274  -0.76986
 Alpha  occ. eigenvalues --   -0.76975  -0.76724  -0.75964  -0.75652  -0.74942
 Alpha  occ. eigenvalues --   -0.74630  -0.72816  -0.72508  -0.71716  -0.71396
 Alpha  occ. eigenvalues --   -0.69968  -0.69608  -0.68932  -0.68657  -0.67682
 Alpha  occ. eigenvalues --   -0.67415  -0.67294  -0.67046  -0.65345  -0.65091
 Alpha  occ. eigenvalues --   -0.64892  -0.64665  -0.64586  -0.64471  -0.64318
 Alpha  occ. eigenvalues --   -0.64034  -0.62313  -0.62080  -0.60491  -0.60173
 Alpha  occ. eigenvalues --   -0.59862  -0.59616  -0.59029  -0.58804  -0.58542
 Alpha  occ. eigenvalues --   -0.58232  -0.57600  -0.57346  -0.57320  -0.57051
 Alpha  occ. eigenvalues --   -0.56349  -0.56017  -0.55999  -0.55696  -0.55563
 Alpha  occ. eigenvalues --   -0.55374  -0.55276  -0.55066  -0.54551  -0.54306
 Alpha  occ. eigenvalues --   -0.53962  -0.53744  -0.53343  -0.53274  -0.53052
 Alpha  occ. eigenvalues --   -0.52966  -0.52948  -0.52815  -0.52722  -0.52522
 Alpha  occ. eigenvalues --   -0.52497  -0.52253  -0.51932  -0.51677  -0.51651
 Alpha  occ. eigenvalues --   -0.51494  -0.51232  -0.51003  -0.50635  -0.50339
 Alpha  occ. eigenvalues --   -0.50090  -0.49972  -0.49818  -0.49706  -0.49567
 Alpha  occ. eigenvalues --   -0.49322  -0.49249  -0.49146  -0.49012  -0.48908
 Alpha  occ. eigenvalues --   -0.48623  -0.48505  -0.48475  -0.48366  -0.48204
 Alpha  occ. eigenvalues --   -0.48162  -0.47745  -0.47426  -0.47341  -0.46954
 Alpha  occ. eigenvalues --   -0.46847  -0.46619  -0.46536  -0.46401  -0.46391
 Alpha  occ. eigenvalues --   -0.46194  -0.46095  -0.45890  -0.45843  -0.45613
 Alpha  occ. eigenvalues --   -0.45248  -0.45036  -0.44603  -0.44568  -0.44331
 Alpha  occ. eigenvalues --   -0.44296  -0.44195  -0.44148  -0.44050  -0.43946
 Alpha  occ. eigenvalues --   -0.43912  -0.43753  -0.43517  -0.43442  -0.43365
 Alpha  occ. eigenvalues --   -0.43203  -0.43066  -0.42737  -0.42737  -0.42692
 Alpha  occ. eigenvalues --   -0.42674  -0.42394  -0.42064  -0.41801  -0.41740
 Alpha  occ. eigenvalues --   -0.41600  -0.41457  -0.41295  -0.41187  -0.40935
 Alpha  occ. eigenvalues --   -0.40881  -0.40807  -0.40623  -0.40572  -0.40543
 Alpha  occ. eigenvalues --   -0.40326  -0.40324  -0.40079  -0.39508  -0.39280
 Alpha  occ. eigenvalues --   -0.38526  -0.38190  -0.37828  -0.37500  -0.37372
 Alpha  occ. eigenvalues --   -0.37324  -0.37097  -0.37023  -0.36726  -0.36571
 Alpha  occ. eigenvalues --   -0.36224  -0.36038  -0.34329  -0.34063  -0.33769
 Alpha  occ. eigenvalues --   -0.33650  -0.33226  -0.32987  -0.31388  -0.31119
 Alpha  occ. eigenvalues --   -0.31079  -0.30784  -0.30029  -0.29689  -0.29491
 Alpha  occ. eigenvalues --   -0.29353  -0.29145  -0.28994  -0.24125  -0.23843
 Alpha  occ. eigenvalues --   -0.21173  -0.20930
 Alpha virt. eigenvalues --   -0.08816  -0.08599  -0.01797  -0.01503  -0.00102
 Alpha virt. eigenvalues --    0.00148   0.02177   0.02434   0.03056   0.03402
 Alpha virt. eigenvalues --    0.04655   0.04903   0.05101   0.05388   0.06092

 Mulliken charges:
               1
     1  Mg   0.838549
     2  C   -0.002993
     3  C   -0.094662
     4  C   -0.045772
     5  C   -0.063999
     6  N   -0.256678
     7  C   -0.052677
     8  C   -0.013850
     9  C   -0.086896
    10  C    0.046045
    11  C    0.104808
    12  C    0.053695
    13  C   -0.071413
    14  H    0.035241
    15  N   -0.433111
    16  C    0.168185
    17  C   -0.177545
    18  C   -0.004050
    19  C    0.148632
    20  C    0.110282
    21  C    0.012351
    22  O   -0.249393
    23  C    0.062566
    24  N   -0.341115
    25  C    0.041133
    26  C   -0.028230
    27  C   -0.023958
    28  C    0.074851
    29  C    0.076116
    30  C    0.035131
    31  C   -0.004447
    32  N   -0.310598
    33  C    0.080549
    34  C   -0.169378
    35  C    0.008821
    36  C    0.083108
    37  C    0.127131
    38  C    0.046755
    39  O   -0.187152
    40  C   -0.005598
    41  C    0.213253
    42  O   -0.256703
    43  O   -0.304990
    44  C    0.157216
    45  H   -0.017798
    46  H   -0.016763
    47  H   -0.041366
    48  H    0.001256
    49  H   -0.004578
    50  H    0.025685
    51  H    0.016581
    52  H    0.016560
    53  H    0.010171
    54  H    0.044027
    55  H    0.018463
    56  H    0.017291
    57  H    0.005544
    58  H    0.026928
    59  H    0.038663
    60  H    0.037257
    61  H    0.035926
    62  H    0.030891
    63  H    0.016515
    64  H    0.009656
    65  H    0.023293
    66  H    0.012628
    67  H    0.004831
    68  H    0.006378
    69  H    0.004803
    70  H    0.008790
    71  H    0.017023
    72  H    0.029386
    73  H    0.048534
    74  H    0.008968
    75  H    0.046168
    76  H    0.035199
    77  H    0.043539
    78  H    0.045510
    79  H    0.054827
    80  Mg   0.837796
    81  C   -0.016241
    82  C   -0.088052
    83  C   -0.045618
    84  C   -0.064972
    85  N   -0.254452
    86  C   -0.049168
    87  C   -0.015125
    88  C   -0.090693
    89  C    0.045782
    90  C    0.113997
    91  C    0.062625
    92  C   -0.077416
    93  H    0.034386
    94  N   -0.423355
    95  C    0.162645
    96  C   -0.175326
    97  C   -0.008140
    98  C    0.151837
    99  C    0.099701
   100  C    0.015237
   101  O   -0.253516
   102  C    0.061363
   103  N   -0.350033
   104  C    0.037390
   105  C   -0.019737
   106  C   -0.034713
   107  C    0.089241
   108  C    0.073742
   109  C    0.034773
   110  C   -0.007574
   111  N   -0.324457
   112  C    0.078989
   113  C   -0.162513
   114  C    0.003652
   115  C    0.095983
   116  C    0.131041
   117  C    0.044319
   118  O   -0.186166
   119  C    0.000055
   120  C    0.210929
   121  O   -0.251718
   122  O   -0.304963
   123  C    0.152260
   124  H   -0.020892
   125  H   -0.015914
   126  H   -0.040675
   127  H    0.000270
   128  H   -0.005336
   129  H    0.025723
   130  H    0.013910
   131  H    0.014136
   132  H    0.013577
   133  H    0.037748
   134  H    0.020536
   135  H    0.018933
   136  H    0.007986
   137  H    0.025117
   138  H    0.039225
   139  H    0.037748
   140  H    0.035959
   141  H    0.033642
   142  H    0.014010
   143  H    0.012050
   144  H    0.024767
   145  H    0.012289
   146  H    0.005241
   147  H    0.005838
   148  H    0.003430
   149  H    0.010783
   150  H    0.017632
   151  H    0.030330
   152  H    0.045931
   153  H    0.007530
   154  H    0.049692
   155  H    0.039145
   156  H    0.043922
   157  H    0.048721
   158  H    0.053205
 Sum of Mulliken charges =  -0.00000

 Dipole moment (field-independent basis, Debye):
    X=             -3.2499    Y=             -2.3210    Z=             -7.6943  Tot=              8.6689
 Quadrupole moment (field-independent basis, Debye-Ang):
   XX=           -510.7332   YY=           -550.5954   ZZ=           -449.3901
   XY=              2.3840   XZ=             -1.8997   YZ=            -49.3929

 Normal termination of Gaussian 16 at Fri Sep 10 22:45:42 2021.
