 Gaussian 16, Revision A.03,
 Gaussian 16:  ES64L-G16RevA.03 25-Dec-2016

 -----------------------------------
 #p cam-b3lyp/Def2SVP td=(nstates=5)
 -----------------------------------

 --------------------------------
 TDDFT excited states in gaussian
 --------------------------------
 Symbolic Z-matrix:
 Charge =  0 Multiplicity = 1

                         Standard orientation:
 ---------------------------------------------------------------------
 Center     Atomic      Atomic             Coordinates (Angstroms)
 Number     Number       Type             X           Y           Z
 ---------------------------------------------------------------------
      1         12           0       15.950045   -0.642039   -0.033624
      2          6           0       16.120552    2.817403   -0.936619
      3          6           0       16.834708    0.292676    3.126558
      4          6           0       16.249368   -3.718408    0.675589
      5          6           0       16.199075   -1.388373   -3.428713
      6          7           0       16.392429    1.334939    0.858845
      7          6           0       16.363908    2.589309    0.419624
      8          6           0       16.542328    3.644569    1.551863
      9          6           0       17.308029    2.741281    2.619464
     10          6           0       16.788025    1.377284    2.201097
     11          6           0       18.824555    2.759704    2.457260
     12          6           0       15.171430    4.154362    2.110862
     13          6           0       15.247720    5.412348    2.980922
     14          1           0       14.164015    6.380689    2.908483
     15          7           0       15.986395   -1.555435    1.717729
     16          6           0       16.357820   -1.017289    2.904207
     17          6           0       16.212002   -2.096399    3.904676
     18          6           0       15.907579   -3.357289    3.172844
     19          6           0       16.063493   -2.927234    1.806783
     20          6           0       16.312536   -1.868152    5.381681
     21          6           0       15.545494   -4.734281    3.632103
     22          8           0       15.549777   -5.738346    2.840643
     23          6           0       15.267813   -4.895122    5.070875
     24          7           0       16.410403   -2.325193   -1.179354
     25          6           0       16.417505   -3.547983   -0.637397
     26          6           0       16.491821   -4.612161   -1.691883
     27          6           0       16.288464   -3.865458   -3.088605
     28          6           0       16.209798   -2.408971   -2.568288
     29          6           0       17.793513   -5.424551   -1.732282
     30          6           0       15.151274   -4.384033   -4.004191
     31          6           0       13.809584   -4.102170   -3.365820
     32          7           0       15.951201    0.484111   -1.889110
     33          6           0       16.088972   -0.029233   -3.186866
     34          6           0       16.139237    1.123837   -4.104456
     35          6           0       16.043258    2.235579   -3.269794
     36          6           0       15.966026    1.805031   -1.914450
     37          6           0       16.317578    1.059552   -5.514596
     38          6           0       16.012783    3.687760   -3.205755
     39          8           0       15.951869    4.591490   -4.040653
     40          6           0       16.184319    4.125931   -1.684437
     41          6           0       15.130702    5.157816   -1.387090
     42          8           0       13.920631    4.852796   -1.379584
     43          8           0       15.718203    6.273720   -0.928675
     44          6           0       14.726288    7.327861   -0.586556
     45          1           0       17.333434    0.439130    4.086643
     46          1           0       16.246762   -4.793631    0.866183
     47          1           0       16.190851   -1.546154   -4.508755
     48          1           0       17.157616    4.502623    1.280592
     49          1           0       16.999669    2.967703    3.639939
     50          1           0       19.122036    3.289428    1.552373
     51          1           0       19.124045    1.712953    2.401484
     52          1           0       19.304732    3.161596    3.349834
     53          1           0       14.796104    3.442689    2.846194
     54          1           0       14.461449    4.319538    1.299708
     55          1           0       16.212326    5.910208    2.878060
     56          1           0       15.210574    5.107100    4.026696
     57          1           0       16.706775   -0.878261    5.608037
     58          1           0       17.069820   -2.554975    5.759180
     59          1           0       15.365562   -2.049385    5.890333
     60          1           0       16.144916   -4.591589    5.642807
     61          1           0       14.939729   -5.925864    5.200418
     62          1           0       14.465902   -4.212744    5.354154
     63          1           0       15.699310   -5.347924   -1.561475
     64          1           0       17.179390   -3.919331   -3.714721
     65          1           0       17.642250   -6.499353   -1.629197
     66          1           0       18.451689   -5.045548   -0.950967
     67          1           0       18.402062   -5.268813   -2.622692
     68          1           0       15.226951   -5.463768   -4.128251
     69          1           0       15.159614   -3.934700   -4.997308
     70          1           0       13.682980   -4.942510   -2.684181
     71          1           0       13.023599   -4.090727   -4.121669
     72          1           0       13.838609   -3.194670   -2.762423
     73          1           0       15.611201    1.769861   -5.944085
     74          1           0       16.143473    0.051475   -5.890193
     75          1           0       17.360967    1.362649   -5.600200
     76          1           0       17.191664    4.529295   -1.586081
     77          1           0       14.996468    8.218922   -1.153343
     78          1           0       14.717026    7.403417    0.500923
     79          1           0       13.706847    7.162405   -0.936847
     80         12           0      -15.802273   -0.889493    0.144773
     81          6           0      -17.263832    2.349027   -0.360106
     82          6           0      -13.643101    0.590739    2.331432
     83          6           0      -14.208268   -3.630021    0.271641
     84          6           0      -17.274204   -1.868658   -2.858622
     85          7           0      -15.581774    1.206366    0.816356
     86          6           0      -16.233500    2.339560    0.603102
     87          6           0      -15.807546    3.510522    1.528825
     88          6           0      -14.327164    3.004423    1.891046
     89          6           0      -14.529982    1.502167    1.704647
     90          6           0      -13.272728    3.470507    0.900950
     91          6           0      -16.707446    3.617601    2.809728
     92          6           0      -16.548265    4.917940    3.600634
     93          1           0      -17.726531    5.486903    4.249047
     94          7           0      -14.502492   -1.558222    1.487127
     95          6           0      -13.725916   -0.818815    2.306563
     96          6           0      -12.932742   -1.781668    3.086280
     97          6           0      -13.184858   -3.144669    2.544635
     98          6           0      -13.976230   -2.821108    1.374539
     99          6           0      -12.104920   -1.381944    4.273025
    100          6           0      -12.770203   -4.512044    2.996890
    101          8           0      -12.902014   -5.539639    2.242232
    102          6           0      -12.119608   -4.598185    4.312493
    103          7           0      -15.570248   -2.449673   -1.209619
    104          6           0      -14.867829   -3.549020   -0.884097
    105          6           0      -15.068025   -4.645707   -1.902713
    106          6           0      -16.246388   -4.136348   -2.856439
    107          6           0      -16.472667   -2.733265   -2.251851
    108          6           0      -13.845209   -4.998754   -2.749150
    109          6           0      -17.472155   -5.075593   -3.023698
    110          6           0      -18.228430   -5.174557   -1.718462
    111          7           0      -17.192584   -0.020135   -1.262107
    112          6           0      -17.655547   -0.591519   -2.467617
    113          6           0      -18.494317    0.423906   -3.136779
    114          6           0      -18.442022    1.532549   -2.278495
    115          6           0      -17.611776    1.236483   -1.163806
    116          6           0      -19.137834    0.271940   -4.397301
    117          6           0      -18.891800    2.889677   -2.067268
    118          8           0      -19.683922    3.640605   -2.635063
    119          6           0      -18.047105    3.522841   -0.879006
    120          6           0      -19.005292    4.197695    0.063846
    121          8           0      -19.834884    3.530473    0.706654
    122          8           0      -18.642386    5.484526    0.214563
    123          6           0      -19.556355    6.193147    1.149614
    124          1           0      -12.776044    0.989856    2.858503
    125          1           0      -13.769723   -4.629458    0.319326
    126          1           0      -17.847839   -2.130879   -3.750172
    127          1           0      -15.761462    4.478656    1.044714
    128          1           0      -14.074340    3.229796    2.923834
    129          1           0      -13.711893    3.968349    0.049230
    130          1           0      -12.747872    2.577401    0.587986
    131          1           0      -12.530454    4.094665    1.406697
    132          1           0      -16.352044    2.897739    3.558215
    133          1           0      -17.740713    3.468930    2.562952
    134          1           0      -16.016362    5.686751    3.027083
    135          1           0      -15.898439    4.725432    4.457760
    136          1           0      -11.982413   -0.293282    4.329700
    137          1           0      -11.091972   -1.760530    4.098427
    138          1           0      -12.481714   -1.799308    5.209242
    139          1           0      -11.227552   -3.976350    4.315636
    140          1           0      -11.978046   -5.664471    4.499237
    141          1           0      -12.796976   -4.180619    5.065766
    142          1           0      -15.376905   -5.566718   -1.423705
    143          1           0      -15.897507   -3.981493   -3.888012
    144          1           0      -13.560256   -6.065619   -2.680687
    145          1           0      -13.023459   -4.365260   -2.442619
    146          1           0      -13.934032   -4.765356   -3.808788
    147          1           0      -17.142668   -6.088207   -3.269034
    148          1           0      -18.154227   -4.760390   -3.806270
    149          1           0      -17.671628   -5.938762   -1.167970
    150          1           0      -19.256488   -5.484932   -1.893978
    151          1           0      -18.155961   -4.240197   -1.149794
    152          1           0      -20.135268    0.676619   -4.288468
    153          1           0      -19.162599   -0.770492   -4.707944
    154          1           0      -18.476482    0.872471   -5.027573
    155          1           0      -17.340582    4.227862   -1.318708
    156          1           0      -19.945768    7.065636    0.615939
    157          1           0      -18.960520    6.385142    2.061678
    158          1           0      -20.474200    5.690190    1.430781
 ---------------------------------------------------------------------

 SCF Done:  E(RCAM-B3LYP) =  -4069.81177923     A.U. after   19 cycles

 Excitation energies and oscillator strengths:

 Excited State   1:      Singlet-A      1.6754 eV  740.02 nm  f=0.2833  <S**2>=0.000
     310 -> 316        0.17053
     311 -> 314       -0.12775
     312 -> 313        0.67405
     310 <- 316        0.10280
 This state for optimization and/or second-order correction.
 Total Energy, E(TD-HF/TD-DFT) =  -4069.75020904
 Copying the excited state density for this state as the 1-particle RhoCI density.

 Excited State   2:      Singlet-A      1.6800 eV  738.00 nm  f=0.4960  <S**2>=0.000
     309 -> 315        0.17253
     311 -> 314        0.67369
     312 -> 313        0.12770
     309 <- 315        0.10331

 Excited State   3:      Singlet-A      2.1861 eV  567.15 nm  f=0.0951  <S**2>=0.000
     310 -> 313        0.64211
     312 -> 316       -0.27294

 Excited State   4:      Singlet-A      2.1926 eV  565.48 nm  f=0.1050  <S**2>=0.000
     309 -> 314        0.64032
     311 -> 315       -0.27816

 Excited State   5:      Singlet-A      3.0626 eV  404.83 nm  f=0.0000  <S**2>=0.000
     312 -> 314        0.70710

 The electronic state is 1-A.
 Alpha  occ. eigenvalues --  -46.87813 -46.87660 -19.26351 -19.26304 -19.19162
 Alpha  occ. eigenvalues --  -19.19039 -19.18831 -19.18714 -19.18186 -19.18052
 Alpha  occ. eigenvalues --  -14.42497 -14.42467 -14.41465 -14.41359 -14.39419
 Alpha  occ. eigenvalues --  -14.39352 -14.38603 -14.38600 -10.39099 -10.39092
 Alpha  occ. eigenvalues --  -10.35464 -10.35391 -10.34406 -10.34229 -10.31758
 Alpha  occ. eigenvalues --  -10.31700 -10.31422 -10.31309 -10.31023 -10.30926
 Alpha  occ. eigenvalues --  -10.30586 -10.30524 -10.30398 -10.30361 -10.30223
 Alpha  occ. eigenvalues --  -10.30141 -10.29936 -10.29895 -10.29647 -10.29436
 Alpha  occ. eigenvalues --  -10.29401 -10.29270 -10.28767 -10.28719 -10.28655
 Alpha  occ. eigenvalues --  -10.28560 -10.28405 -10.28381 -10.28139 -10.28134
 Alpha  occ. eigenvalues --  -10.28001 -10.27809 -10.27744 -10.27669 -10.27601
 Alpha  occ. eigenvalues --  -10.27518 -10.27515 -10.27498 -10.27484 -10.27468
 Alpha  occ. eigenvalues --  -10.27465 -10.27464 -10.27420 -10.27375 -10.27175
 Alpha  occ. eigenvalues --  -10.27051 -10.26725 -10.26693 -10.26426 -10.26415
 Alpha  occ. eigenvalues --  -10.26250 -10.26198 -10.26138 -10.26035 -10.26022
 Alpha  occ. eigenvalues --  -10.25934 -10.25859 -10.25852 -10.25448 -10.25395
 Alpha  occ. eigenvalues --  -10.24873 -10.24849 -10.24804 -10.24733 -10.24701
 Alpha  occ. eigenvalues --  -10.24690  -3.16556  -3.16410  -1.91437  -1.91293
 Alpha  occ. eigenvalues --   -1.91024  -1.90881  -1.90866  -1.90718  -1.16652
 Alpha  occ. eigenvalues --   -1.16645  -1.08659  -1.08644  -1.07232  -1.06966
 Alpha  occ. eigenvalues --   -1.06947  -1.06662  -1.04598  -1.04495  -1.03777
 Alpha  occ. eigenvalues --   -1.03663  -1.03250  -1.03039  -1.02427  -1.02112
 Alpha  occ. eigenvalues --   -0.91989  -0.91987  -0.89535  -0.89495  -0.89205
 Alpha  occ. eigenvalues --   -0.89151  -0.88302  -0.88220  -0.87886  -0.87794
 Alpha  occ. eigenvalues --   -0.87690  -0.87684  -0.87290  -0.87120  -0.84999
 Alpha  occ. eigenvalues --   -0.84999  -0.83951  -0.83876  -0.82983  -0.82932
 Alpha  occ. eigenvalues --   -0.82666  -0.82652  -0.81603  -0.81597  -0.80613
 Alpha  occ. eigenvalues --   -0.80443  -0.78813  -0.78636  -0.77235  -0.77145
 Alpha  occ. eigenvalues --   -0.76952  -0.76899  -0.75940  -0.75838  -0.74913
 Alpha  occ. eigenvalues --   -0.74802  -0.72790  -0.72699  -0.71688  -0.71581
 Alpha  occ. eigenvalues --   -0.69922  -0.69758  -0.68890  -0.68827  -0.67658
 Alpha  occ. eigenvalues --   -0.67602  -0.67238  -0.67200  -0.65304  -0.65272
 Alpha  occ. eigenvalues --   -0.64870  -0.64770  -0.64654  -0.64637  -0.64285
 Alpha  occ. eigenvalues --   -0.64204  -0.62315  -0.62279  -0.60458  -0.60340
 Alpha  occ. eigenvalues --   -0.59821  -0.59796  -0.59004  -0.58993  -0.58520
 Alpha  occ. eigenvalues --   -0.58426  -0.57602  -0.57555  -0.57325  -0.57237
 Alpha  occ. eigenvalues --   -0.56326  -0.56205  -0.55997  -0.55887  -0.55537
 Alpha  occ. eigenvalues --   -0.55452  -0.55355  -0.55248  -0.54540  -0.54488
 Alpha  occ. eigenvalues --   -0.53913  -0.53912  -0.53315  -0.53239  -0.53228
 Alpha  occ. eigenvalues --   -0.53142  -0.52932  -0.52903  -0.52773  -0.52668
 Alpha  occ. eigenvalues --   -0.52453  -0.52402  -0.51931  -0.51886  -0.51659
 Alpha  occ. eigenvalues --   -0.51634  -0.51212  -0.51202  -0.50589  -0.50475
 Alpha  occ. eigenvalues --   -0.50046  -0.49979  -0.49935  -0.49867  -0.49532
 Alpha  occ. eigenvalues --   -0.49488  -0.49231  -0.49202  -0.49113  -0.49104
 Alpha  occ. eigenvalues --   -0.48610  -0.48559  -0.48477  -0.48462  -0.48376
 Alpha  occ. eigenvalues --   -0.48339  -0.47711  -0.47595  -0.47313  -0.47118
 Alpha  occ. eigenvalues --   -0.46813  -0.46709  -0.46573  -0.46554  -0.46375
 Alpha  occ. eigenvalues --   -0.46271  -0.46179  -0.46086  -0.45839  -0.45823
 Alpha  occ. eigenvalues --   -0.45216  -0.45208  -0.44595  -0.44523  -0.44514
 Alpha  occ. eigenvalues --   -0.44476  -0.44161  -0.44127  -0.44105  -0.44078
 Alpha  occ. eigenvalues --   -0.44036  -0.43939  -0.43554  -0.43512  -0.43402
 Alpha  occ. eigenvalues --   -0.43386  -0.43043  -0.42931  -0.42902  -0.42716
 Alpha  occ. eigenvalues --   -0.42671  -0.42554  -0.42026  -0.41965  -0.41720
 Alpha  occ. eigenvalues --   -0.41669  -0.41551  -0.41459  -0.41157  -0.40989
 Alpha  occ. eigenvalues --   -0.40886  -0.40840  -0.40722  -0.40698  -0.40587
 Alpha  occ. eigenvalues --   -0.40493  -0.40253  -0.40227  -0.39456  -0.39426
 Alpha  occ. eigenvalues --   -0.38484  -0.38350  -0.37767  -0.37654  -0.37336
 Alpha  occ. eigenvalues --   -0.37281  -0.37266  -0.37200  -0.36772  -0.36731
 Alpha  occ. eigenvalues --   -0.36217  -0.36209  -0.34302  -0.34254  -0.33863
 Alpha  occ. eigenvalues --   -0.33789  -0.33203  -0.33176  -0.31361  -0.31273
 Alpha  occ. eigenvalues --   -0.31052  -0.30973  -0.30046  -0.29956  -0.29465
 Alpha  occ. eigenvalues --   -0.29338  -0.29327  -0.29212  -0.24097  -0.24036
 Alpha  occ. eigenvalues --   -0.21144  -0.21117
 Alpha virt. eigenvalues --   -0.08792  -0.08790  -0.01766  -0.01684  -0.00074
 Alpha virt. eigenvalues --   -0.00029   0.02184   0.02207   0.03103   0.03223
 Alpha virt. eigenvalues --    0.04701   0.04730   0.05079   0.05164   0.06158

 Mulliken charges:
               1
     1  Mg   0.838655
     2  C   -0.002961
     3  C   -0.094128
     4  C   -0.045849
     5  C   -0.063936
     6  N   -0.256753
     7  C   -0.052491
     8  C   -0.014005
     9  C   -0.086993
    10  C    0.046294
    11  C    0.104807
    12  C    0.053477
    13  C   -0.071789
    14  H    0.036060
    15  N   -0.433121
    16  C    0.168412
    17  C   -0.177152
    18  C   -0.003993
    19  C    0.148701
    20  C    0.110178
    21  C    0.012278
    22  O   -0.249597
    23  C    0.062481
    24  N   -0.341125
    25  C    0.041238
    26  C   -0.028170
    27  C   -0.023988
    28  C    0.074841
    29  C    0.076157
    30  C    0.035121
    31  C   -0.004504
    32  N   -0.310464
    33  C    0.080403
    34  C   -0.169715
    35  C    0.008356
    36  C    0.082977
    37  C    0.127314
    38  C    0.046120
    39  O   -0.188443
    40  C   -0.005351
    41  C    0.212890
    42  O   -0.257141
    43  O   -0.304783
    44  C    0.157700
    45  H   -0.017599
    46  H   -0.016815
    47  H   -0.041473
    48  H    0.000943
    49  H   -0.004050
    50  H    0.025485
    51  H    0.016468
    52  H    0.016666
    53  H    0.011183
    54  H    0.044096
    55  H    0.017898
    56  H    0.017942
    57  H    0.005868
    58  H    0.026847
    59  H    0.039524
    60  H    0.037359
    61  H    0.035669
    62  H    0.031467
    63  H    0.016563
    64  H    0.009483
    65  H    0.023237
    66  H    0.012551
    67  H    0.004775
    68  H    0.006396
    69  H    0.004741
    70  H    0.008789
    71  H    0.018148
    72  H    0.028954
    73  H    0.047561
    74  H    0.009126
    75  H    0.046029
    76  H    0.035166
    77  H    0.042956
    78  H    0.046390
    79  H    0.053651
    80  Mg   0.837816
    81  C   -0.016860
    82  C   -0.087774
    83  C   -0.045503
    84  C   -0.064867
    85  N   -0.254576
    86  C   -0.049808
    87  C   -0.015091
    88  C   -0.090517
    89  C    0.045752
    90  C    0.114359
    91  C    0.062516
    92  C   -0.077891
    93  H    0.034875
    94  N   -0.423491
    95  C    0.162927
    96  C   -0.174597
    97  C   -0.007800
    98  C    0.152148
    99  C    0.099350
   100  C    0.015591
   101  O   -0.253164
   102  C    0.061192
   103  N   -0.350043
   104  C    0.037540
   105  C   -0.019857
   106  C   -0.034822
   107  C    0.088923
   108  C    0.073631
   109  C    0.034751
   110  C   -0.007690
   111  N   -0.324103
   112  C    0.078438
   113  C   -0.163140
   114  C    0.002246
   115  C    0.096190
   116  C    0.131496
   117  C    0.042387
   118  O   -0.187884
   119  C    0.000925
   120  C    0.211252
   121  O   -0.251035
   122  O   -0.305614
   123  C    0.152033
   124  H   -0.019615
   125  H   -0.015547
   126  H   -0.040456
   127  H   -0.000629
   128  H   -0.004325
   129  H    0.022482
   130  H    0.014473
   131  H    0.016332
   132  H    0.013908
   133  H    0.037671
   134  H    0.020811
   135  H    0.019588
   136  H    0.008777
   137  H    0.026204
   138  H    0.039776
   139  H    0.038288
   140  H    0.036405
   141  H    0.033871
   142  H    0.014399
   143  H    0.012445
   144  H    0.025164
   145  H    0.011690
   146  H    0.005708
   147  H    0.006273
   148  H    0.003646
   149  H    0.010934
   150  H    0.017922
   151  H    0.030101
   152  H    0.045989
   153  H    0.008509
   154  H    0.046964
   155  H    0.035054
   156  H    0.043917
   157  H    0.049495
   158  H    0.053567
 Sum of Mulliken charges =  -0.00000

 Dipole moment (field-independent basis, Debye):
    X=              5.9404    Y=              0.1692    Z=              6.2156  Tot=              8.5995
 Quadrupole moment (field-independent basis, Debye-Ang):
   XX=           -583.1359   YY=           -520.7305   ZZ=           -472.2956
   XY=              4.9905   XZ=             36.5348   YZ=             58.1106

 Normal termination of Gaussian 16 at Sun Sep 12 20:25:38 2021.
