 Gaussian 16, Revision A.03,
 Gaussian 16:  ES64L-G16RevA.03 25-Dec-2016

 -----------------------------------
 #p cam-b3lyp/Def2SVP td=(nstates=5)
 -----------------------------------

 --------------------------------
 TDDFT excited states in gaussian
 --------------------------------
 Symbolic Z-matrix:
 Charge =  0 Multiplicity = 1

                         Standard orientation:
 ---------------------------------------------------------------------
 Center     Atomic      Atomic             Coordinates (Angstroms)
 Number     Number       Type             X           Y           Z
 ---------------------------------------------------------------------
      1         12           0        3.302012   -2.069823    0.050452
      2          6           0        5.127369    0.671753   -1.350993
      3          6           0        4.918479   -1.449445    2.990729
      4          6           0        2.049357   -4.755239    1.180059
      5          6           0        2.714782   -3.153271   -3.209450
      6          7           0        4.808197   -0.551817    0.622914
      7          6           0        5.379972    0.479431    0.009098
      8          6           0        6.214620    1.382495    0.965766
      9          6           0        6.525175    0.317070    2.110503
     10          6           0        5.328020   -0.597919    1.921986
     11          6           0        7.799530   -0.484923    1.866929
     12          6           0        5.385135    2.590598    1.517285
     13          6           0        6.206396    3.693758    2.191025
     14          1           0        5.780888    5.076722    2.037076
     15          7           0        3.072527   -2.693085    1.911024
     16          6           0        3.809589   -2.323062    2.985784
     17          6           0        3.248945   -3.061012    4.138081
     18          6           0        2.249723   -4.032831    3.613471
     19          6           0        2.438638   -3.882305    2.193248
     20          6           0        3.631416   -2.781476    5.559111
     21          6           0        1.286070   -4.958988    4.285586
     22          8           0        0.674012   -5.883161    3.648512
     23          6           0        1.142176   -4.811168    5.745204
     24          7           0        2.681797   -3.841562   -0.862734
     25          6           0        2.120688   -4.825095   -0.150834
     26          6           0        1.504926   -5.861977   -1.042828
     27          6           0        1.549704   -5.257290   -2.520021
     28          6           0        2.300023   -3.937970   -2.212309
     29          6           0        2.182093   -7.239434   -1.034508
     30          6           0        0.207032   -5.180058   -3.289233
     31          6           0       -0.706052   -4.172091   -2.627888
     32          7           0        3.660745   -1.296858   -1.945765
     33          6           0        3.354308   -1.925857   -3.161138
     34          6           0        3.882352   -1.067126   -4.237157
     35          6           0        4.477716    0.000458   -3.568089
     36          6           0        4.353889   -0.193120   -2.162568
     37          6           0        3.829062   -1.349543   -5.630655
     38          6           0        5.211269    1.247339   -3.713148
     39          8           0        5.526127    1.962449   -4.665501
     40          6           0        5.767904    1.670566   -2.282462
     41          6           0        5.445631    3.126311   -2.081826
     42          8           0        4.263744    3.509827   -1.965963
     43          8           0        6.576410    3.800174   -1.821459
     44          6           0        6.323350    5.246304   -1.583084
     45          1           0        5.533175   -1.498576    3.891660
     46          1           0        1.513774   -5.642546    1.523972
     47          1           0        2.495128   -3.384520   -4.253351
     48          1           0        7.146957    1.754931    0.540958
     49          1           0        6.504983    0.768000    3.102459
     50          1           0        8.215885   -0.281438    0.880438
     51          1           0        7.504670   -1.531394    1.947232
     52          1           0        8.522530   -0.315232    2.665210
     53          1           0        4.788106    2.258745    2.366691
     54          1           0        4.770864    3.028418    0.729687
     55          1           0        7.268612    3.593652    1.966118
     56          1           0        6.143817    3.555259    3.270424
     57          1           0        4.505129   -2.133694    5.618684
     58          1           0        3.963157   -3.725410    5.991134
     59          1           0        2.797237   -2.385147    6.138249
     60          1           0        2.111566   -4.964812    6.219784
     61          1           0        0.346529   -5.494603    6.039670
     62          1           0        0.850499   -3.784644    5.969086
     63          1           0        0.468685   -6.050915   -0.765459
     64          1           0        2.200477   -5.833399   -3.178251
     65          1           0        1.510200   -8.056064   -0.769217
     66          1           0        3.030513   -7.193756   -0.352315
     67          1           0        2.670117   -7.514503   -1.969167
     68          1           0       -0.302753   -6.142448   -3.259729
     69          1           0        0.326173   -4.899811   -4.335903
     70          1           0       -1.165521   -4.749108   -1.826157
     71          1           0       -1.457556   -3.818469   -3.334573
     72          1           0       -0.138576   -3.364827   -2.164442
     73          1           0        3.546287   -0.417663   -6.120150
     74          1           0        3.114284   -2.143264   -5.846763
     75          1           0        4.859299   -1.653932   -5.814541
     76          1           0        6.841825    1.487264   -2.297163
     77          1           0        6.944613    5.801058   -2.286301
     78          1           0        6.486539    5.418164   -0.519017
     79          1           0        5.331753    5.612722   -1.851063
     80         12           0       -3.454580    2.083866    0.515904
     81          6           0       -5.113164   -0.874937   -0.656122
     82          6           0       -2.357758    2.554269   -2.679462
     83          6           0       -1.619230    4.435199    1.597646
     84          6           0       -3.713434    0.784332    3.739238
     85          7           0       -3.763043    0.921664   -1.340549
     86          6           0       -4.462622   -0.151431   -1.677292
     87          6           0       -4.531381   -0.421279   -3.204377
     88          6           0       -3.194188    0.350874   -3.645463
     89          6           0       -3.111099    1.365641   -2.507030
     90          6           0       -1.951531   -0.522584   -3.598376
     91          6           0       -5.805231    0.211899   -3.866496
     92          6           0       -6.097672   -0.270365   -5.289052
     93          1           0       -7.490738   -0.420648   -5.700462
     94          7           0       -2.582755    3.581406   -0.451490
     95          6           0       -2.228208    3.612442   -1.753273
     96          6           0       -1.605075    4.927428   -1.969294
     97          6           0       -1.471919    5.605617   -0.651322
     98          6           0       -1.875930    4.535106    0.237987
     99          6           0       -1.274438    5.456782   -3.334535
    100          6           0       -1.038803    6.984821   -0.255865
    101          8           0       -0.771070    7.283387    0.961515
    102          6           0       -0.847301    7.950228   -1.348016
    103          7           0       -2.576121    2.450479    2.364207
    104          6           0       -1.870501    3.573810    2.583654
    105          6           0       -1.570911    3.751509    4.053020
    106          6           0       -2.433425    2.634610    4.805485
    107          6           0       -3.039961    1.915457    3.580606
    108          6           0       -0.102111    3.615491    4.453671
    109          6           0       -3.392265    3.122247    5.925988
    110          6           0       -4.510708    3.944035    5.326722
    111          7           0       -4.418313    0.382025    1.434055
    112          6           0       -4.377542    0.010748    2.795877
    113          6           0       -5.086769   -1.279524    2.916794
    114          6           0       -5.474042   -1.583141    1.602903
    115          6           0       -5.019496   -0.564702    0.722181
    116          6           0       -5.256011   -2.026520    4.116575
    117          6           0       -6.154797   -2.538905    0.759229
    118          8           0       -6.816146   -3.557115    0.958269
    119          6           0       -5.841825   -2.186110   -0.758652
    120          6           0       -7.140065   -2.208667   -1.517975
    121          8           0       -8.030966   -1.376697   -1.271531
    122          8           0       -7.031486   -3.063812   -2.551079
    123          6           0       -8.290623   -3.112620   -3.341024
    124          1           0       -1.775344    2.671349   -3.593773
    125          1           0       -1.083825    5.278690    2.039624
    126          1           0       -3.922075    0.362448    4.724714
    127          1           0       -4.467089   -1.465894   -3.484431
    128          1           0       -3.326292    0.856797   -4.598326
    129          1           0       -2.154679   -1.488978   -3.161383
    130          1           0       -1.232897    0.020354   -2.998525
    131          1           0       -1.510556   -0.604848   -4.595920
    132          1           0       -5.615418    1.274818   -4.063751
    133          1           0       -6.669717    0.062233   -3.249322
    134          1           0       -5.521962   -1.167677   -5.546609
    135          1           0       -5.742442    0.486955   -5.992107
    136          1           0       -1.331981    4.669310   -4.096094
    137          1           0       -0.217216    5.742997   -3.319115
    138          1           0       -1.872941    6.329552   -3.604215
    139          1           0       -0.102158    7.567814   -2.041535
    140          1           0       -0.625409    8.901916   -0.861246
    141          1           0       -1.784942    8.034797   -1.908625
    142          1           0       -1.885851    4.729251    4.396434
    143          1           0       -1.792899    1.900274    5.315688
    144          1           0        0.292457    4.507840    4.975303
    145          1           0        0.476769    3.408476    3.563403
    146          1           0        0.127312    2.757393    5.083137
    147          1           0       -2.861424    3.779309    6.619261
    148          1           0       -3.819248    2.314439    6.510907
    149          1           0       -4.061832    4.936940    5.228024
    150          1           0       -5.370736    3.964137    5.993040
    151          1           0       -4.760145    3.593354    4.318522
    152          1           0       -6.280986   -2.372694    4.125826
    153          1           0       -5.030840   -1.424823    4.994659
    154          1           0       -4.517057   -2.816925    3.960087
    155          1           0       -5.137495   -2.931618   -1.129749
    156          1           0       -8.603781   -4.160575   -3.378630
    157          1           0       -8.058011   -2.621523   -4.304591
    158          1           0       -9.169317   -2.644554   -2.912936
 ---------------------------------------------------------------------

 SCF Done:  E(RCAM-B3LYP) =  -4069.81228681     A.U. after   19 cycles

 Excitation energies and oscillator strengths:

 Excited State   1:      Singlet-A      1.6461 eV  753.22 nm  f=0.0868  <S**2>=0.000
     309 -> 315        0.11559
     310 -> 316        0.11909
     311 -> 313        0.47614
     312 -> 314        0.49590
 This state for optimization and/or second-order correction.
 Total Energy, E(TD-HF/TD-DFT) =  -4069.75179524
 Copying the excited state density for this state as the 1-particle RhoCI density.

 Excited State   2:      Singlet-A      1.7024 eV  728.29 nm  f=0.5734  <S**2>=0.000
     309 -> 315        0.13065
     310 -> 316       -0.12515
     311 -> 313        0.49332
     312 -> 314       -0.47395

 Excited State   3:      Singlet-A      2.1844 eV  567.60 nm  f=0.0317  <S**2>=0.000
     309 -> 313        0.40541
     310 -> 314        0.50092
     311 -> 315       -0.16895
     312 -> 316       -0.20944

 Excited State   4:      Singlet-A      2.1962 eV  564.55 nm  f=0.1498  <S**2>=0.000
     309 -> 313        0.49683
     310 -> 314       -0.40109
     311 -> 315       -0.21894
     312 -> 316        0.17701

 Excited State   5:      Singlet-A      2.2219 eV  558.00 nm  f=0.0000  <S**2>=0.000
     312 -> 313        0.70704

 The electronic state is 1-A.
 Alpha  occ. eigenvalues --  -46.87937 -46.87384 -19.26443 -19.26183 -19.19204
 Alpha  occ. eigenvalues --  -19.18969 -19.18912 -19.18410 -19.18365 -19.17771
 Alpha  occ. eigenvalues --  -14.42583 -14.42216 -14.41594 -14.41102 -14.39539
 Alpha  occ. eigenvalues --  -14.39053 -14.38747 -14.38322 -10.39257 -10.38896
 Alpha  occ. eigenvalues --  -10.35543 -10.35084 -10.34582 -10.33956 -10.31816
 Alpha  occ. eigenvalues --  -10.31623 -10.31557 -10.31025 -10.31025 -10.30737
 Alpha  occ. eigenvalues --  -10.30717 -10.30661 -10.30343 -10.30130 -10.30074
 Alpha  occ. eigenvalues --  -10.30064 -10.29875 -10.29792 -10.29678 -10.29398
 Alpha  occ. eigenvalues --  -10.29117 -10.29103 -10.28834 -10.28533 -10.28510
 Alpha  occ. eigenvalues --  -10.28483 -10.28467 -10.28220 -10.28095 -10.27958
 Alpha  occ. eigenvalues --  -10.27868 -10.27849 -10.27734 -10.27684 -10.27661
 Alpha  occ. eigenvalues --  -10.27620 -10.27570 -10.27544 -10.27397 -10.27338
 Alpha  occ. eigenvalues --  -10.27323 -10.27262 -10.27208 -10.27139 -10.26934
 Alpha  occ. eigenvalues --  -10.26804 -10.26743 -10.26500 -10.26474 -10.26401
 Alpha  occ. eigenvalues --  -10.26335 -10.26185 -10.26102 -10.26078 -10.26055
 Alpha  occ. eigenvalues --  -10.25682 -10.25677 -10.25591 -10.25522 -10.25371
 Alpha  occ. eigenvalues --  -10.25004 -10.24979 -10.24921 -10.24632 -10.24566
 Alpha  occ. eigenvalues --  -10.24427  -3.16679  -3.16134  -1.91560  -1.91147
 Alpha  occ. eigenvalues --   -1.91017  -1.90990  -1.90606  -1.90442  -1.16796
 Alpha  occ. eigenvalues --   -1.16470  -1.08828  -1.08389  -1.07307  -1.06823
 Alpha  occ. eigenvalues --   -1.06753  -1.06663  -1.04716  -1.04208  -1.03900
 Alpha  occ. eigenvalues --   -1.03386  -1.03385  -1.02769  -1.02560  -1.01833
 Alpha  occ. eigenvalues --   -0.92127  -0.91713  -0.89689  -0.89288  -0.89287
 Alpha  occ. eigenvalues --   -0.88882  -0.88439  -0.88062  -0.88045  -0.87803
 Alpha  occ. eigenvalues --   -0.87511  -0.87410  -0.87402  -0.86751  -0.85086
 Alpha  occ. eigenvalues --   -0.84738  -0.84109  -0.83725  -0.83097  -0.82766
 Alpha  occ. eigenvalues --   -0.82639  -0.82371  -0.81736  -0.81371  -0.80738
 Alpha  occ. eigenvalues --   -0.80185  -0.78949  -0.78300  -0.77371  -0.77058
 Alpha  occ. eigenvalues --   -0.76880  -0.76686  -0.76059  -0.75568  -0.75041
 Alpha  occ. eigenvalues --   -0.74624  -0.72935  -0.72421  -0.71805  -0.71340
 Alpha  occ. eigenvalues --   -0.70103  -0.69611  -0.68991  -0.68560  -0.67783
 Alpha  occ. eigenvalues --   -0.67337  -0.67305  -0.66932  -0.65406  -0.65029
 Alpha  occ. eigenvalues --   -0.64998  -0.64760  -0.64521  -0.64444  -0.64401
 Alpha  occ. eigenvalues --   -0.64003  -0.62455  -0.62068  -0.60578  -0.60041
 Alpha  occ. eigenvalues --   -0.59924  -0.59521  -0.59134  -0.58739  -0.58656
 Alpha  occ. eigenvalues --   -0.58171  -0.57755  -0.57460  -0.57313  -0.56995
 Alpha  occ. eigenvalues --   -0.56469  -0.56116  -0.55917  -0.55662  -0.55655
 Alpha  occ. eigenvalues --   -0.55510  -0.55171  -0.55070  -0.54699  -0.54318
 Alpha  occ. eigenvalues --   -0.53994  -0.53663  -0.53453  -0.53344  -0.53073
 Alpha  occ. eigenvalues --   -0.52979  -0.52883  -0.52862  -0.52662  -0.52647
 Alpha  occ. eigenvalues --   -0.52320  -0.52246  -0.52135  -0.51725  -0.51614
 Alpha  occ. eigenvalues --   -0.51383  -0.51350  -0.50958  -0.50702  -0.50224
 Alpha  occ. eigenvalues --   -0.50130  -0.50037  -0.49708  -0.49642  -0.49608
 Alpha  occ. eigenvalues --   -0.49371  -0.49220  -0.49200  -0.48905  -0.48851
 Alpha  occ. eigenvalues --   -0.48738  -0.48606  -0.48565  -0.48313  -0.48191
 Alpha  occ. eigenvalues --   -0.48032  -0.47829  -0.47432  -0.47327  -0.46949
 Alpha  occ. eigenvalues --   -0.46825  -0.46657  -0.46524  -0.46464  -0.46323
 Alpha  occ. eigenvalues --   -0.46296  -0.45995  -0.45986  -0.45868  -0.45599
 Alpha  occ. eigenvalues --   -0.45345  -0.45034  -0.44751  -0.44633  -0.44308
 Alpha  occ. eigenvalues --   -0.44276  -0.44226  -0.44216  -0.44147  -0.43900
 Alpha  occ. eigenvalues --   -0.43828  -0.43659  -0.43633  -0.43506  -0.43366
 Alpha  occ. eigenvalues --   -0.43193  -0.43139  -0.42850  -0.42786  -0.42722
 Alpha  occ. eigenvalues --   -0.42668  -0.42333  -0.42160  -0.41857  -0.41766
 Alpha  occ. eigenvalues --   -0.41636  -0.41408  -0.41266  -0.41213  -0.40992
 Alpha  occ. eigenvalues --   -0.40917  -0.40745  -0.40712  -0.40480  -0.40419
 Alpha  occ. eigenvalues --   -0.40302  -0.40291  -0.39986  -0.39634  -0.39286
 Alpha  occ. eigenvalues --   -0.38601  -0.38181  -0.37830  -0.37468  -0.37420
 Alpha  occ. eigenvalues --   -0.37368  -0.37050  -0.36928  -0.36866  -0.36592
 Alpha  occ. eigenvalues --   -0.36339  -0.36013  -0.34435  -0.33986  -0.33949
 Alpha  occ. eigenvalues --   -0.33652  -0.33339  -0.32896  -0.31441  -0.31174
 Alpha  occ. eigenvalues --   -0.30978  -0.30699  -0.30225  -0.29685  -0.29600
 Alpha  occ. eigenvalues --   -0.29490  -0.28998  -0.28903  -0.24225  -0.23758
 Alpha  occ. eigenvalues --   -0.21278  -0.20826
 Alpha virt. eigenvalues --   -0.08924  -0.08484  -0.01887  -0.01413  -0.00187
 Alpha virt. eigenvalues --    0.00294   0.02021   0.02382   0.02591   0.03605
 Alpha virt. eigenvalues --    0.04606   0.04925   0.05033   0.05373   0.06102

 Mulliken charges:
               1
     1  Mg   0.839145
     2  C   -0.002476
     3  C   -0.094205
     4  C   -0.045150
     5  C   -0.064884
     6  N   -0.256904
     7  C   -0.052124
     8  C   -0.014221
     9  C   -0.087067
    10  C    0.046908
    11  C    0.104746
    12  C    0.053318
    13  C   -0.072836
    14  H    0.038980
    15  N   -0.433393
    16  C    0.169084
    17  C   -0.177109
    18  C   -0.003325
    19  C    0.149520
    20  C    0.110161
    21  C    0.012785
    22  O   -0.247879
    23  C    0.062297
    24  N   -0.341180
    25  C    0.041335
    26  C   -0.029061
    27  C   -0.025193
    28  C    0.074899
    29  C    0.075984
    30  C    0.040931
    31  C   -0.019501
    32  N   -0.310116
    33  C    0.079520
    34  C   -0.172197
    35  C    0.007575
    36  C    0.082312
    37  C    0.127811
    38  C    0.044664
    39  O   -0.189806
    40  C   -0.004905
    41  C    0.212464
    42  O   -0.258147
    43  O   -0.304481
    44  C    0.158232
    45  H   -0.017186
    46  H   -0.015702
    47  H   -0.042617
    48  H    0.000891
    49  H   -0.003675
    50  H    0.025522
    51  H    0.016412
    52  H    0.017050
    53  H    0.011273
    54  H    0.045005
    55  H    0.017357
    56  H    0.017912
    57  H    0.006153
    58  H    0.027515
    59  H    0.039133
    60  H    0.037470
    61  H    0.036828
    62  H    0.030561
    63  H    0.018159
    64  H    0.009813
    65  H    0.024472
    66  H    0.012707
    67  H    0.004782
    68  H    0.007155
    69  H    0.003181
    70  H    0.012557
    71  H    0.023355
    72  H    0.032840
    73  H    0.045030
    74  H    0.008163
    75  H    0.046722
    76  H    0.035515
    77  H    0.042648
    78  H    0.047856
    79  H    0.052403
    80  Mg   0.836735
    81  C   -0.016751
    82  C   -0.085694
    83  C   -0.044238
    84  C   -0.065766
    85  N   -0.254550
    86  C   -0.050575
    87  C   -0.013700
    88  C   -0.094152
    89  C    0.044650
    90  C    0.113569
    91  C    0.063341
    92  C   -0.077339
    93  H    0.034049
    94  N   -0.424501
    95  C    0.162330
    96  C   -0.167452
    97  C   -0.006588
    98  C    0.153591
    99  C    0.096864
   100  C    0.016993
   101  O   -0.254897
   102  C    0.060361
   103  N   -0.350117
   104  C    0.037314
   105  C   -0.019646
   106  C   -0.034097
   107  C    0.088460
   108  C    0.073997
   109  C    0.035145
   110  C   -0.007508
   111  N   -0.323958
   112  C    0.077668
   113  C   -0.163298
   114  C    0.002435
   115  C    0.095387
   116  C    0.130855
   117  C    0.042418
   118  O   -0.188889
   119  C    0.000518
   120  C    0.211217
   121  O   -0.251210
   122  O   -0.305949
   123  C    0.152172
   124  H   -0.014902
   125  H   -0.016499
   126  H   -0.042369
   127  H   -0.002456
   128  H   -0.004553
   129  H    0.021416
   130  H    0.018359
   131  H    0.015065
   132  H    0.014082
   133  H    0.037206
   134  H    0.019508
   135  H    0.019830
   136  H    0.010142
   137  H    0.034561
   138  H    0.037896
   139  H    0.041377
   140  H    0.034552
   141  H    0.033217
   142  H    0.013919
   143  H    0.009632
   144  H    0.023597
   145  H    0.013242
   146  H    0.002405
   147  H    0.004740
   148  H    0.002817
   149  H    0.010625
   150  H    0.017379
   151  H    0.031128
   152  H    0.045175
   153  H    0.006664
   154  H    0.048596
   155  H    0.034769
   156  H    0.043235
   157  H    0.049225
   158  H    0.053454
 Sum of Mulliken charges =  -0.00000

 Dipole moment (field-independent basis, Debye):
    X=              5.1933    Y=              0.2322    Z=              0.7429  Tot=              5.2513
 Quadrupole moment (field-independent basis, Debye-Ang):
   XX=           -530.6958   YY=           -526.8329   ZZ=           -462.7944
   XY=            -16.9242   XZ=             48.0000   YZ=             15.8629

 Normal termination of Gaussian 16 at Fri Sep  3 12:51:32 2021.
