 Gaussian 16, Revision A.03,
 Gaussian 16:  ES64L-G16RevA.03 25-Dec-2016

 -----------------------------------
 #p cam-b3lyp/Def2SVP td=(nstates=5)
 -----------------------------------

 --------------------------------
 TDDFT excited states in gaussian
 --------------------------------
 Symbolic Z-matrix:
 Charge =  0 Multiplicity = 1

                         Standard orientation:
 ---------------------------------------------------------------------
 Center     Atomic      Atomic             Coordinates (Angstroms)
 Number     Number       Type             X           Y           Z
 ---------------------------------------------------------------------
      1         12           0       15.625793   -0.902126    0.215855
      2          6           0       15.880428    2.500300   -0.866212
      3          6           0       16.473344    0.183317    3.337799
      4          6           0       15.851788   -3.941287    1.092811
      5          6           0       15.919373   -1.833368   -3.129629
      6          7           0       16.091494    1.111047    1.010149
      7          6           0       16.095464    2.340468    0.504502
      8          6           0       16.274877    3.451181    1.582232
      9          6           0       17.003777    2.591990    2.710280
     10          6           0       16.464308    1.217608    2.355357
     11          6           0       18.522977    2.573191    2.575443
     12          6           0       14.904756    4.015812    2.087890
     13          6           0       14.990669    5.316836    2.891201
     14          1           0       13.927751    6.300134    2.747396
     15          7           0       15.613436   -1.721152    2.013602
     16          6           0       15.974614   -1.127455    3.176512
     17          6           0       15.790013   -2.148628    4.229986
     18          6           0       15.473571   -3.440874    3.560613
     19          6           0       15.661830   -3.087440    2.176770
     20          6           0       15.869187   -1.843713    5.694400
     21          6           0       15.076356   -4.784303    4.085543
     22          8           0       15.074634   -5.829129    3.348719
     23          6           0       14.770424   -4.862780    5.525434
     24          7           0       16.072759   -2.652460   -0.830180
     25          6           0       16.046204   -3.844460   -0.224031
     26          6           0       16.117903   -4.964675   -1.218976
     27          6           0       15.953812   -4.289982   -2.656897
     28          6           0       15.894864   -2.806551   -2.216184
     29          6           0       17.403788   -5.802403   -1.192073
     30          6           0       14.822783   -4.835261   -3.564567
     31          6           0       13.475965   -4.494501   -2.967020
     32          7           0       15.681671    0.123043   -1.696461
     33          6           0       15.831947   -0.461416   -2.962359
     34          6           0       15.921042    0.639823   -3.938782
     35          6           0       15.832474    1.796187   -3.166239
     36          6           0       15.723047    1.440208   -1.791613
     37          6           0       16.122718    0.496933   -5.339976
     38          6           0       15.829597    3.250031   -3.179961
     39          8           0       15.801176    4.108841   -4.062645
     40          6           0       15.983122    3.765566   -1.681135
     41          6           0       14.945071    4.831501   -1.458555
     42          8           0       13.729260    4.550133   -1.457280
     43          8           0       15.546408    5.959058   -1.049226
     44          6           0       14.569694    7.048446   -0.781983
     45          1           0       16.957996    0.371460    4.297828
     46          1           0       15.824592   -5.004550    1.340138
     47          1           0       15.926926   -2.048455   -4.199738
     48          1           0       16.911659    4.281788    1.277232
     49          1           0       16.682150    2.878379    3.711409
     50          1           0       18.846656    3.048115    1.649376
     51          1           0       18.802645    1.519508    2.580874
     52          1           0       18.995318    3.013103    3.454163
     53          1           0       14.502628    3.351635    2.852889
     54          1           0       14.212477    4.150731    1.256101
     55          1           0       15.966580    5.790256    2.779938
     56          1           0       14.929207    5.068659    3.950838
     57          1           0       16.278897   -0.850731    5.875147
     58          1           0       16.606025   -2.523504    6.121791
     59          1           0       14.910061   -1.979662    6.194329
     60          1           0       15.643217   -4.545669    6.096593
     61          1           0       14.419810   -5.878773    5.703417
     62          1           0       13.977326   -4.151276    5.757185
     63          1           0       15.308841   -5.677381   -1.064393
     64          1           0       16.854316   -4.393984   -3.262661
     65          1           0       17.229526   -6.867125   -1.034892
     66          1           0       18.055558   -5.394637   -0.419925
     67          1           0       18.030780   -5.705942   -2.078071
     68          1           0       14.879258   -5.921315   -3.629706
     69          1           0       14.857376   -4.439875   -4.579813
     70          1           0       13.320869   -5.294686   -2.244191
     71          1           0       12.703702   -4.508683   -3.736838
     72          1           0       13.512365   -3.556762   -2.412218
     73          1           0       15.438142    1.196438   -5.819578
     74          1           0       15.935315   -0.526320   -5.664685
     75          1           0       17.173233    0.775344   -5.422210
     76          1           0       16.996371    4.154591   -1.585690
     77          1           0       14.867310    7.902707   -1.390175
     78          1           0       14.542904    7.182166    0.299593
     79          1           0       13.553465    6.883711   -1.141818
     80         12           0      -16.127477   -0.537633   -0.190735
     81          6           0      -14.041784    2.381274   -0.285158
     82          6           0      -17.394654    0.645794    2.746662
     83          6           0      -17.645441   -3.302539    0.153471
     84          6           0      -13.931612   -2.009995   -2.461432
     85          7           0      -15.694633    1.289661    0.977970
     86          6           0      -14.927230    2.356462    0.812468
     87          6           0      -15.177152    3.494010    1.838665
     88          6           0      -15.800877    2.612725    3.027432
     89          6           0      -16.366190    1.457068    2.204279
     90          6           0      -14.753348    2.055312    3.976803
     91          6           0      -16.203479    4.558220    1.313167
     92          6           0      -16.261736    5.852414    2.127683
     93          1           0      -16.499646    7.108680    1.422228
     94          7           0      -17.677048   -1.018389    0.952171
     95          6           0      -18.060113   -0.417811    2.098405
     96          6           0      -19.243134   -1.157718    2.564416
     97          6           0      -19.428852   -2.345697    1.687529
     98          6           0      -18.219103   -2.278203    0.892516
     99          6           0      -20.114548   -0.674999    3.687374
    100          6           0      -20.509428   -3.379670    1.590353
    101          8           0      -20.350242   -4.458775    0.917273
    102          6           0      -21.723840   -3.135201    2.382137
    103          7           0      -15.721750   -2.462257   -0.864208
    104          6           0      -16.572389   -3.474241   -0.618808
    105          6           0      -16.214405   -4.696626   -1.429978
    106          6           0      -15.086282   -4.215800   -2.456489
    107          6           0      -14.916241   -2.756447   -1.980290
    108          6           0      -15.700099   -5.895969   -0.634076
    109          6           0      -15.350738   -4.475010   -3.964986
    110          6           0      -16.505038   -3.622474   -4.440544
    111          7           0      -14.419735    0.108808   -1.345642
    112          6           0      -13.630948   -0.676561   -2.214609
    113          6           0      -12.516589    0.174487   -2.679732
    114          6           0      -12.723077    1.398578   -2.025935
    115          6           0      -13.872689    1.309880   -1.195247
    116          6           0      -11.467064   -0.231989   -3.551176
    117          6           0      -12.223866    2.742245   -1.841411
    118          8           0      -11.329257    3.414455   -2.352822
    119          6           0      -12.982950    3.398527   -0.608732
    120          6           0      -13.434374    4.773235   -1.019697
    121          8           0      -14.287178    4.917634   -1.913279
    122          8           0      -12.950041    5.675365   -0.146783
    123          6           0      -13.379935    7.053049   -0.505947
    124          1           0      -17.693493    0.810330    3.782287
    125          1           0      -18.194434   -4.247040    0.151366
    126          1           0      -13.260273   -2.364590   -3.246450
    127          1           0      -14.283198    4.001131    2.181371
    128          1           0      -16.600187    3.145144    3.536347
    129          1           0      -13.749846    2.246510    3.626693
    130          1           0      -14.939694    0.990562    4.028140
    131          1           0      -14.918290    2.439228    4.987607
    132          1           0      -17.222421    4.185572    1.479407
    133          1           0      -16.019262    4.788345    0.281795
    134          1           0      -15.407348    5.949796    2.808473
    135          1           0      -17.128971    5.806312    2.790848
    136          1           0      -19.635612    0.137612    4.247449
    137          1           0      -20.189266   -1.495299    4.409447
    138          1           0      -21.118937   -0.404417    3.354728
    139          1           0      -21.458330   -3.048206    3.433048
    140          1           0      -22.414568   -3.936575    2.112769
    141          1           0      -22.147654   -2.169854    2.083655
    142          1           0      -17.070108   -5.053340   -1.989997
    143          1           0      -14.126310   -4.720238   -2.272575
    144          1           0      -16.293946   -6.815113   -0.797154
    145          1           0      -15.690216   -5.630720    0.414767
    146          1           0      -14.659357   -6.158781   -0.815721
    147          1           0      -15.646572   -5.514830   -4.124394
    148          1           0      -14.487021   -4.285913   -4.593653
    149          1           0      -17.381494   -4.208662   -4.148501
    150          1           0      -16.462315   -3.487141   -5.519383
    151          1           0      -16.545511   -2.673817   -3.892757
    152          1           0      -11.322940    0.571659   -4.261008
    153          1           0      -11.706193   -1.167776   -4.052075
    154          1           0      -10.650992   -0.347736   -2.832917
    155          1           0      -12.283484    3.430263    0.227516
    156          1           0      -12.471906    7.656452   -0.601184
    157          1           0      -14.104448    7.352891    0.274386
    158          1           0      -13.833732    7.198744   -1.479235
 ---------------------------------------------------------------------

 SCF Done:  E(RCAM-B3LYP) =  -4069.81174999     A.U. after   19 cycles

 Excitation energies and oscillator strengths:

 Excited State   1:      Singlet-A      1.6754 eV  740.01 nm  f=0.3036  <S**2>=0.000
     310 -> 316        0.17054
     311 -> 313        0.67407
     312 -> 314       -0.12762
     310 <- 316        0.10280
 This state for optimization and/or second-order correction.
 Total Energy, E(TD-HF/TD-DFT) =  -4069.75017860
 Copying the excited state density for this state as the 1-particle RhoCI density.

 Excited State   2:      Singlet-A      1.6800 eV  738.00 nm  f=0.4763  <S**2>=0.000
     309 -> 315        0.17250
     311 -> 313        0.12759
     312 -> 314        0.67372
     309 <- 315        0.10329

 Excited State   3:      Singlet-A      2.1861 eV  567.15 nm  f=0.0945  <S**2>=0.000
     310 -> 313        0.64202
     311 -> 316       -0.27296

 Excited State   4:      Singlet-A      2.1925 eV  565.50 nm  f=0.1055  <S**2>=0.000
     309 -> 314        0.64026
     312 -> 315       -0.27809

 Excited State   5:      Singlet-A      3.0533 eV  406.06 nm  f=0.0000  <S**2>=0.000
     312 -> 313        0.70709

 The electronic state is 1-A.
 Alpha  occ. eigenvalues --  -46.87755 -46.87659 -19.26343 -19.26237 -19.19155
 Alpha  occ. eigenvalues --  -19.18972 -19.18776 -19.18714 -19.18126 -19.18046
 Alpha  occ. eigenvalues --  -14.42497 -14.42408 -14.41408 -14.41358 -14.39362
 Alpha  occ. eigenvalues --  -14.39351 -14.38598 -14.38545 -10.39085 -10.39032
 Alpha  occ. eigenvalues --  -10.35410 -10.35392 -10.34346 -10.34224 -10.31749
 Alpha  occ. eigenvalues --  -10.31630 -10.31363 -10.31307 -10.31023 -10.30868
 Alpha  occ. eigenvalues --  -10.30528 -10.30466 -10.30396 -10.30359 -10.30167
 Alpha  occ. eigenvalues --  -10.30141 -10.29893 -10.29879 -10.29589 -10.29436
 Alpha  occ. eigenvalues --  -10.29399 -10.29214 -10.28718 -10.28707 -10.28653
 Alpha  occ. eigenvalues --  -10.28494 -10.28403 -10.28323 -10.28140 -10.28076
 Alpha  occ. eigenvalues --  -10.27999 -10.27751 -10.27686 -10.27668 -10.27543
 Alpha  occ. eigenvalues --  -10.27517 -10.27482 -10.27467 -10.27464 -10.27461
 Alpha  occ. eigenvalues --  -10.27443 -10.27410 -10.27375 -10.27362 -10.27114
 Alpha  occ. eigenvalues --  -10.27046 -10.26692 -10.26660 -10.26416 -10.26374
 Alpha  occ. eigenvalues --  -10.26196 -10.26142 -10.26135 -10.26027 -10.25978
 Alpha  occ. eigenvalues --  -10.25933 -10.25843 -10.25801 -10.25399 -10.25398
 Alpha  occ. eigenvalues --  -10.24870 -10.24791 -10.24747 -10.24728 -10.24689
 Alpha  occ. eigenvalues --  -10.24643  -3.16498  -3.16409  -1.91379  -1.91291
 Alpha  occ. eigenvalues --   -1.90966  -1.90880  -1.90808  -1.90717  -1.16637
 Alpha  occ. eigenvalues --   -1.16585  -1.08653  -1.08583  -1.07178  -1.06966
 Alpha  occ. eigenvalues --   -1.06940  -1.06595  -1.04539  -1.04494  -1.03719
 Alpha  occ. eigenvalues --   -1.03662  -1.03192  -1.03037  -1.02370  -1.02110
 Alpha  occ. eigenvalues --   -0.91985  -0.91930  -0.89493  -0.89478  -0.89151
 Alpha  occ. eigenvalues --   -0.89146  -0.88246  -0.88219  -0.87828  -0.87790
 Alpha  occ. eigenvalues --   -0.87683  -0.87632  -0.87234  -0.87120  -0.84999
 Alpha  occ. eigenvalues --   -0.84940  -0.83895  -0.83875  -0.82931  -0.82928
 Alpha  occ. eigenvalues --   -0.82652  -0.82607  -0.81593  -0.81542  -0.80554
 Alpha  occ. eigenvalues --   -0.80440  -0.78757  -0.78634  -0.77177  -0.77143
 Alpha  occ. eigenvalues --   -0.76896  -0.76892  -0.75881  -0.75837  -0.74858
 Alpha  occ. eigenvalues --   -0.74802  -0.72733  -0.72697  -0.71631  -0.71580
 Alpha  occ. eigenvalues --   -0.69866  -0.69756  -0.68831  -0.68826  -0.67600
 Alpha  occ. eigenvalues --   -0.67600  -0.67199  -0.67178  -0.65270  -0.65244
 Alpha  occ. eigenvalues --   -0.64811  -0.64768  -0.64652  -0.64578  -0.64228
 Alpha  occ. eigenvalues --   -0.64202  -0.62275  -0.62253  -0.60402  -0.60339
 Alpha  occ. eigenvalues --   -0.59795  -0.59763  -0.58991  -0.58946  -0.58462
 Alpha  occ. eigenvalues --   -0.58423  -0.57550  -0.57540  -0.57267  -0.57235
 Alpha  occ. eigenvalues --   -0.56268  -0.56202  -0.55934  -0.55883  -0.55479
 Alpha  occ. eigenvalues --   -0.55450  -0.55297  -0.55245  -0.54485  -0.54480
 Alpha  occ. eigenvalues --   -0.53912  -0.53853  -0.53258  -0.53226  -0.53180
 Alpha  occ. eigenvalues --   -0.53140  -0.52900  -0.52871  -0.52716  -0.52668
 Alpha  occ. eigenvalues --   -0.52399  -0.52396  -0.51880  -0.51872  -0.51658
 Alpha  occ. eigenvalues --   -0.51575  -0.51198  -0.51153  -0.50534  -0.50475
 Alpha  occ. eigenvalues --   -0.49991  -0.49979  -0.49878  -0.49866  -0.49487
 Alpha  occ. eigenvalues --   -0.49474  -0.49200  -0.49173  -0.49102  -0.49054
 Alpha  occ. eigenvalues --   -0.48556  -0.48550  -0.48421  -0.48404  -0.48374
 Alpha  occ. eigenvalues --   -0.48337  -0.47654  -0.47593  -0.47256  -0.47117
 Alpha  occ. eigenvalues --   -0.46755  -0.46707  -0.46553  -0.46513  -0.46318
 Alpha  occ. eigenvalues --   -0.46269  -0.46120  -0.46083  -0.45818  -0.45778
 Alpha  occ. eigenvalues --   -0.45208  -0.45161  -0.44535  -0.44511  -0.44475
 Alpha  occ. eigenvalues --   -0.44466  -0.44126  -0.44103  -0.44076  -0.44047
 Alpha  occ. eigenvalues --   -0.43978  -0.43937  -0.43550  -0.43451  -0.43384
 Alpha  occ. eigenvalues --   -0.43344  -0.42985  -0.42927  -0.42898  -0.42655
 Alpha  occ. eigenvalues --   -0.42611  -0.42552  -0.41967  -0.41963  -0.41667
 Alpha  occ. eigenvalues --   -0.41662  -0.41492  -0.41458  -0.41100  -0.40989
 Alpha  occ. eigenvalues --   -0.40828  -0.40784  -0.40722  -0.40698  -0.40530
 Alpha  occ. eigenvalues --   -0.40492  -0.40226  -0.40191  -0.39424  -0.39399
 Alpha  occ. eigenvalues --   -0.38428  -0.38350  -0.37705  -0.37653  -0.37279
 Alpha  occ. eigenvalues --   -0.37265  -0.37221  -0.37198  -0.36767  -0.36668
 Alpha  occ. eigenvalues --   -0.36215  -0.36149  -0.34252  -0.34244  -0.33857
 Alpha  occ. eigenvalues --   -0.33724  -0.33174  -0.33144  -0.31306  -0.31273
 Alpha  occ. eigenvalues --   -0.30994  -0.30972  -0.29985  -0.29950  -0.29408
 Alpha  occ. eigenvalues --   -0.29326  -0.29280  -0.29209  -0.24039  -0.24035
 Alpha  occ. eigenvalues --   -0.21116  -0.21086
 Alpha virt. eigenvalues --   -0.08790  -0.08733  -0.01709  -0.01683  -0.00028
 Alpha virt. eigenvalues --   -0.00018   0.02210   0.02242   0.03166   0.03226
 Alpha virt. eigenvalues --    0.04731   0.04759   0.05145   0.05170   0.06184

 Mulliken charges:
               1
     1  Mg   0.838729
     2  C   -0.002947
     3  C   -0.094116
     4  C   -0.045868
     5  C   -0.063962
     6  N   -0.256756
     7  C   -0.052471
     8  C   -0.014005
     9  C   -0.087011
    10  C    0.046324
    11  C    0.104828
    12  C    0.053464
    13  C   -0.071821
    14  H    0.036222
    15  N   -0.433119
    16  C    0.168437
    17  C   -0.177169
    18  C   -0.004027
    19  C    0.148710
    20  C    0.110192
    21  C    0.012284
    22  O   -0.249659
    23  C    0.062474
    24  N   -0.341137
    25  C    0.041228
    26  C   -0.028146
    27  C   -0.023989
    28  C    0.074870
    29  C    0.076185
    30  C    0.035124
    31  C   -0.004507
    32  N   -0.310476
    33  C    0.080446
    34  C   -0.169680
    35  C    0.008363
    36  C    0.083029
    37  C    0.127300
    38  C    0.046152
    39  O   -0.188387
    40  C   -0.005346
    41  C    0.212885
    42  O   -0.257016
    43  O   -0.304835
    44  C    0.157660
    45  H   -0.017649
    46  H   -0.016876
    47  H   -0.041488
    48  H    0.000924
    49  H   -0.004041
    50  H    0.025460
    51  H    0.016419
    52  H    0.016614
    53  H    0.011223
    54  H    0.044191
    55  H    0.017825
    56  H    0.017924
    57  H    0.005855
    58  H    0.026762
    59  H    0.039548
    60  H    0.037306
    61  H    0.035605
    62  H    0.031530
    63  H    0.016550
    64  H    0.009428
    65  H    0.023171
    66  H    0.012517
    67  H    0.004721
    68  H    0.006326
    69  H    0.004744
    70  H    0.008762
    71  H    0.018207
    72  H    0.029023
    73  H    0.047641
    74  H    0.009121
    75  H    0.045972
    76  H    0.035115
    77  H    0.042945
    78  H    0.046383
    79  H    0.053787
    80  Mg   0.837838
    81  C   -0.016813
    82  C   -0.087818
    83  C   -0.045514
    84  C   -0.064866
    85  N   -0.254596
    86  C   -0.049836
    87  C   -0.015111
    88  C   -0.090490
    89  C    0.045752
    90  C    0.114377
    91  C    0.062542
    92  C   -0.077904
    93  H    0.034935
    94  N   -0.423517
    95  C    0.162928
    96  C   -0.174646
    97  C   -0.007817
    98  C    0.152106
    99  C    0.099375
   100  C    0.015562
   101  O   -0.253198
   102  C    0.061208
   103  N   -0.350030
   104  C    0.037502
   105  C   -0.019836
   106  C   -0.034829
   107  C    0.088920
   108  C    0.073663
   109  C    0.034727
   110  C   -0.007682
   111  N   -0.324096
   112  C    0.078458
   113  C   -0.163101
   114  C    0.002271
   115  C    0.096191
   116  C    0.131494
   117  C    0.042428
   118  O   -0.187734
   119  C    0.000906
   120  C    0.211287
   121  O   -0.251012
   122  O   -0.305642
   123  C    0.152007
   124  H   -0.019687
   125  H   -0.015580
   126  H   -0.040398
   127  H   -0.000635
   128  H   -0.004335
   129  H    0.022469
   130  H    0.014408
   131  H    0.016249
   132  H    0.013913
   133  H    0.037702
   134  H    0.020778
   135  H    0.019573
   136  H    0.008746
   137  H    0.026114
   138  H    0.039792
   139  H    0.038236
   140  H    0.036390
   141  H    0.033901
   142  H    0.014404
   143  H    0.012445
   144  H    0.025136
   145  H    0.011613
   146  H    0.005686
   147  H    0.006269
   148  H    0.003701
   149  H    0.010919
   150  H    0.017970
   151  H    0.030104
   152  H    0.046092
   153  H    0.008543
   154  H    0.047008
   155  H    0.035044
   156  H    0.043972
   157  H    0.049460
   158  H    0.053610
 Sum of Mulliken charges =  -0.00000

 Dipole moment (field-independent basis, Debye):
    X=              0.3130    Y=             -0.5313    Z=              8.2754  Tot=              8.2983
 Quadrupole moment (field-independent basis, Debye-Ang):
   XX=           -408.9682   YY=           -513.5904   ZZ=           -480.7114
   XY=            -21.5492   XZ=             -4.5750   YZ=             60.0051

 Normal termination of Gaussian 16 at Sun Sep 12 18:02:34 2021.
