 Gaussian 16, Revision A.03,
 Gaussian 16:  ES64L-G16RevA.03 25-Dec-2016

 -----------------------------------
 #p cam-b3lyp/Def2SVP td=(nstates=5)
 -----------------------------------

 --------------------------------
 TDDFT excited states in gaussian
 --------------------------------
 Symbolic Z-matrix:
 Charge =  0 Multiplicity = 1

                         Standard orientation:
 ---------------------------------------------------------------------
 Center     Atomic      Atomic             Coordinates (Angstroms)
 Number     Number       Type             X           Y           Z
 ---------------------------------------------------------------------
      1         12           0       -5.219817   -0.736842   -0.247002
      2          6           0       -5.587888    1.888217    2.158368
      3          6           0       -6.017017    1.553281   -2.647601
      4          6           0       -5.346422   -3.125153   -2.329444
      5          6           0       -5.572504   -2.995886    2.383206
      6          7           0       -5.716832    1.417446   -0.134459
      7          6           0       -5.764693    2.318730    0.841537
      8          6           0       -5.945559    3.778008    0.326592
      9          6           0       -6.624096    3.465622   -1.081954
     10          6           0       -6.058739    2.076720   -1.321213
     11          6           0       -8.145201    3.372486   -1.018181
     12          6           0       -4.578150    4.520520    0.151669
     13          6           0       -4.677238    6.037775   -0.031287
     14          1           0       -3.643631    6.882037    0.548563
     15          7           0       -5.141967   -0.720970   -2.220967
     16          6           0       -5.489190    0.303204   -3.036927
     17          6           0       -5.252524   -0.175932   -4.415730
     18          6           0       -4.919952   -1.625819   -4.342807
     19          6           0       -5.151449   -1.891451   -2.945944
     20          6           0       -5.303075    0.717166   -5.617217
     21          6           0       -4.475711   -2.617355   -5.371222
     22          8           0       -4.465641   -3.875361   -5.143418
     23          6           0       -4.132234   -2.077315   -6.699161
     24          7           0       -5.647839   -2.770563   -0.051021
     25          6           0       -5.575867   -3.595245   -1.101594
     26          6           0       -5.643657   -5.031399   -0.674035
     27          6           0       -5.532559   -5.024124    0.918874
     28          6           0       -5.500529   -3.492601    1.146209
     29          6           0       -6.906703   -5.795813   -1.094031
     30          6           0       -4.410874   -5.887006    1.549489
     31          6           0       -3.058765   -5.308996    1.196213
     32          7           0       -5.349258   -0.614696    1.916183
     33          6           0       -5.515958   -1.680404    2.812371
     34          6           0       -5.657306   -1.094971    4.158237
     35          6           0       -5.579100    0.280363    3.948041
     36          6           0       -5.426549    0.538803    2.555838
     37          6           0       -5.889990   -1.818063    5.361330
     38          6           0       -5.613630    1.592681    4.572930
     39          8           0       -5.629029    1.999349    5.735633
     40          6           0       -5.743000    2.690303    3.426494
     41          6           0       -4.727257    3.763704    3.708247
     42          8           0       -3.505011    3.524533    3.629010
     43          8           0       -5.346799    4.950997    3.792176
     44          6           0       -4.391843    6.063722    4.041287
     45          1           0       -6.482331    2.122642   -3.454603
     46          1           0       -5.285998   -3.984455   -3.000551
     47          1           0       -5.601129   -3.642332    3.262263
     48          1           0       -6.610684    4.394345    0.931705
     49          1           0       -6.285125    4.151591   -1.858013
     50          1           0       -8.503768    3.408365    0.010441
     51          1           0       -8.397695    2.415958   -1.476214
     52          1           0       -8.606648    4.135964   -1.645035
     53          1           0       -4.140357    4.246119   -0.808072
     54          1           0       -3.910394    4.300766    0.985418
     55          1           0       -5.667363    6.407706    0.236508
     56          1           0       -4.583189    6.260486   -1.094186
     57          1           0       -5.733355    1.688465   -5.376421
     58          1           0       -6.011508    0.271802   -6.315417
     59          1           0       -4.328683    0.816908   -6.095698
     60          1           0       -4.998382   -1.559959   -7.112294
     61          1           0       -3.751523   -2.918919   -7.276753
     62          1           0       -3.352025   -1.324476   -6.583152
     63          1           0       -4.813101   -5.602108   -1.087429
     64          1           0       -6.444877   -5.385306    1.394162
     65          1           0       -6.701506   -6.692600   -1.679157
     66          1           0       -7.549292   -5.108699   -1.643798
     67          1           0       -7.557748   -6.089990   -0.271220
     68          1           0       -4.441242   -6.899822    1.149207
     69          1           0       -4.480723   -5.957193    2.635052
     70          1           0       -2.865426   -5.727615    0.209192
     71          1           0       -2.305736   -5.636776    1.913653
     72          1           0       -3.105278   -4.225288    1.087128
     73          1           0       -5.235584   -1.377511    6.113417
     74          1           0       -5.684678   -2.880340    5.230872
     75          1           0       -6.948978   -1.613630    5.518195
     76          1           0       -6.763156    3.070433    3.470148
     77          1           0       -4.726145    6.577915    4.942442
     78          1           0       -4.341635    6.641480    3.118205
     79          1           0       -3.380989    5.775459    4.331835
     80         12           0        5.342443   -0.545461    0.282494
     81          6           0        5.078761    1.990770   -2.242793
     82          6           0        6.564173    1.864718    2.364085
     83          6           0        6.008462   -2.832930    2.378049
     84          6           0        5.199122   -2.909860   -2.273828
     85          7           0        5.725083    1.612476   -0.016087
     86          6           0        5.528596    2.479041   -0.998326
     87          6           0        5.754552    3.962727   -0.601887
     88          6           0        6.745292    3.731427    0.640623
     89          6           0        6.299413    2.329503    1.051086
     90          6           0        8.209591    3.668505    0.239141
     91          6           0        4.427629    4.670610   -0.154452
     92          6           0        4.515461    6.194802   -0.050184
     93          1           0        3.343635    6.986105   -0.415065
     94          7           0        5.697105   -0.437504    2.232144
     95          6           0        6.170620    0.625586    2.915443
     96          6           0        6.273576    0.189773    4.316739
     97          6           0        5.978500   -1.267596    4.377617
     98          6           0        5.901959   -1.580296    2.964664
     99          6           0        6.545117    1.140101    5.446589
    100          6           0        5.807759   -2.224392    5.518496
    101          8           0        5.791664   -3.493056    5.336672
    102          6           0        5.753696   -1.636258    6.864847
    103          7           0        5.783981   -2.566060    0.071375
    104          6           0        5.981472   -3.346726    1.148175
    105          6           0        6.009255   -4.807230    0.765358
    106          6           0        5.546045   -4.859277   -0.764447
    107          6           0        5.410550   -3.345549   -1.039467
    108          6           0        7.359843   -5.507798    0.912002
    109          6           0        4.344482   -5.782858   -1.104918
    110          6           0        3.081431   -5.239167   -0.476833
    111          7           0        4.986457   -0.512716   -1.848290
    112          6           0        4.996745   -1.614235   -2.731834
    113          6           0        4.817110   -1.079007   -4.097004
    114          6           0        4.737205    0.309709   -3.913821
    115          6           0        4.878716    0.619711   -2.534199
    116          6           0        4.796081   -1.846759   -5.295440
    117          6           0        4.575975    1.584673   -4.575018
    118          8           0        4.328173    1.940993   -5.726266
    119          6           0        4.916577    2.738998   -3.536793
    120          6           0        3.826344    3.772209   -3.616794
    121          8           0        2.664601    3.493229   -3.271645
    122          8           0        4.375111    4.972465   -3.878762
    123          6           0        3.334434    6.032057   -3.956702
    124          1           0        7.166926    2.489400    3.023889
    125          1           0        6.127844   -3.669310    3.070653
    126          1           0        5.045674   -3.589741   -3.114592
    127          1           0        6.241682    4.565984   -1.358566
    128          1           0        6.550232    4.442639    1.439050
    129          1           0        8.333729    3.671647   -0.833582
    130          1           0        8.591128    2.748115    0.661457
    131          1           0        8.767847    4.475761    0.721870
    132          1           0        4.225469    4.421810    0.895288
    133          1           0        3.614649    4.398779   -0.799282
    134          1           0        5.413836    6.590346   -0.539485
    135          1           0        4.642413    6.463957    1.001232
    136          1           0        6.882542    2.116825    5.078408
    137          1           0        7.405958    0.745060    5.996822
    138          1           0        5.699761    1.232317    6.131825
    139          1           0        6.667033   -1.076339    7.051287
    140          1           0        5.538977   -2.467985    7.538659
    141          1           0        4.929764   -0.914717    6.898605
    142          1           0        5.309455   -5.377313    1.364012
    143          1           0        6.348295   -5.227340   -1.420778
    144          1           0        7.321743   -6.395582    1.571137
    145          1           0        8.078566   -4.789261    1.283073
    146          1           0        7.816677   -5.830221   -0.022100
    147          1           0        4.499109   -6.777636   -0.679896
    148          1           0        4.185184   -5.909168   -2.170599
    149          1           0        3.131401   -5.620300    0.547533
    150          1           0        2.202521   -5.616255   -0.995831
    151          1           0        3.108313   -4.144621   -0.422977
    152          1           0        3.984414   -1.461208   -5.897978
    153          1           0        4.668268   -2.906800   -5.086327
    154          1           0        5.791612   -1.622911   -5.687966
    155          1           0        5.889730    3.148717   -3.810051
    156          1           0        3.446541    6.518962   -4.930383
    157          1           0        3.481121    6.661477   -3.058896
    158          1           0        2.298778    5.715415   -3.996581
 ---------------------------------------------------------------------

 SCF Done:  E(RCAM-B3LYP) =  -4069.81215462     A.U. after   19 cycles

 Excitation energies and oscillator strengths:

 Excited State   1:      Singlet-A      1.6581 eV  747.73 nm  f=0.0168  <S**2>=0.000
     309 -> 315        0.12762
     310 -> 316        0.11151
     311 -> 313        0.51799
     312 -> 314        0.45146
 This state for optimization and/or second-order correction.
 Total Energy, E(TD-HF/TD-DFT) =  -4069.75121936
 Copying the excited state density for this state as the 1-particle RhoCI density.

 Excited State   2:      Singlet-A      1.6963 eV  730.91 nm  f=0.7087  <S**2>=0.000
     309 -> 315       -0.11759
     310 -> 316        0.13540
     311 -> 313       -0.44991
     312 -> 314        0.51617

 Excited State   3:      Singlet-A      2.1842 eV  567.63 nm  f=0.0251  <S**2>=0.000
     309 -> 313        0.58570
     310 -> 314       -0.26708
     311 -> 315       -0.24681
     312 -> 316        0.11172

 Excited State   4:      Singlet-A      2.1950 eV  564.85 nm  f=0.1572  <S**2>=0.000
     309 -> 313        0.26448
     310 -> 314        0.58240
     311 -> 315       -0.11642
     312 -> 316       -0.25491

 Excited State   5:      Singlet-A      2.5498 eV  486.24 nm  f=0.0000  <S**2>=0.000
     312 -> 313        0.70707

 The electronic state is 1-A.
 Alpha  occ. eigenvalues --  -46.87541 -46.87536 -19.26359 -19.26149 -19.19154
 Alpha  occ. eigenvalues --  -19.18865 -19.18574 -19.18543 -19.17995 -19.17968
 Alpha  occ. eigenvalues --  -14.42377 -14.42199 -14.41244 -14.41207 -14.39225
 Alpha  occ. eigenvalues --  -14.39141 -14.38486 -14.38342 -10.39078 -10.38920
 Alpha  occ. eigenvalues --  -10.35248 -10.35172 -10.34190 -10.34173 -10.31808
 Alpha  occ. eigenvalues --  -10.31584 -10.31204 -10.31169 -10.30903 -10.30652
 Alpha  occ. eigenvalues --  -10.30327 -10.30285 -10.30267 -10.30253 -10.30014
 Alpha  occ. eigenvalues --  -10.29957 -10.29792 -10.29700 -10.29384 -10.29309
 Alpha  occ. eigenvalues --  -10.29286 -10.28993 -10.28614 -10.28567 -10.28511
 Alpha  occ. eigenvalues --  -10.28329 -10.28292 -10.28114 -10.28036 -10.27893
 Alpha  occ. eigenvalues --  -10.27883 -10.27550 -10.27547 -10.27475 -10.27407
 Alpha  occ. eigenvalues --  -10.27376 -10.27343 -10.27323 -10.27302 -10.27296
 Alpha  occ. eigenvalues --  -10.27274 -10.27254 -10.27165 -10.27150 -10.26995
 Alpha  occ. eigenvalues --  -10.26964 -10.26568 -10.26440 -10.26234 -10.26077
 Alpha  occ. eigenvalues --  -10.26029 -10.26020 -10.25996 -10.25940 -10.25817
 Alpha  occ. eigenvalues --  -10.25781 -10.25779 -10.25651 -10.25311 -10.25261
 Alpha  occ. eigenvalues --  -10.24771 -10.24598 -10.24595 -10.24579 -10.24551
 Alpha  occ. eigenvalues --  -10.24494  -3.16285  -3.16282  -1.91167  -1.91164
 Alpha  occ. eigenvalues --   -1.90756  -1.90751  -1.90593  -1.90593  -1.16649
 Alpha  occ. eigenvalues --   -1.16492  -1.08612  -1.08434  -1.06945  -1.06939
 Alpha  occ. eigenvalues --   -1.06825  -1.06488  -1.04378  -1.04332  -1.03545
 Alpha  occ. eigenvalues --   -1.03517  -1.02985  -1.02923  -1.02167  -1.01998
 Alpha  occ. eigenvalues --   -0.91893  -0.91744  -0.89384  -0.89299  -0.89045
 Alpha  occ. eigenvalues --   -0.88952  -0.88112  -0.88072  -0.87698  -0.87643
 Alpha  occ. eigenvalues --   -0.87570  -0.87427  -0.86990  -0.86979  -0.84893
 Alpha  occ. eigenvalues --   -0.84745  -0.83775  -0.83734  -0.82794  -0.82695
 Alpha  occ. eigenvalues --   -0.82543  -0.82411  -0.81541  -0.81396  -0.80370
 Alpha  occ. eigenvalues --   -0.80354  -0.78533  -0.78512  -0.77036  -0.76988
 Alpha  occ. eigenvalues --   -0.76817  -0.76727  -0.75757  -0.75711  -0.74709
 Alpha  occ. eigenvalues --   -0.74692  -0.72592  -0.72539  -0.71483  -0.71450
 Alpha  occ. eigenvalues --   -0.69702  -0.69645  -0.68722  -0.68637  -0.67498
 Alpha  occ. eigenvalues --   -0.67405  -0.67079  -0.66966  -0.65174  -0.65055
 Alpha  occ. eigenvalues --   -0.64677  -0.64635  -0.64564  -0.64404  -0.64099
 Alpha  occ. eigenvalues --   -0.64049  -0.62230  -0.62118  -0.60212  -0.60181
 Alpha  occ. eigenvalues --   -0.59689  -0.59565  -0.58892  -0.58760  -0.58332
 Alpha  occ. eigenvalues --   -0.58278  -0.57500  -0.57389  -0.57132  -0.57085
 Alpha  occ. eigenvalues --   -0.56106  -0.56076  -0.55833  -0.55799  -0.55354
 Alpha  occ. eigenvalues --   -0.55272  -0.55166  -0.55146  -0.54418  -0.54339
 Alpha  occ. eigenvalues --   -0.53807  -0.53659  -0.53121  -0.53064  -0.53046
 Alpha  occ. eigenvalues --   -0.52974  -0.52815  -0.52703  -0.52528  -0.52479
 Alpha  occ. eigenvalues --   -0.52288  -0.52236  -0.51808  -0.51706  -0.51546
 Alpha  occ. eigenvalues --   -0.51368  -0.51117  -0.50983  -0.50322  -0.50267
 Alpha  occ. eigenvalues --   -0.49861  -0.49807  -0.49754  -0.49658  -0.49372
 Alpha  occ. eigenvalues --   -0.49272  -0.49106  -0.49019  -0.48983  -0.48878
 Alpha  occ. eigenvalues --   -0.48483  -0.48389  -0.48293  -0.48259  -0.48213
 Alpha  occ. eigenvalues --   -0.48189  -0.47491  -0.47460  -0.47057  -0.47009
 Alpha  occ. eigenvalues --   -0.46606  -0.46571  -0.46448  -0.46324  -0.46167
 Alpha  occ. eigenvalues --   -0.46126  -0.46000  -0.45954  -0.45759  -0.45631
 Alpha  occ. eigenvalues --   -0.45108  -0.44991  -0.44437  -0.44374  -0.44369
 Alpha  occ. eigenvalues --   -0.44257  -0.44040  -0.43973  -0.43918  -0.43870
 Alpha  occ. eigenvalues --   -0.43823  -0.43778  -0.43504  -0.43304  -0.43289
 Alpha  occ. eigenvalues --   -0.43155  -0.42893  -0.42815  -0.42806  -0.42533
 Alpha  occ. eigenvalues --   -0.42452  -0.42437  -0.41857  -0.41797  -0.41582
 Alpha  occ. eigenvalues --   -0.41482  -0.41353  -0.41304  -0.40916  -0.40891
 Alpha  occ. eigenvalues --   -0.40643  -0.40607  -0.40569  -0.40551  -0.40389
 Alpha  occ. eigenvalues --   -0.40360  -0.40104  -0.39980  -0.39309  -0.39236
 Alpha  occ. eigenvalues --   -0.38254  -0.38243  -0.37551  -0.37516  -0.37158
 Alpha  occ. eigenvalues --   -0.37096  -0.37091  -0.37023  -0.36745  -0.36543
 Alpha  occ. eigenvalues --   -0.36129  -0.35991  -0.34146  -0.34046  -0.33836
 Alpha  occ. eigenvalues --   -0.33598  -0.33065  -0.32948  -0.31136  -0.31077
 Alpha  occ. eigenvalues --   -0.30862  -0.30796  -0.29903  -0.29832  -0.29206
 Alpha  occ. eigenvalues --   -0.29190  -0.29105  -0.29078  -0.23923  -0.23837
 Alpha  occ. eigenvalues --   -0.21001  -0.20881
 Alpha virt. eigenvalues --   -0.08677  -0.08523  -0.01564  -0.01502   0.00096
 Alpha virt. eigenvalues --    0.00204   0.02295   0.02422   0.03342   0.03523
 Alpha virt. eigenvalues --    0.04836   0.04952   0.05186   0.05265   0.06265

 Mulliken charges:
               1
     1  Mg   0.840418
     2  C   -0.002777
     3  C   -0.092787
     4  C   -0.046102
     5  C   -0.064185
     6  N   -0.256789
     7  C   -0.052351
     8  C   -0.014297
     9  C   -0.087325
    10  C    0.047014
    11  C    0.104900
    12  C    0.053118
    13  C   -0.071166
    14  H    0.034514
    15  N   -0.433239
    16  C    0.169587
    17  C   -0.175726
    18  C   -0.003352
    19  C    0.149177
    20  C    0.109993
    21  C    0.012871
    22  O   -0.250560
    23  C    0.061718
    24  N   -0.341180
    25  C    0.041429
    26  C   -0.028058
    27  C   -0.023761
    28  C    0.074630
    29  C    0.076356
    30  C    0.035264
    31  C   -0.004466
    32  N   -0.310243
    33  C    0.080081
    34  C   -0.170232
    35  C    0.007837
    36  C    0.082832
    37  C    0.127464
    38  C    0.045604
    39  O   -0.189862
    40  C   -0.005292
    41  C    0.212635
    42  O   -0.257144
    43  O   -0.304739
    44  C    0.158213
    45  H   -0.017716
    46  H   -0.017301
    47  H   -0.042096
    48  H    0.000142
    49  H   -0.003607
    50  H    0.025069
    51  H    0.016334
    52  H    0.016295
    53  H    0.013939
    54  H    0.044153
    55  H    0.017036
    56  H    0.018364
    57  H    0.005805
    58  H    0.026102
    59  H    0.042818
    60  H    0.036873
    61  H    0.035094
    62  H    0.034705
    63  H    0.016102
    64  H    0.008976
    65  H    0.022710
    66  H    0.012525
    67  H    0.004401
    68  H    0.005610
    69  H    0.004572
    70  H    0.007953
    71  H    0.018266
    72  H    0.029744
    73  H    0.046775
    74  H    0.008881
    75  H    0.045425
    76  H    0.034678
    77  H    0.042135
    78  H    0.046468
    79  H    0.052750
    80  Mg   0.839169
    81  C   -0.016803
    82  C   -0.087163
    83  C   -0.045423
    84  C   -0.064781
    85  N   -0.254605
    86  C   -0.049666
    87  C   -0.015390
    88  C   -0.090710
    89  C    0.046296
    90  C    0.114425
    91  C    0.062322
    92  C   -0.077482
    93  H    0.033744
    94  N   -0.423534
    95  C    0.163847
    96  C   -0.173980
    97  C   -0.007237
    98  C    0.152521
    99  C    0.099326
   100  C    0.016180
   101  O   -0.253443
   102  C    0.060715
   103  N   -0.350066
   104  C    0.037678
   105  C   -0.019811
   106  C   -0.034709
   107  C    0.088754
   108  C    0.073765
   109  C    0.034766
   110  C   -0.007825
   111  N   -0.323910
   112  C    0.078247
   113  C   -0.163495
   114  C    0.001580
   115  C    0.096201
   116  C    0.131698
   117  C    0.041758
   118  O   -0.189624
   119  C    0.001076
   120  C    0.210837
   121  O   -0.251243
   122  O   -0.305454
   123  C    0.152649
   124  H   -0.019703
   125  H   -0.015664
   126  H   -0.040605
   127  H   -0.001311
   128  H   -0.004002
   129  H    0.022134
   130  H    0.014389
   131  H    0.016093
   132  H    0.015808
   133  H    0.037711
   134  H    0.020127
   135  H    0.020111
   136  H    0.008749
   137  H    0.025822
   138  H    0.041534
   139  H    0.037904
   140  H    0.036378
   141  H    0.035673
   142  H    0.014363
   143  H    0.012085
   144  H    0.024929
   145  H    0.011541
   146  H    0.005462
   147  H    0.005773
   148  H    0.003830
   149  H    0.010418
   150  H    0.018660
   151  H    0.030527
   152  H    0.044881
   153  H    0.008844
   154  H    0.046495
   155  H    0.034695
   156  H    0.043063
   157  H    0.049854
   158  H    0.052232
 Sum of Mulliken charges =  -0.00000

 Dipole moment (field-independent basis, Debye):
    X=              0.7732    Y=              3.1558    Z=             -0.7738  Tot=              3.3400
 Quadrupole moment (field-independent basis, Debye-Ang):
   XX=           -473.3487   YY=           -461.3397   ZZ=           -540.7732
   XY=              6.8668   XZ=             35.2930   YZ=             -1.7197

 Normal termination of Gaussian 16 at Fri Sep 10 14:06:49 2021.
