 Gaussian 16, Revision A.03,
 Gaussian 16:  ES64L-G16RevA.03 25-Dec-2016

 -----------------------------------
 #p cam-b3lyp/Def2SVP td=(nstates=5)
 -----------------------------------

 --------------------------------
 TDDFT excited states in gaussian
 --------------------------------
 Symbolic Z-matrix:
 Charge =  0 Multiplicity = 1

                         Standard orientation:
 ---------------------------------------------------------------------
 Center     Atomic      Atomic             Coordinates (Angstroms)
 Number     Number       Type             X           Y           Z
 ---------------------------------------------------------------------
      1         12           0       -4.028035    0.545832   -0.076132
      2          6           0       -3.076841    3.996548   -0.078511
      3          6           0       -4.668564    0.873920   -3.411570
      4          6           0       -5.299037   -2.358715   -0.006979
      5          6           0       -4.397194    0.802496    3.379806
      6          7           0       -3.853888    2.267169   -1.457189
      7          6           0       -3.419914    3.518690   -1.345238
      8          6           0       -3.291791    4.252887   -2.713417
      9          6           0       -4.333894    3.392449   -3.559387
     10          6           0       -4.256117    2.087882   -2.786097
     11          6           0       -5.762411    3.922123   -3.486669
     12          6           0       -1.847507    4.151419   -3.309638
     13          6           0       -1.550989    5.106141   -4.469784
     14          1           0       -0.216424    5.674384   -4.585475
     15          7           0       -4.401607   -0.724413   -1.542342
     16          6           0       -4.620598   -0.417566   -2.843562
     17          6           0       -4.850882   -1.705414   -3.532835
     18          6           0       -4.935950   -2.768861   -2.493634
     19          6           0       -4.908080   -1.979391   -1.288919
     20          6           0       -4.918772   -1.840444   -5.023106
     21          6           0       -5.038341   -4.259239   -2.573778
     22          8           0       -5.333958   -4.976332   -1.557431
     23          6           0       -4.868317   -4.858498   -3.909825
     24          7           0       -4.959053   -0.561338    1.428864
     25          6           0       -5.365857   -1.816706    1.210809
     26          6           0       -5.738945   -2.500236    2.492812
     27          6           0       -5.269813   -1.524700    3.666694
     28          6           0       -4.753477   -0.347500    2.803058
     29          6           0       -7.228044   -2.829197    2.667106
     30          6           0       -4.326080   -2.120584    4.741269
     31          6           0       -2.983440   -2.441881    4.123869
     32          7           0       -3.620152    2.049046    1.435497
     33          6           0       -3.873264    1.951532    2.811397
     34          6           0       -3.531563    3.256340    3.407035
     35          6           0       -3.116416    4.032554    2.326762
     36          6           0       -3.218789    3.269823    1.128407
     37          6           0       -3.678844    3.611257    4.776990
     38          6           0       -2.633530    5.336742    1.902769
     39          8           0       -2.267068    6.357614    2.486738
     40          6           0       -2.704221    5.404784    0.313366
     41          6           0       -1.389313    5.946612   -0.177293
     42          8           0       -0.336963    5.289074   -0.044747
     43          8           0       -1.610222    7.034783   -0.930703
     44          6           0       -0.348218    7.604803   -1.473452
     45          1           0       -5.124558    0.919162   -4.402510
     46          1           0       -5.639803   -3.392670    0.078186
     47          1           0       -4.406645    0.929892    4.463842
     48          1           0       -3.598211    5.298976   -2.698309
     49          1           0       -4.000684    3.244607   -4.586439
     50          1           0       -5.851376    4.729703   -2.760157
     51          1           0       -6.373557    3.070789   -3.186297
     52          1           0       -6.118596    4.212687   -4.475346
     53          1           0       -1.736721    3.196085   -3.822593
     54          1           0       -1.097658    4.288038   -2.529646
     55          1           0       -2.307011    5.888186   -4.545580
     56          1           0       -1.642816    4.549293   -5.402354
     57          1           0       -4.988905   -0.868807   -5.510495
     58          1           0       -5.864310   -2.329891   -5.255717
     59          1           0       -4.092210   -2.430149   -5.419813
     60          1           0       -5.622471   -4.453105   -4.584700
     61          1           0       -4.884423   -5.937415   -3.759724
     62          1           0       -3.901570   -4.554910   -4.312545
     63          1           0       -5.221744   -3.453642    2.592540
     64          1           0       -6.113482   -1.137890    4.238772
     65          1           0       -7.424990   -3.886755    2.844552
     66          1           0       -7.757006   -2.475971    1.782390
     67          1           0       -7.730044   -2.271068    3.456983
     68          1           0       -4.733148   -3.054372    5.127641
     69          1           0       -4.163258   -1.454119    5.588360
     70          1           0       -3.147473   -3.424065    3.682008
     71          1           0       -2.211379   -2.483743    4.892881
     72          1           0       -2.744127   -1.755078    3.311762
     73          1           0       -2.772688    4.151255    5.051310
     74          1           0       -3.818862    2.729343    5.401669
     75          1           0       -4.571287    4.235048    4.729158
     76          1           0       -3.536481    6.062447    0.064476
     77          1           0       -0.307946    8.648899   -1.162847
     78          1           0       -0.348207    7.394777   -2.543168
     79          1           0        0.577733    7.225280   -1.039960
     80         12           0        3.492375   -1.992694    0.309639
     81          6           0        5.195960    1.164888    0.390101
     82          6           0        3.629437   -1.810800   -3.093696
     83          6           0        1.603410   -4.539548    0.196598
     84          6           0        2.492796   -1.379770    3.591545
     85          7           0        4.330801   -0.470065   -1.058161
     86          6           0        5.009152    0.658247   -0.912918
     87          6           0        5.585201    1.236896   -2.233106
     88          6           0        4.558890    0.554644   -3.262700
     89          6           0        4.169600   -0.673317   -2.442186
     90          6           0        3.308446    1.383711   -3.504286
     91          6           0        7.059630    0.769699   -2.497326
     92          6           0        7.789439    1.537622   -3.601602
     93          1           0        9.219956    1.787156   -3.447199
     94          7           0        3.146768   -3.270698   -1.168821
     95          6           0        3.274906   -3.038238   -2.492004
     96          6           0        2.882298   -4.288728   -3.160048
     97          6           0        2.354509   -5.224837   -2.130567
     98          6           0        2.327822   -4.354717   -0.972003
     99          6           0        3.097748   -4.530564   -4.625835
    100          6           0        1.930378   -6.661336   -2.183344
    101          8           0        1.279742   -7.207018   -1.223283
    102          6           0        2.217335   -7.384203   -3.430984
    103          7           0        2.056892   -2.742451    1.613325
    104          6           0        1.418322   -3.895905    1.349319
    105          6           0        0.639291   -4.375489    2.550788
    106          6           0        1.084201   -3.425960    3.758271
    107          6           0        2.017350   -2.462769    2.992188
    108          6           0       -0.882656   -4.343616    2.412789
    109          6           0        1.627702   -4.120952    5.036653
    110          6           0        2.951351   -4.787640    4.738547
    111          7           0        3.923407   -0.503468    1.814449
    112          6           0        3.376329   -0.420412    3.113646
    113          6           0        3.884669    0.826544    3.721195
    114          6           0        4.680197    1.398547    2.716984
    115          6           0        4.652280    0.576966    1.557786
    116          6           0        3.558000    1.313283    5.018306
    117          6           0        5.528690    2.515922    2.370259
    118          8           0        5.988351    3.479976    2.981041
    119          6           0        5.798936    2.478447    0.804387
    120          6           0        7.273887    2.673235    0.582793
    121          8           0        8.089854    1.819938    0.973560
    122          8           0        7.461212    3.720884   -0.240437
    123          6           0        8.908158    3.947146   -0.499196
    124          1           0        3.416662   -1.745068   -4.161079
    125          1           0        1.021592   -5.462674    0.249660
    126          1           0        2.305864   -1.166661    4.646209
    127          1           0        5.533702    2.315839   -2.316774
    128          1           0        5.059406    0.256979   -4.180439
    129          1           0        3.261844    2.242266   -2.850951
    130          1           0        2.474618    0.719901   -3.316806
    131          1           0        3.239651    1.663430   -4.559446
    132          1           0        7.042950   -0.232391   -2.944842
    133          1           0        7.636798    0.800527   -1.593683
    134          1           0        7.265724    2.461204   -3.876662
    135          1           0        7.769484    0.936358   -4.513801
    136          1           0        3.350673   -3.602775   -5.153690
    137          1           0        2.130891   -4.827452   -5.046433
    138          1           0        3.825363   -5.321545   -4.819754
    139          1           0        1.732549   -6.877116   -4.261835
    140          1           0        1.921509   -8.418363   -3.244209
    141          1           0        3.295529   -7.339713   -3.621044
    142          1           0        0.896622   -5.398781    2.795237
    143          1           0        0.244992   -2.820409    4.130939
    144          1           0       -1.356831   -5.329103    2.580278
    145          1           0       -1.128372   -3.965623    1.429290
    146          1           0       -1.390854   -3.636148    3.065802
    147          1           0        0.946093   -4.913202    5.355876
    148          1           0        1.751635   -3.445099    5.876209
    149          1           0        2.652510   -5.744802    4.300793
    150          1           0        3.521712   -4.933097    5.653735
    151          1           0        3.507157   -4.234155    3.972792
    152          1           0        4.480996    1.663355    5.461057
    153          1           0        3.091968    0.541183    5.626956
    154          1           0        2.855798    2.109380    4.756750
    155          1           0        5.208082    3.275144    0.350807
    156          1           0        9.123448    4.984421   -0.224617
    157          1           0        9.070994    3.661492   -1.555430
    158          1           0        9.617862    3.412480    0.121226
 ---------------------------------------------------------------------

 SCF Done:  E(RCAM-B3LYP) =  -4069.80666974     A.U. after   19 cycles

 Excitation energies and oscillator strengths:

 Excited State   1:      Singlet-A      1.6375 eV  757.17 nm  f=0.0018  <S**2>=0.000
     309 -> 315       -0.11105
     310 -> 316        0.12099
     311 -> 313        0.46369
     312 -> 314        0.50855
 This state for optimization and/or second-order correction.
 Total Energy, E(TD-HF/TD-DFT) =  -4069.74649424
 Copying the excited state density for this state as the 1-particle RhoCI density.

 Excited State   2:      Singlet-A      1.7115 eV  724.41 nm  f=0.6776  <S**2>=0.000
     309 -> 315       -0.13604
     310 -> 316       -0.12319
     311 -> 313        0.50513
     312 -> 314       -0.46058

 Excited State   3:      Singlet-A      2.1779 eV  569.28 nm  f=0.0179  <S**2>=0.000
     309 -> 313       -0.33092
     310 -> 314        0.55534
     311 -> 315       -0.13485
     312 -> 316       -0.22816

 Excited State   4:      Singlet-A      2.1984 eV  563.98 nm  f=0.1523  <S**2>=0.000
     309 -> 313        0.54872
     310 -> 314        0.32461
     311 -> 315        0.24389
     312 -> 316       -0.14670

 Excited State   5:      Singlet-A      2.2291 eV  556.21 nm  f=0.0000  <S**2>=0.000
     312 -> 313        0.70689

 The electronic state is 1-A.
 Alpha  occ. eigenvalues --  -46.87904 -46.87352 -19.26341 -19.26074 -19.19078
 Alpha  occ. eigenvalues --  -19.18874 -19.18829 -19.18457 -19.18223 -19.17680
 Alpha  occ. eigenvalues --  -14.42564 -14.42196 -14.41581 -14.41045 -14.39500
 Alpha  occ. eigenvalues --  -14.39052 -14.38687 -14.38272 -10.39141 -10.38793
 Alpha  occ. eigenvalues --  -10.35462 -10.35141 -10.34447 -10.33853 -10.31730
 Alpha  occ. eigenvalues --  -10.31529 -10.31526 -10.31013 -10.30998 -10.30735
 Alpha  occ. eigenvalues --  -10.30683 -10.30609 -10.30345 -10.30075 -10.30055
 Alpha  occ. eigenvalues --  -10.30044 -10.29861 -10.29726 -10.29542 -10.29351
 Alpha  occ. eigenvalues --  -10.29143 -10.29098 -10.28884 -10.28740 -10.28486
 Alpha  occ. eigenvalues --  -10.28455 -10.28453 -10.28248 -10.28084 -10.27880
 Alpha  occ. eigenvalues --  -10.27878 -10.27845 -10.27729 -10.27676 -10.27673
 Alpha  occ. eigenvalues --  -10.27637 -10.27595 -10.27506 -10.27389 -10.27314
 Alpha  occ. eigenvalues --  -10.27230 -10.27224 -10.27176 -10.27167 -10.26960
 Alpha  occ. eigenvalues --  -10.26885 -10.26670 -10.26513 -10.26476 -10.26404
 Alpha  occ. eigenvalues --  -10.26349 -10.26251 -10.26161 -10.25949 -10.25931
 Alpha  occ. eigenvalues --  -10.25747 -10.25638 -10.25573 -10.25457 -10.25233
 Alpha  occ. eigenvalues --  -10.24914 -10.24902 -10.24592 -10.24534 -10.24530
 Alpha  occ. eigenvalues --  -10.24349  -3.16646  -3.16103  -1.91527  -1.91114
 Alpha  occ. eigenvalues --   -1.90985  -1.90956  -1.90573  -1.90410  -1.16691
 Alpha  occ. eigenvalues --   -1.16365  -1.08679  -1.08281  -1.07221  -1.06711
 Alpha  occ. eigenvalues --   -1.06700  -1.06656  -1.04692  -1.04191  -1.03883
 Alpha  occ. eigenvalues --   -1.03354  -1.03339  -1.02721  -1.02521  -1.01788
 Alpha  occ. eigenvalues --   -0.92069  -0.91654  -0.89740  -0.89325  -0.89201
 Alpha  occ. eigenvalues --   -0.88886  -0.88485  -0.87964  -0.87894  -0.87800
 Alpha  occ. eigenvalues --   -0.87446  -0.87386  -0.87353  -0.86877  -0.85116
 Alpha  occ. eigenvalues --   -0.84731  -0.84220  -0.83547  -0.83072  -0.82764
 Alpha  occ. eigenvalues --   -0.82690  -0.82385  -0.81684  -0.81304  -0.80700
 Alpha  occ. eigenvalues --   -0.80154  -0.78893  -0.78359  -0.77427  -0.77101
 Alpha  occ. eigenvalues --   -0.76869  -0.76610  -0.76044  -0.75556  -0.75118
 Alpha  occ. eigenvalues --   -0.74444  -0.72907  -0.72387  -0.71793  -0.71312
 Alpha  occ. eigenvalues --   -0.70328  -0.69417  -0.68995  -0.68558  -0.67741
 Alpha  occ. eigenvalues --   -0.67344  -0.67292  -0.66961  -0.65434  -0.65027
 Alpha  occ. eigenvalues --   -0.64974  -0.64789  -0.64509  -0.64449  -0.64350
 Alpha  occ. eigenvalues --   -0.63867  -0.62400  -0.61985  -0.60547  -0.60061
 Alpha  occ. eigenvalues --   -0.59924  -0.59513  -0.59113  -0.58679  -0.58619
 Alpha  occ. eigenvalues --   -0.58114  -0.57671  -0.57445  -0.57216  -0.56926
 Alpha  occ. eigenvalues --   -0.56411  -0.56071  -0.55918  -0.55649  -0.55606
 Alpha  occ. eigenvalues --   -0.55527  -0.55185  -0.54947  -0.54690  -0.54222
 Alpha  occ. eigenvalues --   -0.54029  -0.53652  -0.53427  -0.53315  -0.53104
 Alpha  occ. eigenvalues --   -0.52952  -0.52897  -0.52840  -0.52729  -0.52616
 Alpha  occ. eigenvalues --   -0.52450  -0.52160  -0.52007  -0.51727  -0.51510
 Alpha  occ. eigenvalues --   -0.51407  -0.51339  -0.50897  -0.50667  -0.50294
 Alpha  occ. eigenvalues --   -0.50256  -0.50017  -0.49743  -0.49658  -0.49564
 Alpha  occ. eigenvalues --   -0.49309  -0.49236  -0.49211  -0.48919  -0.48860
 Alpha  occ. eigenvalues --   -0.48704  -0.48634  -0.48497  -0.48270  -0.48157
 Alpha  occ. eigenvalues --   -0.48070  -0.47757  -0.47403  -0.47334  -0.47102
 Alpha  occ. eigenvalues --   -0.46790  -0.46685  -0.46538  -0.46419  -0.46297
 Alpha  occ. eigenvalues --   -0.46287  -0.45955  -0.45923  -0.45748  -0.45524
 Alpha  occ. eigenvalues --   -0.45326  -0.44873  -0.44646  -0.44634  -0.44354
 Alpha  occ. eigenvalues --   -0.44241  -0.44199  -0.44146  -0.44097  -0.43847
 Alpha  occ. eigenvalues --   -0.43794  -0.43655  -0.43611  -0.43519  -0.43269
 Alpha  occ. eigenvalues --   -0.43177  -0.43102  -0.42941  -0.42758  -0.42647
 Alpha  occ. eigenvalues --   -0.42582  -0.42305  -0.42212  -0.41810  -0.41690
 Alpha  occ. eigenvalues --   -0.41670  -0.41375  -0.41247  -0.41196  -0.41037
 Alpha  occ. eigenvalues --   -0.40883  -0.40722  -0.40667  -0.40486  -0.40445
 Alpha  occ. eigenvalues --   -0.40370  -0.40182  -0.39999  -0.39615  -0.39098
 Alpha  occ. eigenvalues --   -0.38625  -0.37977  -0.37895  -0.37496  -0.37392
 Alpha  occ. eigenvalues --   -0.37385  -0.36932  -0.36893  -0.36742  -0.36453
 Alpha  occ. eigenvalues --   -0.36282  -0.35869  -0.34396  -0.33929  -0.33836
 Alpha  occ. eigenvalues --   -0.33567  -0.33293  -0.32866  -0.31367  -0.31139
 Alpha  occ. eigenvalues --   -0.31011  -0.30654  -0.30084  -0.29583  -0.29527
 Alpha  occ. eigenvalues --   -0.29405  -0.29042  -0.28861  -0.24193  -0.23719
 Alpha  occ. eigenvalues --   -0.21242  -0.20804
 Alpha virt. eigenvalues --   -0.08871  -0.08482  -0.01862  -0.01373  -0.00122
 Alpha virt. eigenvalues --    0.00251   0.02108   0.02441   0.02663   0.03650
 Alpha virt. eigenvalues --    0.04577   0.05027   0.05051   0.05468   0.05990

 Mulliken charges:
               1
     1  Mg   0.838721
     2  C   -0.002601
     3  C   -0.094713
     4  C   -0.046633
     5  C   -0.064565
     6  N   -0.256503
     7  C   -0.052807
     8  C   -0.013866
     9  C   -0.086975
    10  C    0.046281
    11  C    0.104777
    12  C    0.053744
    13  C   -0.071312
    14  H    0.034768
    15  N   -0.433603
    16  C    0.169008
    17  C   -0.177462
    18  C   -0.003101
    19  C    0.150068
    20  C    0.110414
    21  C    0.014619
    22  O   -0.248048
    23  C    0.062155
    24  N   -0.340859
    25  C    0.041589
    26  C   -0.030057
    27  C   -0.027685
    28  C    0.073826
    29  C    0.076141
    30  C    0.100268
    31  C   -0.076950
    32  N   -0.310582
    33  C    0.080294
    34  C   -0.170088
    35  C    0.008721
    36  C    0.083274
    37  C    0.127274
    38  C    0.046591
    39  O   -0.187246
    40  C   -0.005698
    41  C    0.213292
    42  O   -0.256987
    43  O   -0.304876
    44  C    0.157252
    45  H   -0.017648
    46  H   -0.016239
    47  H   -0.042189
    48  H    0.001324
    49  H   -0.004626
    50  H    0.025800
    51  H    0.016674
    52  H    0.016688
    53  H    0.010095
    54  H    0.043888
    55  H    0.018711
    56  H    0.017201
    57  H    0.005337
    58  H    0.027245
    59  H    0.038699
    60  H    0.036451
    61  H    0.037484
    62  H    0.031108
    63  H    0.017463
    64  H    0.010767
    65  H    0.023750
    66  H    0.013200
    67  H    0.005044
    68  H    0.005310
    69  H   -0.002616
    70  H    0.038521
    71  H    0.028502
    72  H    0.041672
    73  H    0.048072
    74  H    0.008307
    75  H    0.046405
    76  H    0.035330
    77  H    0.043852
    78  H    0.045464
    79  H    0.054442
    80  Mg   0.837227
    81  C   -0.015283
    82  C   -0.088674
    83  C   -0.047927
    84  C   -0.064001
    85  N   -0.254530
    86  C   -0.048266
    87  C   -0.015082
    88  C   -0.090891
    89  C    0.046096
    90  C    0.113923
    91  C    0.062691
    92  C   -0.077229
    93  H    0.034109
    94  N   -0.423341
    95  C    0.162750
    96  C   -0.176602
    97  C   -0.008170
    98  C    0.151219
    99  C    0.100402
   100  C    0.014606
   101  O   -0.252415
   102  C    0.061676
   103  N   -0.350422
   104  C    0.039532
   105  C   -0.030639
   106  C   -0.032200
   107  C    0.086514
   108  C    0.128466
   109  C    0.034446
   110  C   -0.005451
   111  N   -0.324958
   112  C    0.079787
   113  C   -0.160996
   114  C    0.004688
   115  C    0.096462
   116  C    0.130204
   117  C    0.044946
   118  O   -0.187042
   119  C   -0.000233
   120  C    0.210717
   121  O   -0.251834
   122  O   -0.305224
   123  C    0.152301
   124  H   -0.021984
   125  H   -0.014529
   126  H   -0.041512
   127  H   -0.000280
   128  H   -0.005861
   129  H    0.027357
   130  H    0.013780
   131  H    0.012859
   132  H    0.013490
   133  H    0.037679
   134  H    0.020302
   135  H    0.018773
   136  H    0.007577
   137  H    0.023071
   138  H    0.039053
   139  H    0.036309
   140  H    0.035992
   141  H    0.033523
   142  H    0.012006
   143  H    0.013136
   144  H    0.022005
   145  H    0.008143
   146  H   -0.065164
   147  H    0.004715
   148  H    0.001771
   149  H    0.010972
   150  H    0.017040
   151  H    0.030120
   152  H    0.045210
   153  H    0.006537
   154  H    0.052378
   155  H    0.039423
   156  H    0.043561
   157  H    0.048710
   158  H    0.053138
 Sum of Mulliken charges =  -0.00000

 Dipole moment (field-independent basis, Debye):
    X=             -3.9511    Y=             -0.9636    Z=             -7.7579  Tot=              8.7593
 Quadrupole moment (field-independent basis, Debye-Ang):
   XX=           -514.7784   YY=           -550.5973   ZZ=           -447.8404
   XY=            -13.2933   XZ=            -28.5609   YZ=            -33.5713

 Normal termination of Gaussian 16 at Wed Sep  8 19:08:16 2021.
