 Gaussian 16, Revision A.03,
 Gaussian 16:  ES64L-G16RevA.03 25-Dec-2016

 -----------------------------------
 #p cam-b3lyp/Def2SVP td=(nstates=5)
 -----------------------------------

 --------------------------------
 TDDFT excited states in gaussian
 --------------------------------
 Symbolic Z-matrix:
 Charge =  0 Multiplicity = 1

                         Standard orientation:
 ---------------------------------------------------------------------
 Center     Atomic      Atomic             Coordinates (Angstroms)
 Number     Number       Type             X           Y           Z
 ---------------------------------------------------------------------
      1         12           0       -4.544729   -0.121384    0.031328
      2          6           0       -4.228902    3.441012    0.178979
      3          6           0       -5.331095    0.234161   -3.269926
      4          6           0       -5.271118   -3.207924   -0.016141
      5          6           0       -4.852651   -0.090219    3.502621
      6          7           0       -4.722904    1.663005   -1.266691
      7          6           0       -4.517550    2.966074   -1.102333
      8          6           0       -4.563404    3.771682   -2.435100
      9          6           0       -5.458431    2.775753   -3.300577
     10          6           0       -5.125137    1.473508   -2.594180
     11          6           0       -6.956074    3.034802   -3.172274
     12          6           0       -3.142446    3.959580   -3.065421
     13          6           0       -3.056211    5.002998   -4.183096
     14          1           0       -1.849296    5.807623   -4.298350
     15          7           0       -4.726966   -1.371467   -1.487531
     16          6           0       -5.035471   -1.051452   -2.767258
     17          6           0       -5.050909   -2.327630   -3.514126
     18          6           0       -4.913244   -3.434266   -2.526958
     19          6           0       -4.992294   -2.707347   -1.285702
     20          6           0       -5.137047   -2.406026   -5.007506
     21          6           0       -4.748738   -4.913523   -2.678182
     22          8           0       -4.880952   -5.716881   -1.692430
     23          6           0       -4.513083   -5.411934   -4.045331
     24          7           0       -5.217422   -1.444634    1.499023
     25          6           0       -5.398474   -2.741835    1.227960
     26          6           0       -5.605116   -3.538077    2.482248
     27          6           0       -5.284567   -2.547234    3.692716
     28          6           0       -5.013439   -1.258745    2.877513
     29          6           0       -7.005226   -4.138141    2.670998
     30          6           0       -4.218157   -3.010161    4.716868
     31          6           0       -2.858306   -3.055671    4.056692
     32          7           0       -4.369244    1.361769    1.606291
     33          6           0       -4.560358    1.158788    2.980681
     34          6           0       -4.441146    2.475943    3.632572
     35          6           0       -4.203880    3.361841    2.583413
     36          6           0       -4.202704    2.647447    1.351369
     37          6           0       -4.609585    2.736876    5.021087
     38          6           0       -3.975570    4.749425    2.214168
     39          8           0       -3.781383    5.792600    2.839924
     40          6           0       -4.103818    4.874473    0.631846
     41          6           0       -2.922465    5.666335    0.141266
     42          8           0       -1.765754    5.204520    0.219447
     43          8           0       -3.357077    6.729213   -0.552955
     44          6           0       -2.234332    7.541541   -1.093065
     45          1           0       -5.816609    0.240463   -4.247769
     46          1           0       -5.418103   -4.289188    0.025106
     47          1           0       -4.853085   -0.015160    4.591574
     48          1           0       -5.052052    4.743449   -2.362196
     49          1           0       -5.134300    2.736561   -4.340349
     50          1           0       -7.167259    3.779756   -2.405224
     51          1           0       -7.395414    2.074503   -2.901535
     52          1           0       -7.387415    3.300074   -4.137858
     53          1           0       -2.877031    3.063861   -3.626940
     54          1           0       -2.406798    4.194476   -2.295375
     55          1           0       -3.942225    5.638155   -4.204629
     56          1           0       -3.073843    4.480928   -5.139825
     57          1           0       -5.394693   -1.442278   -5.444946
     58          1           0       -5.985763   -3.047385   -5.244250
     59          1           0       -4.230026   -2.818360   -5.449802
     60          1           0       -5.347183   -5.119760   -4.683658
     61          1           0       -4.330852   -6.481609   -3.948187
     62          1           0       -3.628744   -4.920985   -4.452594
     63          1           0       -4.922479   -4.385822    2.524203
     64          1           0       -6.166856   -2.345171    4.300507
     65          1           0       -7.003853   -5.220729    2.800250
     66          1           0       -7.614668   -3.847164    1.815893
     67          1           0       -7.575922   -3.715741    3.497618
     68          1           0       -4.439504   -4.018436    5.065196
     69          1           0       -4.152893   -2.363744    5.592160
     70          1           0       -2.856226   -4.030602    3.570546
     71          1           0       -2.069099   -2.991633    4.806533
     72          1           0       -2.770041   -2.301367    3.274567
     73          1           0       -3.807447    3.418925    5.302786
     74          1           0       -4.570672    1.817180    5.604395
     75          1           0       -5.600518    3.190645    5.022523
     76          1           0       -5.047537    5.381373    0.432927
     77          1           0       -2.373064    8.560801   -0.732375
     78          1           0       -2.227929    7.382951   -2.171589
     79          1           0       -1.243008    7.316607   -0.698069
     80         12           0        4.363801   -1.426594    0.149560
     81          6           0        5.162048    2.068668    0.307747
     82          6           0        4.047829   -1.048884   -3.225658
     83          6           0        3.221706   -4.384229    0.025482
     84          6           0        3.628643   -1.270643    3.552633
     85          7           0        4.600158    0.331900   -1.171089
     86          6           0        4.965641    1.594235   -1.005939
     87          6           0        5.207996    2.371812   -2.327375
     88          6           0        4.287216    1.485847   -3.300054
     89          6           0        4.337950    0.159865   -2.543848
     90          6           0        2.841743    1.952178   -3.350048
     91          6           0        6.712118    2.338964   -2.772974
     92          6           0        7.076452    3.329912   -3.880694
     93          1           0        8.396692    3.953230   -3.850385
     94          7           0        4.200375   -2.676933   -1.382927
     95          6           0        4.106060   -2.354238   -2.689924
     96          6           0        3.985263   -3.630403   -3.411710
     97          6           0        3.850236   -4.724051   -2.411500
     98          6           0        3.728646   -3.951785   -1.191296
     99          6           0        4.084108   -3.732555   -4.906109
    100          6           0        3.820903   -6.217447   -2.534460
    101          8           0        3.456217   -6.966241   -1.560225
    102          6           0        4.141840   -6.772760   -3.857374
    103          7           0        3.342847   -2.602725    1.526775
    104          6           0        3.008211   -3.872565    1.237886
    105          6           0        2.531367   -4.604689    2.469553
    106          6           0        2.845540   -3.629578    3.697562
    107          6           0        3.392031   -2.411893    2.920404
    108          6           0        1.050621   -4.983480    2.486727
    109          6           0        3.700389   -4.210803    4.856919
    110          6           0        5.109421   -4.474880    4.377044
    111          7           0        4.555781    0.048745    1.716271
    112          6           0        4.162437   -0.084218    3.065969
    113          6           0        4.387807    1.223137    3.715940
    114          6           0        4.878923    2.038975    2.685552
    115          6           0        4.935266    1.298436    1.473966
    116          6           0        4.097559    1.538348    5.073335
    117          6           0        5.352464    3.361251    2.344896
    118          8           0        5.607008    4.383357    2.980701
    119          6           0        5.437584    3.475264    0.761821
    120          6           0        6.770872    4.076436    0.410449
    121          8           0        7.824586    3.460790    0.649779
    122          8           0        6.574615    5.174128   -0.342498
    123          6           0        7.868379    5.799675   -0.725481
    124          1           0        3.701729   -0.992015   -4.258062
    125          1           0        2.917159   -5.432702    0.063543
    126          1           0        3.516578   -1.168308    4.634133
    127          1           0        4.861539    3.398305   -2.320501
    128          1           0        4.737855    1.381375   -4.283599
    129          1           0        2.644999    2.732462   -2.629913
    130          1           0        2.242772    1.077395   -3.133190
    131          1           0        2.577825    2.253398   -4.367859
    132          1           0        6.910659    1.393484   -3.293931
    133          1           0        7.361947    2.482443   -1.931688
    134          1           0        6.297169    4.087356   -4.028845
    135          1           0        7.110661    2.791193   -4.830768
    136          1           0        4.017126   -2.746438   -5.382009
    137          1           0        3.188895   -4.261655   -5.250350
    138          1           0        4.968211   -4.284049   -5.233036
    139          1           0        3.445641   -6.377754   -4.593409
    140          1           0        4.156153   -7.856202   -3.723873
    141          1           0        5.139267   -6.425987   -4.149771
    142          1           0        3.078755   -5.529266    2.606028
    143          1           0        1.925007   -3.295409    4.198359
    144          1           0        0.879066   -6.067979    2.622671
    145          1           0        0.599644   -4.639706    1.565324
    146          1           0        0.452465   -4.474527    3.240647
    147          1           0        3.296679   -5.173773    5.179206
    148          1           0        3.737280   -3.568468    5.730433
    149          1           0        5.027184   -5.454807    3.897409
    150          1           0        5.801047   -4.503174    5.216620
    151          1           0        5.404057   -3.753962    3.605596
    152          1           0        4.939236    2.105484    5.448094
    153          1           0        3.928649    0.639606    5.662832
    154          1           0        3.183063    2.123867    4.946352
    155          1           0        4.606956    4.101136    0.433314
    156          1           0        7.830221    6.841663   -0.393085
    157          1           0        7.976528    5.621143   -1.811844
    158          1           0        8.762455    5.449911   -0.222739
 ---------------------------------------------------------------------

 SCF Done:  E(RCAM-B3LYP) =  -4069.81137041     A.U. after   19 cycles

 Excitation energies and oscillator strengths:

 Excited State   1:      Singlet-A      1.6477 eV  752.46 nm  f=0.0015  <S**2>=0.000
     309 -> 315       -0.11345
     310 -> 316        0.12223
     311 -> 313       -0.46581
     312 -> 314        0.50592
 This state for optimization and/or second-order correction.
 Total Energy, E(TD-HF/TD-DFT) =  -4069.75081786
 Copying the excited state density for this state as the 1-particle RhoCI density.

 Excited State   2:      Singlet-A      1.7046 eV  727.36 nm  f=0.6975  <S**2>=0.000
     309 -> 315        0.13397
     310 -> 316        0.12236
     311 -> 313        0.50330
     312 -> 314        0.46342

 Excited State   3:      Singlet-A      2.1804 eV  568.62 nm  f=0.0159  <S**2>=0.000
     309 -> 313       -0.31488
     310 -> 314        0.56312
     311 -> 315        0.12995
     312 -> 316       -0.23418

 Excited State   4:      Singlet-A      2.1964 eV  564.49 nm  f=0.1584  <S**2>=0.000
     309 -> 313        0.55815
     310 -> 314        0.31013
     311 -> 315       -0.24628
     312 -> 316       -0.13850

 Excited State   5:      Singlet-A      2.3573 eV  525.96 nm  f=0.0000  <S**2>=0.000
     312 -> 313        0.70708

 The electronic state is 1-A.
 Alpha  occ. eigenvalues --  -46.87874 -46.87435 -19.26337 -19.26128 -19.19073
 Alpha  occ. eigenvalues --  -19.18935 -19.18851 -19.18530 -19.18211 -19.17770
 Alpha  occ. eigenvalues --  -14.42535 -14.42275 -14.41534 -14.41137 -14.39477
 Alpha  occ. eigenvalues --  -14.39133 -14.38660 -14.38360 -10.39135 -10.38856
 Alpha  occ. eigenvalues --  -10.35485 -10.35213 -10.34433 -10.33943 -10.31728
 Alpha  occ. eigenvalues --  -10.31571 -10.31493 -10.31074 -10.30995 -10.30812
 Alpha  occ. eigenvalues --  -10.30649 -10.30576 -10.30295 -10.30162 -10.30124
 Alpha  occ. eigenvalues --  -10.29998 -10.29947 -10.29701 -10.29657 -10.29329
 Alpha  occ. eigenvalues --  -10.29229 -10.29174 -10.28866 -10.28724 -10.28526
 Alpha  occ. eigenvalues --  -10.28510 -10.28436 -10.28225 -10.28172 -10.27931
 Alpha  occ. eigenvalues --  -10.27859 -10.27814 -10.27766 -10.27654 -10.27615
 Alpha  occ. eigenvalues --  -10.27584 -10.27541 -10.27481 -10.27461 -10.27352
 Alpha  occ. eigenvalues --  -10.27341 -10.27252 -10.27250 -10.27216 -10.27171
 Alpha  occ. eigenvalues --  -10.26869 -10.26755 -10.26526 -10.26447 -10.26354
 Alpha  occ. eigenvalues --  -10.26328 -10.26293 -10.26107 -10.25998 -10.25895
 Alpha  occ. eigenvalues --  -10.25780 -10.25721 -10.25559 -10.25507 -10.25162
 Alpha  occ. eigenvalues --  -10.24928 -10.24896 -10.24861 -10.24623 -10.24591
 Alpha  occ. eigenvalues --  -10.24460  -3.16617  -3.16185  -1.91499  -1.91086
 Alpha  occ. eigenvalues --   -1.91067  -1.90927  -1.90656  -1.90493  -1.16686
 Alpha  occ. eigenvalues --   -1.16420  -1.08666  -1.08370  -1.07248  -1.06785
 Alpha  occ. eigenvalues --   -1.06717  -1.06695  -1.04665  -1.04270  -1.03843
 Alpha  occ. eigenvalues --   -1.03440  -1.03309  -1.02814  -1.02488  -1.01882
 Alpha  occ. eigenvalues --   -0.92044  -0.91740  -0.89626  -0.89300  -0.89291
 Alpha  occ. eigenvalues --   -0.88943  -0.88388  -0.88018  -0.87936  -0.87767
 Alpha  occ. eigenvalues --   -0.87541  -0.87471  -0.87345  -0.86941  -0.85089
 Alpha  occ. eigenvalues --   -0.84797  -0.84050  -0.83676  -0.83040  -0.82767
 Alpha  occ. eigenvalues --   -0.82740  -0.82455  -0.81657  -0.81375  -0.80672
 Alpha  occ. eigenvalues --   -0.80228  -0.78872  -0.78432  -0.77322  -0.77038
 Alpha  occ. eigenvalues --   -0.76943  -0.76693  -0.76009  -0.75621  -0.74990
 Alpha  occ. eigenvalues --   -0.74587  -0.72855  -0.72473  -0.71754  -0.71355
 Alpha  occ. eigenvalues --   -0.70045  -0.69577  -0.68971  -0.68626  -0.67715
 Alpha  occ. eigenvalues --   -0.67384  -0.67329  -0.67020  -0.65390  -0.65060
 Alpha  occ. eigenvalues --   -0.64935  -0.64713  -0.64554  -0.64443  -0.64369
 Alpha  occ. eigenvalues --   -0.64001  -0.62366  -0.62061  -0.60517  -0.60145
 Alpha  occ. eigenvalues --   -0.59901  -0.59580  -0.59069  -0.58770  -0.58582
 Alpha  occ. eigenvalues --   -0.58202  -0.57647  -0.57388  -0.57296  -0.57022
 Alpha  occ. eigenvalues --   -0.56383  -0.56052  -0.55989  -0.55679  -0.55591
 Alpha  occ. eigenvalues --   -0.55432  -0.55252  -0.55036  -0.54612  -0.54282
 Alpha  occ. eigenvalues --   -0.54005  -0.53710  -0.53378  -0.53307  -0.53025
 Alpha  occ. eigenvalues --   -0.53000  -0.52938  -0.52839  -0.52697  -0.52578
 Alpha  occ. eigenvalues --   -0.52502  -0.52231  -0.51975  -0.51714  -0.51609
 Alpha  occ. eigenvalues --   -0.51466  -0.51280  -0.50976  -0.50651  -0.50325
 Alpha  occ. eigenvalues --   -0.50149  -0.49997  -0.49785  -0.49671  -0.49597
 Alpha  occ. eigenvalues --   -0.49293  -0.49286  -0.49188  -0.48984  -0.48873
 Alpha  occ. eigenvalues --   -0.48668  -0.48540  -0.48500  -0.48335  -0.48166
 Alpha  occ. eigenvalues --   -0.48138  -0.47785  -0.47401  -0.47375  -0.46932
 Alpha  occ. eigenvalues --   -0.46892  -0.46661  -0.46504  -0.46444  -0.46360
 Alpha  occ. eigenvalues --   -0.46238  -0.46064  -0.45892  -0.45852  -0.45583
 Alpha  occ. eigenvalues --   -0.45295  -0.44989  -0.44647  -0.44607  -0.44302
 Alpha  occ. eigenvalues --   -0.44266  -0.44247  -0.44183  -0.44085  -0.43913
 Alpha  occ. eigenvalues --   -0.43885  -0.43729  -0.43568  -0.43482  -0.43340
 Alpha  occ. eigenvalues --   -0.43170  -0.43109  -0.42801  -0.42737  -0.42714
 Alpha  occ. eigenvalues --   -0.42667  -0.42363  -0.42126  -0.41782  -0.41772
 Alpha  occ. eigenvalues --   -0.41644  -0.41429  -0.41264  -0.41225  -0.40987
 Alpha  occ. eigenvalues --   -0.40890  -0.40768  -0.40676  -0.40545  -0.40512
 Alpha  occ. eigenvalues --   -0.40367  -0.40291  -0.40053  -0.39592  -0.39251
 Alpha  occ. eigenvalues --   -0.38577  -0.38150  -0.37877  -0.37472  -0.37419
 Alpha  occ. eigenvalues --   -0.37363  -0.37061  -0.36990  -0.36783  -0.36555
 Alpha  occ. eigenvalues --   -0.36277  -0.36007  -0.34364  -0.34027  -0.33828
 Alpha  occ. eigenvalues --   -0.33634  -0.33263  -0.32951  -0.31383  -0.31112
 Alpha  occ. eigenvalues --   -0.31087  -0.30747  -0.30071  -0.29672  -0.29514
 Alpha  occ. eigenvalues --   -0.29385  -0.29115  -0.28956  -0.24159  -0.23805
 Alpha  occ. eigenvalues --   -0.21208  -0.20894
 Alpha virt. eigenvalues --   -0.08847  -0.08565  -0.01827  -0.01468  -0.00120
 Alpha virt. eigenvalues --    0.00178   0.02140   0.02456   0.02876   0.03501
 Alpha virt. eigenvalues --    0.04612   0.04951   0.05042   0.05401   0.06034

 Mulliken charges:
               1
     1  Mg   0.838905
     2  C   -0.002988
     3  C   -0.094853
     4  C   -0.045465
     5  C   -0.064110
     6  N   -0.256664
     7  C   -0.052775
     8  C   -0.013839
     9  C   -0.086916
    10  C    0.046131
    11  C    0.104800
    12  C    0.053801
    13  C   -0.071337
    14  H    0.034810
    15  N   -0.433195
    16  C    0.168432
    17  C   -0.177531
    18  C   -0.003655
    19  C    0.148927
    20  C    0.110338
    21  C    0.013244
    22  O   -0.248709
    23  C    0.062393
    24  N   -0.340929
    25  C    0.040984
    26  C   -0.028579
    27  C   -0.024356
    28  C    0.074476
    29  C    0.076050
    30  C    0.037864
    31  C   -0.011617
    32  N   -0.310558
    33  C    0.080469
    34  C   -0.169677
    35  C    0.008729
    36  C    0.083148
    37  C    0.127230
    38  C    0.046529
    39  O   -0.187398
    40  C   -0.005575
    41  C    0.213260
    42  O   -0.257157
    43  O   -0.304840
    44  C    0.157331
    45  H   -0.017766
    46  H   -0.016412
    47  H   -0.041621
    48  H    0.001261
    49  H   -0.004674
    50  H    0.025730
    51  H    0.016667
    52  H    0.016608
    53  H    0.010035
    54  H    0.043803
    55  H    0.018662
    56  H    0.017237
    57  H    0.005410
    58  H    0.027106
    59  H    0.038542
    60  H    0.036922
    61  H    0.036680
    62  H    0.030869
    63  H    0.016891
    64  H    0.009883
    65  H    0.023568
    66  H    0.012768
    67  H    0.004849
    68  H    0.006468
    69  H    0.004338
    70  H    0.011976
    71  H    0.017745
    72  H    0.030441
    73  H    0.048178
    74  H    0.008761
    75  H    0.046263
    76  H    0.035276
    77  H    0.043735
    78  H    0.045556
    79  H    0.054293
    80  Mg   0.837966
    81  C   -0.015822
    82  C   -0.088241
    83  C   -0.045616
    84  C   -0.064518
    85  N   -0.254523
    86  C   -0.048478
    87  C   -0.015113
    88  C   -0.090853
    89  C    0.046078
    90  C    0.113989
    91  C    0.062656
    92  C   -0.077361
    93  H    0.034261
    94  N   -0.423326
    95  C    0.162713
    96  C   -0.175874
    97  C   -0.008098
    98  C    0.151643
    99  C    0.100024
   100  C    0.015113
   101  O   -0.253075
   102  C    0.061494
   103  N   -0.349961
   104  C    0.037338
   105  C   -0.020684
   106  C   -0.034657
   107  C    0.089182
   108  C    0.073376
   109  C    0.034709
   110  C   -0.007382
   111  N   -0.324636
   112  C    0.079370
   113  C   -0.161813
   114  C    0.004032
   115  C    0.096353
   116  C    0.130674
   117  C    0.044326
   118  O   -0.186870
   119  C    0.000032
   120  C    0.210820
   121  O   -0.251699
   122  O   -0.305143
   123  C    0.152256
   124  H   -0.021405
   125  H   -0.015476
   126  H   -0.040856
   127  H    0.000011
   128  H   -0.005675
   129  H    0.027200
   130  H    0.014014
   131  H    0.013387
   132  H    0.013522
   133  H    0.037662
   134  H    0.020480
   135  H    0.018870
   136  H    0.007751
   137  H    0.024087
   138  H    0.039171
   139  H    0.037113
   140  H    0.036028
   141  H    0.033575
   142  H    0.013903
   143  H    0.011655
   144  H    0.024744
   145  H    0.013005
   146  H    0.005629
   147  H    0.005556
   148  H    0.003164
   149  H    0.010819
   150  H    0.017489
   151  H    0.030391
   152  H    0.045573
   153  H    0.007288
   154  H    0.050731
   155  H    0.038985
   156  H    0.043750
   157  H    0.048820
   158  H    0.053199
 Sum of Mulliken charges =  -0.00000

 Dipole moment (field-independent basis, Debye):
    X=             -3.9817    Y=             -1.4556    Z=             -7.6353  Tot=              8.7333
 Quadrupole moment (field-independent basis, Debye-Ang):
   XX=           -515.8178   YY=           -550.9949   ZZ=           -448.0566
   XY=             -7.1843   XZ=            -15.4681   YZ=            -44.1231

 Normal termination of Gaussian 16 at Thu Sep  9 13:31:12 2021.
