 Gaussian 16, Revision A.03,
 Gaussian 16:  ES64L-G16RevA.03 25-Dec-2016

 -----------------------------------
 #p cam-b3lyp/Def2SVP td=(nstates=5)
 -----------------------------------

 --------------------------------
 TDDFT excited states in gaussian
 --------------------------------
 Symbolic Z-matrix:
 Charge =  0 Multiplicity = 1

                         Standard orientation:
 ---------------------------------------------------------------------
 Center     Atomic      Atomic             Coordinates (Angstroms)
 Number     Number       Type             X           Y           Z
 ---------------------------------------------------------------------
      1         12           0        3.961770    1.616917    0.641802
      2          6           0        4.962233   -1.809158    0.371060
      3          6           0        5.148815    2.058997   -2.526566
      4          6           0        3.505656    4.732024    1.022183
      5          6           0        3.911750    1.175533    4.098439
      6          7           0        4.910846    0.224484   -0.793828
      7          6           0        5.182712   -1.076763   -0.797543
      8          6           0        5.653691   -1.605562   -2.185320
      9          6           0        6.202327   -0.241292   -2.801570
     10          6           0        5.345730    0.739758   -2.020734
     11          6           0        7.669718    0.025103   -2.481725
     12          6           0        4.471315   -2.182963   -3.034039
     13          6           0        4.885943   -3.010168   -4.254354
     14          1           0        4.076472   -4.159880   -4.628879
     15          7           0        3.823073    3.064191   -0.695737
     16          6           0        4.353483    3.068430   -1.942305
     17          6           0        3.973940    4.365580   -2.542328
     18          6           0        3.342051    5.192292   -1.476796
     19          6           0        3.558109    4.361888   -0.319590
     20          6           0        4.173795    4.692194   -3.990476
     21          6           0        2.662147    6.524763   -1.496347
     22          8           0        2.391296    7.165954   -0.423925
     23          6           0        2.397662    7.107896   -2.824144
     24          7           0        3.951937    2.855947    2.321784
     25          6           0        3.670391    4.159251    2.216352
     26          6           0        3.444203    4.779690    3.563138
     27          6           0        3.390607    3.569815    4.603850
     28          6           0        3.693997    2.405872    3.628420
     29          6           0        4.500091    5.797016    4.017185
     30          6           0        2.132282    3.470274    5.502254
     31          6           0        0.923745    3.134547    4.657373
     32          7           0        4.186646   -0.051861    2.011347
     33          6           0        4.151825   -0.003307    3.412456
     34          6           0        4.459901   -1.360481    3.899524
     35          6           0        4.670207   -2.105300    2.740705
     36          6           0        4.529849   -1.260552    1.602728
     37          6           0        4.572942   -1.750853    5.263073
     38          6           0        5.005081   -3.412709    2.199968
     39          8           0        5.145880   -4.538976    2.678706
     40          6           0        5.327411   -3.246064    0.649432
     41          6           0        4.574334   -4.318732   -0.089192
     42          8           0        3.327257   -4.309109   -0.134703
     43          8           0        5.435583   -5.044805   -0.818309
     44          6           0        4.749162   -6.108417   -1.599148
     45          1           0        5.697701    2.370035   -3.417588
     46          1           0        3.240694    5.776931    1.196541
     47          1           0        3.831077    0.943005    5.161865
     48          1           0        6.454964   -2.343497   -2.142449
     49          1           0        5.991879   -0.162791   -3.868000
     50          1           0        8.061902   -0.704534   -1.773387
     51          1           0        7.696645    1.026279   -2.051128
     52          1           0        8.262311    0.075909   -3.395524
     53          1           0        3.953148   -1.363789   -3.532555
     54          1           0        3.800327   -2.773516   -2.409261
     55          1           0        5.940622   -3.283442   -4.210957
     56          1           0        4.806096   -2.377901   -5.138697
     57          1           0        4.809382    3.957206   -4.482784
     58          1           0        4.747002    5.618169   -4.031868
     59          1           0        3.227722    4.821671   -4.516321
     60          1           0        3.339985    7.225976   -3.359526
     61          1           0        1.826895    8.018277   -2.644478
     62          1           0        1.800549    6.405048   -3.405874
     63          1           0        2.497571    5.317733    3.591822
     64          1           0        4.220136    3.601231    5.310651
     65          1           0        4.088652    6.777933    4.256403
     66          1           0        5.255817    5.869939    3.235616
     67          1           0        5.100467    5.482679    4.870507
     68          1           0        1.932249    4.427734    5.982051
     69          1           0        2.221830    2.718567    6.286581
     70          1           0        0.612543    4.107976    4.279986
     71          1           0        0.142538    2.686191    5.272112
     72          1           0        1.196931    2.523578    3.796808
     73          1           0        4.053261   -2.704852    5.351322
     74          1           0        4.141270   -1.001769    5.926501
     75          1           0        5.655802   -1.823103    5.363324
     76          1           0        6.406086   -3.353940    0.540143
     77          1           0        5.215531   -7.056099   -1.329642
     78          1           0        4.792621   -5.802326   -2.644530
     79          1           0        3.710374   -6.307293   -1.333240
     80         12           0       -4.762026   -0.319201   -0.420664
     81          6           0       -2.664756   -3.225221   -0.232079
     82          6           0       -2.732441    0.799364   -2.923499
     83          6           0       -6.313488    2.446249   -0.308001
     84          6           0       -5.900377   -1.104026    2.778381
     85          7           0       -2.963060   -1.190431   -1.367725
     86          6           0       -2.294464   -2.328319   -1.255744
     87          6           0       -1.217045   -2.551679   -2.350656
     88          6           0       -0.956171   -1.017695   -2.747801
     89          6           0       -2.311012   -0.430408   -2.357693
     90          6           0        0.115158   -0.350684   -1.901223
     91          6           0       -1.764567   -3.375279   -3.568815
     92          6           0       -0.691526   -3.894779   -4.528228
     93          1           0       -0.893677   -5.195691   -5.160079
     94          7           0       -4.872949    1.146386   -1.754205
     95          6           0       -3.971396    1.443721   -2.713401
     96          6           0       -4.506003    2.619608   -3.417421
     97          6           0       -5.715383    3.092045   -2.690156
     98          6           0       -5.667814    2.240528   -1.518517
     99          6           0       -3.921429    3.135307   -4.700295
    100          6           0       -6.737467    4.145756   -2.992196
    101          8           0       -7.569631    4.550508   -2.105343
    102          6           0       -6.674705    4.756111   -4.328245
    103          7           0       -5.777798    0.666613    1.102065
    104          6           0       -6.408366    1.831525    0.871161
    105          6           0       -7.295454    2.211210    2.032751
    106          6           0       -7.315684    0.932975    2.993637
    107          6           0       -6.321940    0.028361    2.232365
    108          6           0       -6.858166    3.439927    2.829886
    109          6           0       -8.708192    0.353211    3.364404
    110          6           0       -9.362546   -0.241899    2.138415
    111          7           0       -4.516342   -1.964960    0.957439
    112          6           0       -5.060912   -2.079258    2.255308
    113          6           0       -4.520508   -3.320612    2.846427
    114          6           0       -3.674349   -3.834533    1.852249
    115          6           0       -3.670885   -2.963749    0.729213
    116          6           0       -4.790569   -3.803708    4.157844
    117          6           0       -2.775049   -4.910185    1.501621
    118          8           0       -2.451256   -5.976556    2.022921
    119          6           0       -1.983320   -4.498491    0.186301
    120          6           0       -2.027327   -5.662204   -0.765718
    121          8           0       -3.106463   -6.035017   -1.258740
    122          8           0       -0.770313   -6.002352   -1.104231
    123          6           0       -0.762173   -7.145163   -2.055922
    124          1           0       -2.032816    1.346082   -3.556363
    125          1           0       -6.951320    3.331787   -0.258352
    126          1           0       -6.282825   -1.469197    3.733923
    127          1           0       -0.298704   -3.005886   -1.998334
    128          1           0       -0.787019   -0.909515   -3.815994
    129          1           0        0.442123   -0.985813   -1.091373
    130          1           0       -0.336259    0.553520   -1.514338
    131          1           0        0.946840   -0.025848   -2.532975
    132          1           0       -2.307830   -2.700048   -4.242372
    133          1           0       -2.375137   -4.191041   -3.233609
    134          1           0        0.314361   -3.829670   -4.095905
    135          1           0       -0.653170   -3.233205   -5.397058
    136          1           0       -2.940528    2.688259   -4.903712
    137          1           0       -3.709077    4.199350   -4.549961
    138          1           0       -4.602552    3.027057   -5.547052
    139          1           0       -5.696643    5.208808   -4.472878
    140          1           0       -7.539070    5.420419   -4.386935
    141          1           0       -6.769118    3.964076   -5.079490
    142          1           0       -8.305084    2.415077    1.697819
    143          1           0       -6.858400    1.150044    3.970161
    144          1           0       -7.633713    4.227493    2.878301
    145          1           0       -5.949615    3.827546    2.388505
    146          1           0       -6.550073    3.239912    3.854715
    147          1           0       -9.369542    1.150137    3.713253
    148          1           0       -8.669066   -0.398086    4.146076
    149          1           0       -9.813521    0.628416    1.652352
    150          1           0      -10.118622   -0.970718    2.423372
    151          1           0       -8.612656   -0.651294    1.451607
    152          1           0       -4.963344   -4.867944    4.068166
    153          1           0       -5.646024   -3.297121    4.599819
    154          1           0       -3.854691   -3.541903    4.658707
    155          1           0       -0.963382   -4.249937    0.482153
    156          1           0       -0.137194   -7.926189   -1.611980
    157          1           0       -0.431368   -6.725103   -3.024359
    158          1           0       -1.693226   -7.679110   -2.205927
 ---------------------------------------------------------------------

 SCF Done:  E(RCAM-B3LYP) =  -4069.81161549     A.U. after   19 cycles

 Excitation energies and oscillator strengths:

 Excited State   1:      Singlet-A      1.6451 eV  753.66 nm  f=0.0010  <S**2>=0.000
     309 -> 315        0.11644
     310 -> 316       -0.11842
     311 -> 313        0.47935
     312 -> 314        0.49333
 This state for optimization and/or second-order correction.
 Total Energy, E(TD-HF/TD-DFT) =  -4069.75115961
 Copying the excited state density for this state as the 1-particle RhoCI density.

 Excited State   2:      Singlet-A      1.7050 eV  727.17 nm  f=0.6916  <S**2>=0.000
     309 -> 315        0.13103
     310 -> 316        0.12574
     311 -> 313        0.49055
     312 -> 314       -0.47671

 Excited State   3:      Singlet-A      2.1796 eV  568.84 nm  f=0.0367  <S**2>=0.000
     309 -> 313        0.27866
     310 -> 314        0.58185
     311 -> 315       -0.11491
     312 -> 316        0.24184

 Excited State   4:      Singlet-A      2.1958 eV  564.63 nm  f=0.1454  <S**2>=0.000
     309 -> 313        0.57680
     310 -> 314       -0.27427
     311 -> 315       -0.25401
     312 -> 316       -0.12232

 Excited State   5:      Singlet-A      2.2750 eV  544.99 nm  f=0.0001  <S**2>=0.000
     312 -> 313        0.70653

 The electronic state is 1-A.
 Alpha  occ. eigenvalues --  -46.88054 -46.87378 -19.26504 -19.25788 -19.19256
 Alpha  occ. eigenvalues --  -19.19044 -19.18684 -19.18487 -19.18340 -19.17629
 Alpha  occ. eigenvalues --  -14.42717 -14.42211 -14.41685 -14.41079 -14.39654
 Alpha  occ. eigenvalues --  -14.39074 -14.38829 -14.38304 -10.39311 -10.38590
 Alpha  occ. eigenvalues --  -10.35679 -10.35171 -10.34566 -10.33786 -10.31886
 Alpha  occ. eigenvalues --  -10.31667 -10.31360 -10.31198 -10.30995 -10.30812
 Alpha  occ. eigenvalues --  -10.30732 -10.30705 -10.30440 -10.30127 -10.30107
 Alpha  occ. eigenvalues --  -10.30056 -10.29907 -10.29859 -10.29610 -10.29500
 Alpha  occ. eigenvalues --  -10.29186 -10.29119 -10.29092 -10.28982 -10.28619
 Alpha  occ. eigenvalues --  -10.28437 -10.28422 -10.28297 -10.28091 -10.28017
 Alpha  occ. eigenvalues --  -10.27991 -10.27843 -10.27824 -10.27778 -10.27710
 Alpha  occ. eigenvalues --  -10.27673 -10.27659 -10.27617 -10.27406 -10.27373
 Alpha  occ. eigenvalues --  -10.27318 -10.27315 -10.27192 -10.27189 -10.27159
 Alpha  occ. eigenvalues --  -10.27155 -10.26674 -10.26488 -10.26477 -10.26400
 Alpha  occ. eigenvalues --  -10.26322 -10.26253 -10.26244 -10.25967 -10.25962
 Alpha  occ. eigenvalues --  -10.25711 -10.25672 -10.25584 -10.25582 -10.25203
 Alpha  occ. eigenvalues --  -10.25052 -10.25014 -10.24811 -10.24562 -10.24558
 Alpha  occ. eigenvalues --  -10.24405  -3.16792  -3.16129  -1.91674  -1.91261
 Alpha  occ. eigenvalues --   -1.91102  -1.91011  -1.90600  -1.90436  -1.16852
 Alpha  occ. eigenvalues --   -1.16109  -1.08793  -1.08213  -1.07443  -1.06867
 Alpha  occ. eigenvalues --   -1.06743  -1.06461  -1.04847  -1.04195  -1.04000
 Alpha  occ. eigenvalues --   -1.03472  -1.03376  -1.02761  -1.02650  -1.01824
 Alpha  occ. eigenvalues --   -0.92209  -0.91622  -0.89720  -0.89507  -0.89231
 Alpha  occ. eigenvalues --   -0.88831  -0.88483  -0.88072  -0.87978  -0.87942
 Alpha  occ. eigenvalues --   -0.87528  -0.87506  -0.87402  -0.86891  -0.85286
 Alpha  occ. eigenvalues --   -0.84710  -0.84116  -0.83630  -0.83204  -0.82918
 Alpha  occ. eigenvalues --   -0.82722  -0.82363  -0.81813  -0.81230  -0.80839
 Alpha  occ. eigenvalues --   -0.80119  -0.79039  -0.78382  -0.77469  -0.77187
 Alpha  occ. eigenvalues --   -0.76879  -0.76589  -0.76170  -0.75512  -0.75093
 Alpha  occ. eigenvalues --   -0.74539  -0.72999  -0.72419  -0.71906  -0.71285
 Alpha  occ. eigenvalues --   -0.70080  -0.69541  -0.69156  -0.68545  -0.67878
 Alpha  occ. eigenvalues --   -0.67551  -0.67310  -0.66936  -0.65582  -0.65087
 Alpha  occ. eigenvalues --   -0.64935  -0.64863  -0.64474  -0.64472  -0.64321
 Alpha  occ. eigenvalues --   -0.63941  -0.62515  -0.61872  -0.60678  -0.60096
 Alpha  occ. eigenvalues --   -0.60092  -0.59471  -0.59218  -0.58730  -0.58687
 Alpha  occ. eigenvalues --   -0.58104  -0.57798  -0.57521  -0.57136  -0.56913
 Alpha  occ. eigenvalues --   -0.56538  -0.56225  -0.55925  -0.55759  -0.55530
 Alpha  occ. eigenvalues --   -0.55496  -0.55158  -0.54942  -0.54721  -0.54215
 Alpha  occ. eigenvalues --   -0.54144  -0.53602  -0.53534  -0.53494  -0.53148
 Alpha  occ. eigenvalues --   -0.53033  -0.52961  -0.52841  -0.52601  -0.52572
 Alpha  occ. eigenvalues --   -0.52431  -0.52175  -0.52088  -0.51920  -0.51597
 Alpha  occ. eigenvalues --   -0.51412  -0.51376  -0.50880  -0.50841  -0.50283
 Alpha  occ. eigenvalues --   -0.50251  -0.50156  -0.49784  -0.49732  -0.49632
 Alpha  occ. eigenvalues --   -0.49452  -0.49350  -0.49219  -0.48885  -0.48816
 Alpha  occ. eigenvalues --   -0.48782  -0.48685  -0.48638  -0.48240  -0.48137
 Alpha  occ. eigenvalues --   -0.48049  -0.47940  -0.47529  -0.47313  -0.47032
 Alpha  occ. eigenvalues --   -0.46872  -0.46851  -0.46580  -0.46440  -0.46369
 Alpha  occ. eigenvalues --   -0.46274  -0.46026  -0.46009  -0.45781  -0.45477
 Alpha  occ. eigenvalues --   -0.45395  -0.44952  -0.44806  -0.44750  -0.44376
 Alpha  occ. eigenvalues --   -0.44350  -0.44240  -0.44209  -0.44189  -0.43846
 Alpha  occ. eigenvalues --   -0.43826  -0.43710  -0.43646  -0.43624  -0.43251
 Alpha  occ. eigenvalues --   -0.43222  -0.43079  -0.42908  -0.42842  -0.42615
 Alpha  occ. eigenvalues --   -0.42440  -0.42317  -0.42231  -0.41930  -0.41819
 Alpha  occ. eigenvalues --   -0.41695  -0.41378  -0.41323  -0.41170  -0.41148
 Alpha  occ. eigenvalues --   -0.41096  -0.40772  -0.40719  -0.40595  -0.40481
 Alpha  occ. eigenvalues --   -0.40436  -0.40219  -0.39921  -0.39611  -0.39216
 Alpha  occ. eigenvalues --   -0.38689  -0.38111  -0.38096  -0.37558  -0.37538
 Alpha  occ. eigenvalues --   -0.37387  -0.37006  -0.36929  -0.36905  -0.36418
 Alpha  occ. eigenvalues --   -0.36357  -0.35884  -0.34527  -0.34000  -0.33960
 Alpha  occ. eigenvalues --   -0.33426  -0.33420  -0.32879  -0.31573  -0.31279
 Alpha  occ. eigenvalues --   -0.31045  -0.30669  -0.30200  -0.29690  -0.29540
 Alpha  occ. eigenvalues --   -0.29515  -0.29059  -0.28903  -0.24329  -0.23733
 Alpha  occ. eigenvalues --   -0.21370  -0.20837
 Alpha virt. eigenvalues --   -0.09013  -0.08504  -0.01993  -0.01410  -0.00307
 Alpha virt. eigenvalues --    0.00232   0.01996   0.02499   0.02661   0.03508
 Alpha virt. eigenvalues --    0.04365   0.04792   0.04969   0.05449   0.05664

 Mulliken charges:
               1
     1  Mg   0.833124
     2  C   -0.003453
     3  C   -0.095312
     4  C   -0.044990
     5  C   -0.063187
     6  N   -0.256642
     7  C   -0.054553
     8  C   -0.012922
     9  C   -0.086733
    10  C    0.044657
    11  C    0.104576
    12  C    0.051190
    13  C   -0.072430
    14  H    0.036233
    15  N   -0.433280
    16  C    0.166926
    17  C   -0.178581
    18  C   -0.004399
    19  C    0.148838
    20  C    0.110335
    21  C    0.012271
    22  O   -0.248598
    23  C    0.062953
    24  N   -0.340614
    25  C    0.041010
    26  C   -0.028249
    27  C   -0.024247
    28  C    0.075125
    29  C    0.075962
    30  C    0.034883
    31  C   -0.004575
    32  N   -0.310905
    33  C    0.080961
    34  C   -0.168575
    35  C    0.009466
    36  C    0.081980
    37  C    0.126867
    38  C    0.047229
    39  O   -0.185730
    40  C   -0.006211
    41  C    0.213819
    42  O   -0.257519
    43  O   -0.304644
    44  C    0.156242
    45  H   -0.017913
    46  H   -0.016250
    47  H   -0.040441
    48  H    0.001986
    49  H   -0.004896
    50  H    0.026051
    51  H    0.017324
    52  H    0.016997
    53  H    0.009124
    54  H    0.042529
    55  H    0.019863
    56  H    0.017636
    57  H    0.005538
    58  H    0.027625
    59  H    0.037202
    60  H    0.037703
    61  H    0.036433
    62  H    0.029132
    63  H    0.017119
    64  H    0.009987
    65  H    0.023716
    66  H    0.012554
    67  H    0.005151
    68  H    0.006841
    69  H    0.005172
    70  H    0.009185
    71  H    0.018680
    72  H    0.028855
    73  H    0.049743
    74  H    0.009604
    75  H    0.046465
    76  H    0.035683
    77  H    0.044168
    78  H    0.044994
    79  H    0.055532
    80  Mg   0.836865
    81  C   -0.017309
    82  C   -0.087759
    83  C   -0.045722
    84  C   -0.066032
    85  N   -0.254476
    86  C   -0.049064
    87  C   -0.018287
    88  C   -0.092495
    89  C    0.045096
    90  C    0.101778
    91  C    0.062711
    92  C   -0.077554
    93  H    0.032168
    94  N   -0.423368
    95  C    0.162632
    96  C   -0.175163
    97  C   -0.008279
    98  C    0.151893
    99  C    0.099959
   100  C    0.015257
   101  O   -0.253757
   102  C    0.061379
   103  N   -0.350181
   104  C    0.037209
   105  C   -0.019570
   106  C   -0.034741
   107  C    0.089345
   108  C    0.073858
   109  C    0.034894
   110  C   -0.007548
   111  N   -0.324365
   112  C    0.079081
   113  C   -0.163720
   114  C    0.003414
   115  C    0.095472
   116  C    0.131492
   117  C    0.043160
   118  O   -0.185759
   119  C    0.000242
   120  C    0.209065
   121  O   -0.253687
   122  O   -0.298753
   123  C    0.153423
   124  H   -0.021630
   125  H   -0.016276
   126  H   -0.041157
   127  H    0.012542
   128  H   -0.007181
   129  H    0.036179
   130  H    0.013819
   131  H    0.020201
   132  H    0.012329
   133  H    0.037636
   134  H    0.023023
   135  H    0.016983
   136  H    0.006733
   137  H    0.024678
   138  H    0.038729
   139  H    0.037622
   140  H    0.035725
   141  H    0.033331
   142  H    0.013880
   143  H    0.011706
   144  H    0.024562
   145  H    0.012077
   146  H    0.004727
   147  H    0.005692
   148  H    0.003335
   149  H    0.010693
   150  H    0.017468
   151  H    0.030485
   152  H    0.046015
   153  H    0.007577
   154  H    0.047428
   155  H    0.049381
   156  H    0.042786
   157  H    0.046893
   158  H    0.051816
 Sum of Mulliken charges =  -0.00000

 Dipole moment (field-independent basis, Debye):
    X=              4.6926    Y=              4.7218    Z=             -5.1598  Tot=              8.4226
 Quadrupole moment (field-independent basis, Debye-Ang):
   XX=           -508.2063   YY=           -564.0614   ZZ=           -450.5625
   XY=              4.8271   XZ=            -34.8434   YZ=             19.9674

 Normal termination of Gaussian 16 at Fri Sep 10 03:07:56 2021.
