 Gaussian 16, Revision A.03,
 Gaussian 16:  ES64L-G16RevA.03 25-Dec-2016

 -----------------------------------
 #p cam-b3lyp/Def2SVP td=(nstates=5)
 -----------------------------------

 --------------------------------
 TDDFT excited states in gaussian
 --------------------------------
 Symbolic Z-matrix:
 Charge =  0 Multiplicity = 1

                         Standard orientation:
 ---------------------------------------------------------------------
 Center     Atomic      Atomic             Coordinates (Angstroms)
 Number     Number       Type             X           Y           Z
 ---------------------------------------------------------------------
      1         12           0       -6.419847   -0.832020    0.053778
      2          6           0       -6.701421    2.037498    2.174815
      3          6           0       -7.358722    1.177464   -2.539203
      4          6           0       -6.619447   -3.434050   -1.747950
      5          6           0       -6.618681   -2.792714    2.928114
      6          7           0       -6.935718    1.318548   -0.044086
      7          6           0       -6.946712    2.320637    0.829338
      8          6           0       -7.169154    3.713855    0.168402
      9          6           0       -7.911402    3.245415   -1.162624
     10          6           0       -7.342259    1.842244   -1.277130
     11          6           0       -9.426459    3.150327   -1.014094
     12          6           0       -5.820492    4.441342   -0.153474
     13          6           0       -5.945862    5.928926   -0.495133
     14          1           0       -4.895240    6.837838   -0.062213
     15          7           0       -6.437804   -1.031160   -1.911640
     16          6           0       -6.835930   -0.104322   -2.815937
     17          6           0       -6.660741   -0.729572   -4.144490
     18          6           0       -6.308282   -2.160745   -3.930925
     19          6           0       -6.468820   -2.273799   -2.503752
     20          6           0       -6.779704    0.026753   -5.431957
     21          6           0       -5.902891   -3.255798   -4.866152
     22          8           0       -5.867257   -4.481345   -4.503748
     23          6           0       -5.630349   -2.861761   -6.260247
     24          7           0       -6.814330   -2.834836    0.490522
     25          6           0       -6.783750   -3.768769   -0.466461
     26          6           0       -6.814153   -5.150085    0.117476
     27          6           0       -6.626190   -4.968342    1.692720
     28          6           0       -6.600913   -3.420988    1.750394
     29          6           0       -8.087117   -5.963612   -0.154085
     30          6           0       -5.465395   -5.750258    2.357235
     31          6           0       -4.138743   -5.205845    1.876916
     32          7           0       -6.445855   -0.475362    2.194611
     33          6           0       -6.556652   -1.437930    3.208446
     34          6           0       -6.639466   -0.710022    4.488040
     35          6           0       -6.587437    0.634623    4.126007
     36          6           0       -6.505438    0.740545    2.708139
     37          6           0       -6.805275   -1.298947    5.772605
     38          6           0       -6.606862    2.007053    4.605504
     39          8           0       -6.570679    2.538064    5.716454
     40          6           0       -6.804249    2.972192    3.354356
     41          6           0       -5.788545    4.076230    3.467289
     42          8           0       -4.568881    3.837454    3.354276
     43          8           0       -6.416991    5.261713    3.452161
     44          6           0       -5.464033    6.400899    3.531412
     45          1           0       -7.869100    1.652456   -3.379345
     46          1           0       -6.581636   -4.361060   -2.323848
     47          1           0       -6.597253   -3.339541    3.872558
     48          1           0       -7.811300    4.388390    0.735036
     49          1           0       -7.618342    3.844699   -2.024423
     50          1           0       -9.735218    3.296004    0.020974
     51          1           0       -9.689742    2.147977   -1.352427
     52          1           0       -9.926502    3.837955   -1.696664
     53          1           0       -5.426513    4.066582   -1.098142
     54          1           0       -5.110674    4.318041    0.665233
     55          1           0       -6.926079    6.319699   -0.220580
     56          1           0       -5.905942    6.034903   -1.579280
     57          1           0       -7.209033    1.015830   -5.277207
     58          1           0       -7.515897   -0.496541   -6.041787
     59          1           0       -5.830828    0.079750   -5.965959
     60          1           0       -6.521402   -2.397978   -6.683895
     61          1           0       -5.268327   -3.758981   -6.761032
     62          1           0       -4.854201   -2.095917   -6.265405
     63          1           0       -5.998030   -5.757315   -0.271935
     64          1           0       -7.510198   -5.281175    2.248902
     65          1           0       -7.900118   -6.917599   -0.647689
     66          1           0       -8.763463   -5.344606   -0.742878
     67          1           0       -8.694134   -6.170292    0.726955
     68          1           0       -5.503382   -6.800876    2.071392
     69          1           0       -5.481811   -5.702001    3.446112
     70          1           0       -3.988568   -5.728458    0.932906
     71          1           0       -3.348136   -5.448686    2.587676
     72          1           0       -4.203013   -4.140823    1.653124
     73          1           0       -6.120379   -0.774891    6.439128
     74          1           0       -6.594243   -2.367817    5.748398
     75          1           0       -7.857725   -1.085213    5.958408
     76          1           0       -7.825425    3.348458    3.406744
     77          1           0       -5.760258    7.008266    4.386742
     78          1           0       -5.465242    6.874780    2.549658
     79          1           0       -4.437037    6.152360    3.801310
     80         12           0        6.801274   -0.441196    0.034633
     81          6           0        5.110511    1.839287   -2.160760
     82          6           0        8.994769    2.079333    0.720309
     83          6           0        8.569191   -2.545072    1.620694
     84          6           0        5.210128   -3.036460   -1.661998
     85          7           0        6.930873    1.645079   -0.688481
     86          6           0        6.197231    2.419355   -1.473737
     87          6           0        6.605413    3.916962   -1.463312
     88          6           0        8.134308    3.746296   -1.002650
     89          6           0        8.015134    2.425987   -0.244188
     90          6           0        9.093822    3.545178   -2.163782
     91          6           0        5.781846    4.753718   -0.422347
     92          6           0        5.907791    6.271318   -0.573249
     93          1           0        4.738637    7.098542   -0.288163
     94          7           0        8.221380   -0.161133    1.392362
     95          6           0        8.999334    0.931322    1.542737
     96          6           0        9.898356    0.633183    2.668366
     97          6           0        9.699255   -0.787541    3.064119
     98          6           0        8.817976   -1.235343    2.004450
     99          6           0       10.771518    1.672292    3.309665
    100          6           0       10.226342   -1.610756    4.200211
    101          8           0       10.112768   -2.887345    4.216160
    102          6           0       10.961502   -0.887509    5.248047
    103          7           0        7.046345   -2.497813   -0.145948
    104          6           0        7.835342   -3.177345    0.704716
    105          6           0        7.641597   -4.667583    0.556195
    106          6           0        6.376597   -4.842516   -0.406490
    107          6           0        6.100561   -3.358584   -0.733820
    108          6           0        8.829264   -5.438729   -0.019295
    109          6           0        5.204269   -5.713087    0.123064
    110          6           0        4.538251   -5.025381    1.293038
    111          7           0        5.274386   -0.599785   -1.485727
    112          6           0        4.774278   -1.783007   -2.072214
    113          6           0        3.833398   -1.377405   -3.136477
    114          6           0        3.869113    0.024935   -3.110502
    115          6           0        4.783944    0.462338   -2.114891
    116          6           0        3.123665   -2.258972   -3.999740
    117          6           0        3.348903    1.234610   -3.706107
    118          8           0        2.477406    1.488793   -4.536549
    119          6           0        4.224287    2.462353   -3.203369
    120          6           0        3.285992    3.552970   -2.764429
    121          8           0        2.541507    3.388723   -1.781893
    122          8           0        3.575952    4.681169   -3.437813
    123          6           0        2.679078    5.794862   -3.028987
    124          1           0        9.866079    2.725562    0.830247
    125          1           0        9.071807   -3.313429    2.212716
    126          1           0        4.599846   -3.785860   -2.170551
    127          1           0        6.560387    4.406792   -2.428616
    128          1           0        8.436119    4.545882   -0.331139
    129          1           0        8.572183    3.431762   -3.102485
    130          1           0        9.653328    2.648588   -1.931123
    131          1           0        9.825377    4.357767   -2.193357
    132          1           0        6.227590    4.626194    0.572536
    133          1           0        4.746649    4.473331   -0.441676
    134          1           0        6.353666    6.554368   -1.534508
    135          1           0        6.620410    6.636050    0.170496
    136          1           0       10.828636    2.582057    2.699364
    137          1           0       11.793458    1.277951    3.305685
    138          1           0       10.480580    1.889614    4.339608
    139          1           0       11.811184   -0.374127    4.804250
    140          1           0       11.181140   -1.630741    6.016969
    141          1           0       10.307327   -0.112646    5.663065
    142          1           0        7.421581   -5.126157    1.512428
    143          1           0        6.650313   -5.327856   -1.354834
    144          1           0        9.184413   -6.250941    0.642717
    145          1           0        9.627006   -4.736233   -0.220890
    146          1           0        8.660291   -5.883629   -0.998433
    147          1           0        5.580893   -6.668038    0.497746
    148          1           0        4.456457   -5.935303   -0.630847
    149          1           0        5.175097   -5.303724    2.138043
    150          1           0        3.522822   -5.393127    1.426135
    151          1           0        4.587014   -3.935263    1.188553
    152          1           0        2.111447   -1.882644   -4.065230
    153          1           0        3.145230   -3.281559   -3.628757
    154          1           0        3.705542   -2.143113   -4.918039
    155          1           0        4.856430    2.776244   -4.034892
    156          1           0        2.203203    6.172442   -3.939297
    157          1           0        3.317170    6.500380   -2.464344
    158          1           0        1.813909    5.545955   -2.425698
 ---------------------------------------------------------------------

 SCF Done:  E(RCAM-B3LYP) =  -4069.81171577     A.U. after   19 cycles

 Excitation energies and oscillator strengths:

 Excited State   1:      Singlet-A      1.6671 eV  743.72 nm  f=0.1358  <S**2>=0.000
     309 -> 315       -0.13569
     310 -> 316        0.10507
     311 -> 313        0.54308
     312 -> 314        0.42003
 This state for optimization and/or second-order correction.
 Total Energy, E(TD-HF/TD-DFT) =  -4069.75045161
 Copying the excited state density for this state as the 1-particle RhoCI density.

 Excited State   2:      Singlet-A      1.6880 eV  734.52 nm  f=0.6265  <S**2>=0.000
     309 -> 315        0.10808
     310 -> 316        0.14038
     311 -> 313       -0.41924
     312 -> 314        0.54201

 Excited State   3:      Singlet-A      2.1845 eV  567.57 nm  f=0.0361  <S**2>=0.000
     309 -> 313        0.60442
     310 -> 314        0.22043
     311 -> 315        0.25534

 Excited State   4:      Singlet-A      2.1932 eV  565.30 nm  f=0.1516  <S**2>=0.000
     309 -> 313       -0.21870
     310 -> 314        0.60181
     312 -> 316       -0.26194

 Excited State   5:      Singlet-A      2.6302 eV  471.39 nm  f=0.0000  <S**2>=0.000
     312 -> 313        0.70686

 The electronic state is 1-A.
 Alpha  occ. eigenvalues --  -46.87583 -46.87480 -19.26314 -19.26007 -19.19098
 Alpha  occ. eigenvalues --  -19.18715 -19.18640 -19.18512 -19.18014 -19.17886
 Alpha  occ. eigenvalues --  -14.42424 -14.42139 -14.41286 -14.41152 -14.39277
 Alpha  occ. eigenvalues --  -14.39086 -14.38525 -14.38277 -10.39031 -10.38778
 Alpha  occ. eigenvalues --  -10.35318 -10.35144 -10.34190 -10.34105 -10.31746
 Alpha  occ. eigenvalues --  -10.31430 -10.31241 -10.31102 -10.30951 -10.30592
 Alpha  occ. eigenvalues --  -10.30326 -10.30291 -10.30264 -10.30208 -10.30066
 Alpha  occ. eigenvalues --  -10.29914 -10.29825 -10.29641 -10.29362 -10.29331
 Alpha  occ. eigenvalues --  -10.29329 -10.28945 -10.28652 -10.28584 -10.28437
 Alpha  occ. eigenvalues --  -10.28334 -10.28234 -10.28078 -10.28052 -10.27935
 Alpha  occ. eigenvalues --  -10.27818 -10.27599 -10.27491 -10.27445 -10.27421
 Alpha  occ. eigenvalues --  -10.27414 -10.27396 -10.27392 -10.27307 -10.27273
 Alpha  occ. eigenvalues --  -10.27259 -10.27211 -10.27136 -10.27099 -10.27002
 Alpha  occ. eigenvalues --  -10.26870 -10.26607 -10.26349 -10.26337 -10.26077
 Alpha  occ. eigenvalues --  -10.26055 -10.25978 -10.25970 -10.25967 -10.25860
 Alpha  occ. eigenvalues --  -10.25796 -10.25728 -10.25589 -10.25340 -10.25223
 Alpha  occ. eigenvalues --  -10.24808 -10.24635 -10.24619 -10.24532 -10.24495
 Alpha  occ. eigenvalues --  -10.24467  -3.16332  -3.16221  -1.91214  -1.91102
 Alpha  occ. eigenvalues --   -1.90803  -1.90690  -1.90640  -1.90532  -1.16603
 Alpha  occ. eigenvalues --   -1.16350  -1.08623  -1.08345  -1.06914  -1.06892
 Alpha  occ. eigenvalues --   -1.06888  -1.06342  -1.04423  -1.04271  -1.03591
 Alpha  occ. eigenvalues --   -1.03461  -1.02966  -1.02928  -1.02108  -1.02039
 Alpha  occ. eigenvalues --   -0.91923  -0.91673  -0.89422  -0.89251  -0.89084
 Alpha  occ. eigenvalues --   -0.88883  -0.88148  -0.88024  -0.87730  -0.87613
 Alpha  occ. eigenvalues --   -0.87582  -0.87368  -0.87047  -0.86954  -0.84931
 Alpha  occ. eigenvalues --   -0.84678  -0.83805  -0.83685  -0.82858  -0.82664
 Alpha  occ. eigenvalues --   -0.82586  -0.82350  -0.81545  -0.81303  -0.80382
 Alpha  occ. eigenvalues --   -0.80301  -0.78566  -0.78488  -0.77076  -0.76933
 Alpha  occ. eigenvalues --   -0.76838  -0.76652  -0.75782  -0.75636  -0.74739
 Alpha  occ. eigenvalues --   -0.74639  -0.72631  -0.72483  -0.71518  -0.71389
 Alpha  occ. eigenvalues --   -0.69681  -0.69661  -0.68760  -0.68573  -0.67535
 Alpha  occ. eigenvalues --   -0.67344  -0.67126  -0.66902  -0.65206  -0.64983
 Alpha  occ. eigenvalues --   -0.64704  -0.64591  -0.64563  -0.64335  -0.64133
 Alpha  occ. eigenvalues --   -0.63997  -0.62227  -0.62018  -0.60268  -0.60139
 Alpha  occ. eigenvalues --   -0.59729  -0.59500  -0.58926  -0.58697  -0.58361
 Alpha  occ. eigenvalues --   -0.58213  -0.57500  -0.57294  -0.57169  -0.57026
 Alpha  occ. eigenvalues --   -0.56139  -0.56014  -0.55835  -0.55694  -0.55390
 Alpha  occ. eigenvalues --   -0.55222  -0.55185  -0.55077  -0.54427  -0.54256
 Alpha  occ. eigenvalues --   -0.53845  -0.53588  -0.53161  -0.53077  -0.53007
 Alpha  occ. eigenvalues --   -0.52915  -0.52836  -0.52623  -0.52597  -0.52442
 Alpha  occ. eigenvalues --   -0.52323  -0.52192  -0.51826  -0.51641  -0.51590
 Alpha  occ. eigenvalues --   -0.51304  -0.51143  -0.50914  -0.50401  -0.50247
 Alpha  occ. eigenvalues --   -0.49911  -0.49798  -0.49769  -0.49612  -0.49419
 Alpha  occ. eigenvalues --   -0.49213  -0.49139  -0.49050  -0.48918  -0.48809
 Alpha  occ. eigenvalues --   -0.48501  -0.48317  -0.48313  -0.48272  -0.48195
 Alpha  occ. eigenvalues --   -0.48145  -0.47530  -0.47402  -0.47052  -0.47005
 Alpha  occ. eigenvalues --   -0.46640  -0.46514  -0.46486  -0.46252  -0.46202
 Alpha  occ. eigenvalues --   -0.46068  -0.46022  -0.45886  -0.45769  -0.45548
 Alpha  occ. eigenvalues --   -0.45142  -0.44942  -0.44457  -0.44410  -0.44296
 Alpha  occ. eigenvalues --   -0.44211  -0.44069  -0.44008  -0.43876  -0.43864
 Alpha  occ. eigenvalues --   -0.43801  -0.43722  -0.43502  -0.43322  -0.43216
 Alpha  occ. eigenvalues --   -0.43095  -0.42879  -0.42843  -0.42742  -0.42479
 Alpha  occ. eigenvalues --   -0.42426  -0.42393  -0.41891  -0.41738  -0.41612
 Alpha  occ. eigenvalues --   -0.41416  -0.41389  -0.41237  -0.40927  -0.40856
 Alpha  occ. eigenvalues --   -0.40650  -0.40626  -0.40583  -0.40514  -0.40423
 Alpha  occ. eigenvalues --   -0.40307  -0.40152  -0.39907  -0.39346  -0.39198
 Alpha  occ. eigenvalues --   -0.38279  -0.38204  -0.37582  -0.37438  -0.37194
 Alpha  occ. eigenvalues --   -0.37129  -0.37044  -0.36952  -0.36717  -0.36431
 Alpha  occ. eigenvalues --   -0.36150  -0.35909  -0.34182  -0.33984  -0.33795
 Alpha  occ. eigenvalues --   -0.33463  -0.33104  -0.32884  -0.31200  -0.31044
 Alpha  occ. eigenvalues --   -0.30902  -0.30736  -0.29920  -0.29746  -0.29256
 Alpha  occ. eigenvalues --   -0.29145  -0.29137  -0.29018  -0.23964  -0.23775
 Alpha  occ. eigenvalues --   -0.21046  -0.20825
 Alpha virt. eigenvalues --   -0.08722  -0.08468  -0.01610  -0.01448   0.00041
 Alpha virt. eigenvalues --    0.00253   0.02265   0.02490   0.03350   0.03537
 Alpha virt. eigenvalues --    0.04800   0.05018   0.05220   0.05397   0.06249

 Mulliken charges:
               1
     1  Mg   0.840830
     2  C   -0.002248
     3  C   -0.093187
     4  C   -0.046153
     5  C   -0.064318
     6  N   -0.256720
     7  C   -0.052103
     8  C   -0.014371
     9  C   -0.087206
    10  C    0.046945
    11  C    0.104946
    12  C    0.053249
    13  C   -0.071340
    14  H    0.035337
    15  N   -0.433078
    16  C    0.169352
    17  C   -0.176231
    18  C   -0.003653
    19  C    0.149111
    20  C    0.110117
    21  C    0.012646
    22  O   -0.250569
    23  C    0.061930
    24  N   -0.341167
    25  C    0.041340
    26  C   -0.028046
    27  C   -0.023800
    28  C    0.074793
    29  C    0.076410
    30  C    0.035312
    31  C   -0.004443
    32  N   -0.310369
    33  C    0.080444
    34  C   -0.170038
    35  C    0.008067
    36  C    0.083335
    37  C    0.127363
    38  C    0.046112
    39  O   -0.189327
    40  C   -0.005470
    41  C    0.212452
    42  O   -0.255746
    43  O   -0.305139
    44  C    0.157948
    45  H   -0.017926
    46  H   -0.017466
    47  H   -0.042228
    48  H    0.000218
    49  H   -0.003820
    50  H    0.025083
    51  H    0.016187
    52  H    0.016142
    53  H    0.013223
    54  H    0.045285
    55  H    0.016884
    56  H    0.017935
    57  H    0.005748
    58  H    0.025988
    59  H    0.041754
    60  H    0.036831
    61  H    0.034938
    62  H    0.033878
    63  H    0.016070
    64  H    0.008914
    65  H    0.022597
    66  H    0.012494
    67  H    0.004286
    68  H    0.005498
    69  H    0.004397
    70  H    0.008129
    71  H    0.017439
    72  H    0.030306
    73  H    0.047237
    74  H    0.008657
    75  H    0.045379
    76  H    0.034505
    77  H    0.041997
    78  H    0.046215
    79  H    0.053909
    80  Mg   0.838768
    81  C   -0.016479
    82  C   -0.087744
    83  C   -0.045441
    84  C   -0.064825
    85  N   -0.254577
    86  C   -0.049729
    87  C   -0.015214
    88  C   -0.090560
    89  C    0.045976
    90  C    0.114439
    91  C    0.062436
    92  C   -0.077865
    93  H    0.035011
    94  N   -0.423461
    95  C    0.163182
    96  C   -0.174605
    97  C   -0.007686
    98  C    0.152263
    99  C    0.099415
   100  C    0.015732
   101  O   -0.253213
   102  C    0.061103
   103  N   -0.350093
   104  C    0.037542
   105  C   -0.019825
   106  C   -0.034801
   107  C    0.088944
   108  C    0.073727
   109  C    0.034704
   110  C   -0.007674
   111  N   -0.324123
   112  C    0.078609
   113  C   -0.162871
   114  C    0.001849
   115  C    0.096670
   116  C    0.131400
   117  C    0.042665
   118  O   -0.189333
   119  C    0.000833
   120  C    0.210587
   121  O   -0.249599
   122  O   -0.305940
   123  C    0.152202
   124  H   -0.019814
   125  H   -0.015615
   126  H   -0.040384
   127  H   -0.001083
   128  H   -0.004280
   129  H    0.022193
   130  H    0.014367
   131  H    0.016083
   132  H    0.014419
   133  H    0.038387
   134  H    0.020235
   135  H    0.019640
   136  H    0.008698
   137  H    0.025970
   138  H    0.040092
   139  H    0.038085
   140  H    0.036390
   141  H    0.034249
   142  H    0.014480
   143  H    0.012235
   144  H    0.025050
   145  H    0.011501
   146  H    0.005523
   147  H    0.006012
   148  H    0.003797
   149  H    0.010839
   150  H    0.018047
   151  H    0.030574
   152  H    0.045710
   153  H    0.009069
   154  H    0.046389
   155  H    0.034494
   156  H    0.042594
   157  H    0.049646
   158  H    0.054009
 Sum of Mulliken charges =  -0.00000

 Dipole moment (field-independent basis, Debye):
    X=              1.9960    Y=              2.9081    Z=             -3.1465  Tot=              4.7267
 Quadrupole moment (field-independent basis, Debye-Ang):
   XX=           -449.6520   YY=           -463.7452   ZZ=           -532.3714
   XY=             23.5327   XZ=             22.1913   YZ=            -18.7804

 Normal termination of Gaussian 16 at Sat Sep 11 08:58:45 2021.
