 Gaussian 16, Revision A.03,
 Gaussian 16:  ES64L-G16RevA.03 25-Dec-2016

 -----------------------------------
 #p cam-b3lyp/Def2SVP td=(nstates=5)
 -----------------------------------

 --------------------------------
 TDDFT excited states in gaussian
 --------------------------------
 Symbolic Z-matrix:
 Charge =  0 Multiplicity = 1

                         Standard orientation:
 ---------------------------------------------------------------------
 Center     Atomic      Atomic             Coordinates (Angstroms)
 Number     Number       Type             X           Y           Z
 ---------------------------------------------------------------------
      1         12           0      -15.790234    0.710304    0.284814
      2          6           0      -16.037476   -2.364330   -1.531145
      3          6           0      -16.604602   -1.053604    3.089898
      4          6           0      -16.023604    3.473657    1.823008
      5          6           0      -16.118152    2.366266   -2.764108
      6          7           0      -16.238807   -1.432888    0.610627
      7          6           0      -16.241129   -2.517542   -0.157938
      8          6           0      -16.405418   -3.842916    0.644411
      9          6           0      -17.128554   -3.263697    1.941939
     10          6           0      -16.599126   -1.841057    1.900393
     11          6           0      -18.648966   -3.225547    1.826204
     12          6           0      -15.028059   -4.497181    1.000151
     13          6           0      -15.100340   -5.945811    1.491681
     14          1           0      -14.033845   -6.864476    1.122910
     15          7           0      -15.766004    1.105234    2.220348
     16          6           0      -16.113875    0.263331    3.223080
     17          6           0      -15.925028    1.023394    4.477402
     18          6           0      -15.620997    2.435003    4.112684
     19          6           0      -15.819769    2.399731    2.686282
     20          6           0      -15.989673    0.397203    5.836613
     21          6           0      -15.225850    3.629127    4.922659
     22          8           0      -15.235886    4.812602    4.439068
     23          6           0      -14.907540    3.384689    6.341098
     24          7           0      -16.255202    2.647577   -0.338414
     25          6           0      -16.229218    3.673373    0.519520
     26          6           0      -16.315340    4.987715   -0.198135
     27          6           0      -16.160656    4.653926   -1.751972
     28          6           0      -16.090393    3.109878   -1.655803
     29          6           0      -17.605102    5.789219    0.025736
     30          6           0      -15.040468    5.396667   -2.522642
     31          6           0      -13.686713    4.939790   -2.026953
     32          7           0      -15.857969    0.139893   -1.808291
     33          6           0      -16.022395    0.992390   -2.909603
     34          6           0      -16.114657    0.137673   -4.107524
     35          6           0      -16.013461   -1.161888   -3.614832
     36          6           0      -15.893612   -1.122609   -2.196247
     37          6           0      -16.329477    0.589864   -5.439369
     38          6           0      -16.003448   -2.575544   -3.954437
     39          8           0      -15.978578   -3.214239   -5.007501
     40          6           0      -16.141083   -3.415212   -2.608390
     41          6           0      -15.095788   -4.496767   -2.638484
     42          8           0      -13.881434   -4.214525   -2.583266
     43          8           0      -15.687830   -5.691508   -2.488074
     44          6           0      -14.703355   -6.806356   -2.479445
     45          1           0      -17.079766   -1.455634    3.986855
     46          1           0      -15.999522    4.454499    2.302391
     47          1           0      -16.136280    2.815871   -3.758582
     48          1           0      -17.040728   -4.588280    0.165624
     49          1           0      -16.796625   -3.765157    2.850830
     50          1           0      -18.978480   -3.482831    0.819652
     51          1           0      -18.933832   -2.201880    2.070027
     52          1           0      -19.111284   -3.854598    2.587345
     53          1           0      -14.622476   -4.018802    1.891619
     54          1           0      -14.342528   -4.437317    0.154107
     55          1           0      -16.074825   -6.388886    1.284383
     56          1           0      -15.030712   -5.941252    2.579491
     57          1           0      -16.392800   -0.613804    5.793029
     58          1           0      -16.726072    0.958723    6.411174
     59          1           0      -15.026837    0.424112    6.347060
     60          1           0      -15.773633    2.941556    6.833098
     61          1           0      -14.560437    4.337242    6.739864
     62          1           0      -14.108874    2.644787    6.401313
     63          1           0      -15.508506    5.653109    0.106325
     64          1           0      -17.067011    4.884991   -2.312155
     65          1           0      -17.434769    6.792713    0.416492
     66          1           0      -18.247947    5.214170    0.691589
     67          1           0      -18.239447    5.889674   -0.854566
     68          1           0      -15.102941    6.469241   -2.342006
     69          1           0      -15.082099    5.238880   -3.600427
     70          1           0      -13.529202    5.558473   -1.144199
     71          1           0      -12.921396    5.131598   -2.779755
     72          1           0      -13.713503    3.901264   -1.696448
     73          1           0      -15.645703    0.020488   -6.068838
     74          1           0      -16.150076    1.661140   -5.527604
     75          1           0      -17.379278    0.329799   -5.574060
     76          1           0      -17.151490   -3.822671   -2.595039
     77          1           0      -15.002091   -7.504430   -3.261547
     78          1           0      -14.666296   -7.179111   -1.455685
     79          1           0      -13.691196   -6.558134   -2.800786
     80         12           0       15.959674    0.672235   -0.422963
     81          6           0       15.782324   -2.602233    1.034939
     82          6           0       15.153056    1.919883    2.647431
     83          6           0       15.665591    3.529404   -1.771126
     84          6           0       15.620237   -0.848898   -3.540117
     85          7           0       15.546154   -0.314283    1.513018
     86          6           0       15.568622   -1.560398    1.961404
     87          6           0       15.429577   -1.692274    3.501811
     88          6           0       14.677953   -0.303795    3.795160
     89          6           0       15.179757    0.503157    2.599471
     90          6           0       13.164748   -0.406912    3.700609
     91          6           0       16.820972   -1.756054    4.224274
     92          6           0       16.765289   -2.193707    5.689577
     93          1           0       17.857984   -3.007668    6.214882
     94          7           0       15.964064    2.482564    0.390200
     95          6           0       15.630120    2.806376    1.657048
     96          6           0       15.778736    4.266913    1.751491
     97          6           0       16.068621    4.797806    0.391774
     98          6           0       15.886095    3.600051   -0.403304
     99          6           0       15.723265    5.007807    3.055872
    100          6           0       16.435298    6.161104   -0.111400
    101          8           0       16.408396    6.447583   -1.360414
    102          6           0       16.736374    7.177010    0.907803
    103          7           0       15.471547    1.278068   -2.350926
    104          6           0       15.465866    2.580281   -2.685783
    105          6           0       15.357997    2.758446   -4.181444
    106          6           0       15.536667    1.295526   -4.802368
    107          6           0       15.631993    0.476289   -3.496551
    108          6           0       14.050744    3.369035   -4.686084
    109          6           0       16.649696    1.115575   -5.870761
    110          6           0       18.009654    1.287322   -5.233248
    111          7           0       15.924935   -1.355239   -1.168759
    112          6           0       15.746573   -1.768847   -2.507107
    113          6           0       15.680674   -3.244670   -2.501593
    114          6           0       15.803157   -3.588993   -1.147000
    115          6           0       15.915743   -2.410094   -0.361495
    116          6           0       15.478790   -4.072631   -3.641702
    117          6           0       15.852145   -4.681270   -0.201892
    118          8           0       15.890569   -5.907636   -0.292856
    119          6           0       15.713782   -4.086395    1.265547
    120          6           0       16.779598   -4.712183    2.122830
    121          8           0       17.982383   -4.487683    1.900327
    122          8           0       16.201873   -5.293208    3.190077
    123          6           0       17.219525   -5.918378    4.076284
    124          1           0       14.684344    2.401177    3.506242
    125          1           0       15.666846    4.485899   -2.298943
    126          1           0       15.613908   -1.401981   -4.481783
    127          1           0       14.818421   -2.523183    3.833260
    128          1           0       15.019625    0.141324    4.726012
    129          1           0       12.848822   -1.372495    3.334567
    130          1           0       12.858689    0.375085    3.018078
    131          1           0       12.709231   -0.161246    4.664188
    132          1           0       17.207598   -0.736195    4.347350
    133          1           0       17.501887   -2.385321    3.684823
    134          1           0       15.796387   -2.636186    5.951064
    135          1           0       16.832554   -1.303935    6.320284
    136          1           0       15.332455    4.374552    3.861885
    137          1           0       14.973003    5.797911    2.943181
    138          1           0       16.679239    5.463636    3.322365
    139          1           0       15.876151    7.298434    1.561819
    140          1           0       17.062861    8.059142    0.353615
    141          1           0       17.558415    6.811911    1.533557
    142          1           0       16.150021    3.397028   -4.552959
    143          1           0       14.626176    0.958256   -5.319181
    144          1           0       14.200438    4.287153   -5.285023
    145          1           0       13.416530    3.570686   -3.833057
    146          1           0       13.430115    2.702987   -5.283078
    147          1           0       16.566700    1.889171   -6.638104
    148          1           0       16.612789    0.155990   -6.375543
    149          1           0       18.142679    2.373284   -5.224402
    150          1           0       18.777329    0.800496   -5.831338
    151          1           0       18.001461    0.947732   -4.191014
    152          1           0       16.171168   -4.899193   -3.552753
    153          1           0       15.634036   -3.520707   -4.566389
    154          1           0       14.430474   -4.348392   -3.499317
    155          1           0       14.710483   -4.323165    1.621772
    156          1           0       16.937082   -6.968927    4.195687
    157          1           0       17.242428   -5.295903    4.990478
    158          1           0       18.228436   -6.012983    3.692091
 ---------------------------------------------------------------------

 SCF Done:  E(RCAM-B3LYP) =  -4069.81177106     A.U. after   19 cycles

 Excitation energies and oscillator strengths:

 Excited State   1:      Singlet-A      1.6755 eV  739.99 nm  f=0.3288  <S**2>=0.000
     310 -> 316        0.17177
     312 -> 313        0.67883
     310 <- 316        0.10354
 This state for optimization and/or second-order correction.
 Total Energy, E(TD-HF/TD-DFT) =  -4069.75019851
 Copying the excited state density for this state as the 1-particle RhoCI density.

 Excited State   2:      Singlet-A      1.6799 eV  738.03 nm  f=0.4478  <S**2>=0.000
     309 -> 315        0.17370
     311 -> 314        0.67848
     309 <- 315        0.10401

 Excited State   3:      Singlet-A      2.1861 eV  567.14 nm  f=0.1003  <S**2>=0.000
     310 -> 313        0.64238
     312 -> 316       -0.27310

 Excited State   4:      Singlet-A      2.1925 eV  565.50 nm  f=0.1004  <S**2>=0.000
     309 -> 314        0.64061
     311 -> 315       -0.27822

 Excited State   5:      Singlet-A      3.0657 eV  404.42 nm  f=0.0000  <S**2>=0.000
     311 -> 313        0.70711

 The electronic state is 1-A.
 Alpha  occ. eigenvalues --  -46.87796 -46.87661 -19.26353 -19.26278 -19.19164
 Alpha  occ. eigenvalues --  -19.19015 -19.18817 -19.18714 -19.18167 -19.18052
 Alpha  occ. eigenvalues --  -14.42498 -14.42449 -14.41449 -14.41359 -14.39402
 Alpha  occ. eigenvalues --  -14.39352 -14.38600 -14.38586 -10.39094 -10.39075
 Alpha  occ. eigenvalues --  -10.35450 -10.35391 -10.34387 -10.34230 -10.31761
 Alpha  occ. eigenvalues --  -10.31672 -10.31403 -10.31310 -10.31024 -10.30908
 Alpha  occ. eigenvalues --  -10.30569 -10.30507 -10.30398 -10.30361 -10.30207
 Alpha  occ. eigenvalues --  -10.30140 -10.29920 -10.29894 -10.29630 -10.29436
 Alpha  occ. eigenvalues --  -10.29401 -10.29254 -10.28746 -10.28721 -10.28659
 Alpha  occ. eigenvalues --  -10.28533 -10.28405 -10.28364 -10.28142 -10.28114
 Alpha  occ. eigenvalues --  -10.28001 -10.27792 -10.27726 -10.27670 -10.27584
 Alpha  occ. eigenvalues --  -10.27515 -10.27502 -10.27484 -10.27482 -10.27468
 Alpha  occ. eigenvalues --  -10.27465 -10.27450 -10.27402 -10.27373 -10.27155
 Alpha  occ. eigenvalues --  -10.27052 -10.26701 -10.26696 -10.26415 -10.26414
 Alpha  occ. eigenvalues --  -10.26232 -10.26185 -10.26135 -10.26027 -10.26019
 Alpha  occ. eigenvalues --  -10.25934 -10.25850 -10.25842 -10.25437 -10.25393
 Alpha  occ. eigenvalues --  -10.24873 -10.24832 -10.24787 -10.24729 -10.24690
 Alpha  occ. eigenvalues --  -10.24689  -3.16539  -3.16411  -1.91420  -1.91293
 Alpha  occ. eigenvalues --   -1.91007  -1.90881  -1.90849  -1.90718  -1.16647
 Alpha  occ. eigenvalues --   -1.16627  -1.08660  -1.08625  -1.07218  -1.06966
 Alpha  occ. eigenvalues --   -1.06949  -1.06637  -1.04580  -1.04496  -1.03760
 Alpha  occ. eigenvalues --   -1.03663  -1.03233  -1.03039  -1.02410  -1.02111
 Alpha  occ. eigenvalues --   -0.91988  -0.91970  -0.89520  -0.89494  -0.89185
 Alpha  occ. eigenvalues --   -0.89153  -0.88287  -0.88219  -0.87869  -0.87794
 Alpha  occ. eigenvalues --   -0.87684  -0.87672  -0.87274  -0.87120  -0.85001
 Alpha  occ. eigenvalues --   -0.84980  -0.83937  -0.83875  -0.82969  -0.82931
 Alpha  occ. eigenvalues --   -0.82654  -0.82647  -0.81598  -0.81582  -0.80595
 Alpha  occ. eigenvalues --   -0.80444  -0.78797  -0.78636  -0.77217  -0.77145
 Alpha  occ. eigenvalues --   -0.76932  -0.76899  -0.75921  -0.75840  -0.74898
 Alpha  occ. eigenvalues --   -0.74802  -0.72773  -0.72699  -0.71671  -0.71581
 Alpha  occ. eigenvalues --   -0.69908  -0.69756  -0.68871  -0.68829  -0.67640
 Alpha  occ. eigenvalues --   -0.67602  -0.67218  -0.67202  -0.65284  -0.65273
 Alpha  occ. eigenvalues --   -0.64852  -0.64771  -0.64655  -0.64619  -0.64269
 Alpha  occ. eigenvalues --   -0.64203  -0.62294  -0.62280  -0.60442  -0.60340
 Alpha  occ. eigenvalues --   -0.59802  -0.59798  -0.58993  -0.58986  -0.58502
 Alpha  occ. eigenvalues --   -0.58426  -0.57582  -0.57556  -0.57308  -0.57236
 Alpha  occ. eigenvalues --   -0.56309  -0.56205  -0.55974  -0.55889  -0.55520
 Alpha  occ. eigenvalues --   -0.55453  -0.55338  -0.55247  -0.54521  -0.54488
 Alpha  occ. eigenvalues --   -0.53914  -0.53892  -0.53298  -0.53228  -0.53221
 Alpha  occ. eigenvalues --   -0.53143  -0.52913  -0.52904  -0.52756  -0.52669
 Alpha  occ. eigenvalues --   -0.52439  -0.52400  -0.51913  -0.51885  -0.51660
 Alpha  occ. eigenvalues --   -0.51615  -0.51202  -0.51194  -0.50574  -0.50475
 Alpha  occ. eigenvalues --   -0.50032  -0.49980  -0.49918  -0.49866  -0.49513
 Alpha  occ. eigenvalues --   -0.49489  -0.49213  -0.49203  -0.49106  -0.49094
 Alpha  occ. eigenvalues --   -0.48591  -0.48560  -0.48462  -0.48445  -0.48375
 Alpha  occ. eigenvalues --   -0.48339  -0.47694  -0.47595  -0.47296  -0.47118
 Alpha  occ. eigenvalues --   -0.46796  -0.46709  -0.46555  -0.46553  -0.46358
 Alpha  occ. eigenvalues --   -0.46271  -0.46161  -0.46086  -0.45823  -0.45819
 Alpha  occ. eigenvalues --   -0.45207  -0.45201  -0.44576  -0.44515  -0.44507
 Alpha  occ. eigenvalues --   -0.44477  -0.44144  -0.44128  -0.44086  -0.44078
 Alpha  occ. eigenvalues --   -0.44018  -0.43940  -0.43555  -0.43492  -0.43387
 Alpha  occ. eigenvalues --   -0.43384  -0.43026  -0.42932  -0.42902  -0.42696
 Alpha  occ. eigenvalues --   -0.42653  -0.42553  -0.42009  -0.41964  -0.41703
 Alpha  occ. eigenvalues --   -0.41670  -0.41531  -0.41460  -0.41140  -0.40990
 Alpha  occ. eigenvalues --   -0.40868  -0.40824  -0.40723  -0.40699  -0.40571
 Alpha  occ. eigenvalues --   -0.40493  -0.40231  -0.40229  -0.39442  -0.39424
 Alpha  occ. eigenvalues --   -0.38469  -0.38349  -0.37745  -0.37656  -0.37320
 Alpha  occ. eigenvalues --   -0.37266  -0.37261  -0.37201  -0.36773  -0.36710
 Alpha  occ. eigenvalues --   -0.36218  -0.36190  -0.34285  -0.34254  -0.33865
 Alpha  occ. eigenvalues --   -0.33766  -0.33185  -0.33176  -0.31347  -0.31273
 Alpha  occ. eigenvalues --   -0.31035  -0.30973  -0.30026  -0.29957  -0.29449
 Alpha  occ. eigenvalues --   -0.29328  -0.29321  -0.29212  -0.24079  -0.24036
 Alpha  occ. eigenvalues --   -0.21127  -0.21117
 Alpha virt. eigenvalues --   -0.08792  -0.08774  -0.01749  -0.01684  -0.00058
 Alpha virt. eigenvalues --   -0.00029   0.02202   0.02207   0.03122   0.03225
 Alpha virt. eigenvalues --    0.04720   0.04729   0.05103   0.05162   0.06180

 Mulliken charges:
               1
     1  Mg   0.838750
     2  C   -0.002950
     3  C   -0.094093
     4  C   -0.045898
     5  C   -0.063955
     6  N   -0.256760
     7  C   -0.052473
     8  C   -0.014004
     9  C   -0.087009
    10  C    0.046306
    11  C    0.104814
    12  C    0.053478
    13  C   -0.071834
    14  H    0.036192
    15  N   -0.433145
    16  C    0.168410
    17  C   -0.177160
    18  C   -0.004024
    19  C    0.148713
    20  C    0.110183
    21  C    0.012271
    22  O   -0.249659
    23  C    0.062481
    24  N   -0.341141
    25  C    0.041244
    26  C   -0.028148
    27  C   -0.023990
    28  C    0.074833
    29  C    0.076167
    30  C    0.035141
    31  C   -0.004502
    32  N   -0.310469
    33  C    0.080410
    34  C   -0.169716
    35  C    0.008376
    36  C    0.082994
    37  C    0.127309
    38  C    0.046130
    39  O   -0.188400
    40  C   -0.005356
    41  C    0.212883
    42  O   -0.257094
    43  O   -0.304799
    44  C    0.157673
    45  H   -0.017600
    46  H   -0.016862
    47  H   -0.041494
    48  H    0.000958
    49  H   -0.004021
    50  H    0.025481
    51  H    0.016433
    52  H    0.016668
    53  H    0.011195
    54  H    0.044134
    55  H    0.017880
    56  H    0.017949
    57  H    0.005888
    58  H    0.026810
    59  H    0.039529
    60  H    0.037352
    61  H    0.035603
    62  H    0.031490
    63  H    0.016528
    64  H    0.009463
    65  H    0.023188
    66  H    0.012551
    67  H    0.004755
    68  H    0.006344
    69  H    0.004737
    70  H    0.008754
    71  H    0.018138
    72  H    0.028997
    73  H    0.047588
    74  H    0.009104
    75  H    0.046017
    76  H    0.035165
    77  H    0.042975
    78  H    0.046414
    79  H    0.053713
    80  Mg   0.837857
    81  C   -0.016824
    82  C   -0.087799
    83  C   -0.045507
    84  C   -0.064872
    85  N   -0.254575
    86  C   -0.049861
    87  C   -0.015075
    88  C   -0.090501
    89  C    0.045753
    90  C    0.114371
    91  C    0.062519
    92  C   -0.077882
    93  H    0.034879
    94  N   -0.423503
    95  C    0.162924
    96  C   -0.174604
    97  C   -0.007793
    98  C    0.152135
    99  C    0.099355
   100  C    0.015582
   101  O   -0.253148
   102  C    0.061193
   103  N   -0.350076
   104  C    0.037555
   105  C   -0.019859
   106  C   -0.034833
   107  C    0.088954
   108  C    0.073626
   109  C    0.034721
   110  C   -0.007675
   111  N   -0.324097
   112  C    0.078451
   113  C   -0.163119
   114  C    0.002245
   115  C    0.096190
   116  C    0.131483
   117  C    0.042395
   118  O   -0.187875
   119  C    0.000921
   120  C    0.211240
   121  O   -0.251016
   122  O   -0.305627
   123  C    0.152024
   124  H   -0.019655
   125  H   -0.015540
   126  H   -0.040418
   127  H   -0.000662
   128  H   -0.004343
   129  H    0.022472
   130  H    0.014464
   131  H    0.016270
   132  H    0.013920
   133  H    0.037673
   134  H    0.020774
   135  H    0.019587
   136  H    0.008754
   137  H    0.026172
   138  H    0.039794
   139  H    0.038266
   140  H    0.036417
   141  H    0.033884
   142  H    0.014410
   143  H    0.012483
   144  H    0.025172
   145  H    0.011664
   146  H    0.005747
   147  H    0.006303
   148  H    0.003671
   149  H    0.010935
   150  H    0.017935
   151  H    0.030076
   152  H    0.045998
   153  H    0.008539
   154  H    0.046992
   155  H    0.035029
   156  H    0.043899
   157  H    0.049482
   158  H    0.053580
 Sum of Mulliken charges =  -0.00000

 Dipole moment (field-independent basis, Debye):
    X=             -3.8396    Y=              2.1452    Z=              7.0506  Tot=              8.3099
 Quadrupole moment (field-independent basis, Debye-Ang):
   XX=           -516.8829   YY=           -529.7821   ZZ=           -469.0791
   XY=             59.3861   XZ=            -17.9921   YZ=            -28.0796

 Normal termination of Gaussian 16 at Sun Sep 12 17:57:42 2021.
