 Gaussian 16, Revision A.03,
 Gaussian 16:  ES64L-G16RevA.03 25-Dec-2016

 -----------------------------------
 #p cam-b3lyp/Def2SVP td=(nstates=5)
 -----------------------------------

 --------------------------------
 TDDFT excited states in gaussian
 --------------------------------
 Symbolic Z-matrix:
 Charge =  0 Multiplicity = 1

                         Standard orientation:
 ---------------------------------------------------------------------
 Center     Atomic      Atomic             Coordinates (Angstroms)
 Number     Number       Type             X           Y           Z
 ---------------------------------------------------------------------
      1         12           0       -3.857916    0.586523    0.589629
      2          6           0       -4.308030   -2.457709   -1.238556
      3          6           0       -4.207226   -1.250320    3.443934
      4          6           0       -3.917761    3.313273    2.207613
      5          6           0       -4.671936    2.292370   -2.338359
      6          7           0       -4.207355   -1.572821    0.929886
      7          6           0       -4.301296   -2.642222    0.145841
      8          6           0       -4.315951   -3.986393    0.933472
      9          6           0       -4.849582   -3.450010    2.336871
     10          6           0       -4.362541   -2.014375    2.249309
     11          6           0       -6.370712   -3.446643    2.449360
     12          6           0       -2.887387   -4.613677    1.065572
     13          6           0       -2.854831   -6.072825    1.529449
     14          1           0       -1.836042   -6.958006    0.985507
     15          7           0       -3.553645    0.944612    2.508494
     16          6           0       -3.730144    0.075358    3.532472
     17          6           0       -3.372476    0.815517    4.761666
     18          6           0       -3.156229    2.240861    4.387868
     19          6           0       -3.564735    2.228214    3.006441
     20          6           0       -3.220385    0.161904    6.100848
     21          6           0       -2.670089    3.428441    5.156929
     22          8           0       -2.777219    4.620407    4.707134
     23          6           0       -2.138669    3.164575    6.506377
     24          7           0       -4.451589    2.523542    0.086494
     25          6           0       -4.319678    3.532970    0.954041
     26          6           0       -4.539711    4.858391    0.287121
     27          6           0       -4.611475    4.558422   -1.279603
     28          6           0       -4.494948    3.014976   -1.229945
     29          6           0       -5.798347    5.623823    0.718350
     30          6           0       -3.634758    5.342887   -2.191226
     31          6           0       -2.212838    4.909628   -1.912787
     32          7           0       -4.224980    0.055009   -1.482520
     33          6           0       -4.569858    0.924284   -2.527553
     34          6           0       -4.821625    0.090782   -3.717492
     35          6           0       -4.620557   -1.215172   -3.274883
     36          6           0       -4.291324   -1.200289   -1.889359
     37          6           0       -5.242223    0.563152   -4.992011
     38          6           0       -4.631352   -2.621371   -3.644132
     39          8           0       -4.750296   -3.238892   -4.703383
     40          6           0       -4.548857   -3.489880   -2.311948
     41          6           0       -3.497060   -4.544904   -2.521602
     42          8           0       -2.294310   -4.234316   -2.641160
     43          8           0       -4.034591   -5.756368   -2.311942
     44          6           0       -3.036438   -6.846895   -2.475025
     45          1           0       -4.534665   -1.680973    4.392229
     46          1           0       -3.843239    4.285006    2.700178
     47          1           0       -4.847713    2.760451   -3.308646
     48          1           0       -4.999627   -4.737643    0.537700
     49          1           0       -4.375251   -3.960640    3.174719
     50          1           0       -6.841141   -3.692454    1.497417
     51          1           0       -6.637654   -2.435090    2.755946
     52          1           0       -6.700897   -4.101283    3.256330
     53          1           0       -2.363607   -4.142812    1.897439
     54          1           0       -2.337138   -4.520885    0.128587
     55          1           0       -3.839723   -6.535408    1.459352
     56          1           0       -2.623846   -6.087503    2.594639
     57          1           0       -3.603986   -0.857585    6.094795
     58          1           0       -3.874583    0.694183    6.791075
     59          1           0       -2.192974    0.202405    6.462953
     60          1           0       -2.912105    2.691117    7.111509
     61          1           0       -1.756238    4.117441    6.870577
     62          1           0       -1.324457    2.443301    6.430410
     63          1           0       -3.710776    5.537237    0.483234
     64          1           0       -5.595935    4.778102   -1.693431
     65          1           0       -5.592943    6.623460    1.102067
     66          1           0       -6.322357    5.020600    1.459179
     67          1           0       -6.558880    5.725733   -0.055357
     68          1           0       -3.692306    6.409949   -1.979064
     69          1           0       -3.833323    5.204899   -3.254138
     70          1           0       -1.938572    5.514862   -1.049478
     71          1           0       -1.572602    5.134448   -2.766464
     72          1           0       -2.168019    3.864592   -1.605580
     73          1           0       -4.648072    0.022797   -5.728875
     74          1           0       -5.100732    1.639975   -5.081652
     75          1           0       -6.294620    0.280263   -4.974985
     76          1           0       -5.537106   -3.921983   -2.157758
     77          1           0       -3.433623   -7.536853   -3.219630
     78          1           0       -2.839208   -7.238265   -1.476860
     79          1           0       -2.089020   -6.567984   -2.937569
     80         12           0        3.969098    0.774607   -0.760879
     81          6           0        4.113722   -2.435732    0.836563
     82          6           0        3.584770    2.135483    2.343133
     83          6           0        3.387989    3.560911   -2.163127
     84          6           0        3.222351   -0.890984   -3.729698
     85          7           0        3.877544   -0.135743    1.252853
     86          6           0        4.005810   -1.359838    1.742229
     87          6           0        4.099843   -1.427073    3.290194
     88          6           0        3.355655   -0.046818    3.636505
     89          6           0        3.649457    0.719192    2.348255
     90          6           0        1.849159   -0.192943    3.772294
     91          6           0        5.583937   -1.423017    3.799599
     92          6           0        5.759094   -1.796789    5.273152
     93          1           0        6.942837   -2.558332    5.662093
     94          7           0        4.035443    2.618608   -0.030248
     95          6           0        3.881872    2.989360    1.258256
     96          6           0        3.995943    4.455988    1.271226
     97          6           0        4.064895    4.933593   -0.136556
     98          6           0        3.805509    3.697569   -0.847241
     99          6           0        4.109828    5.252114    2.538756
    100          6           0        4.309463    6.282317   -0.742625
    101          8           0        4.089428    6.512544   -1.984163
    102          6           0        4.724935    7.349667    0.179121
    103          7           0        3.182715    1.281900   -2.617384
    104          6           0        3.085994    2.567474   -2.999318
    105          6           0        2.752986    2.676553   -4.468198
    106          6           0        2.884842    1.192724   -5.049954
    107          6           0        3.197974    0.434706   -3.741238
    108          6           0        1.366713    3.230388   -4.796693
    109          6           0        3.833246    0.994483   -6.263999
    110          6           0        5.266175    1.229193   -5.843263
    111          7           0        3.889638   -1.284053   -1.411773
    112          6           0        3.529114   -1.760846   -2.691138
    113          6           0        3.512041   -3.236189   -2.617045
    114          6           0        3.844002   -3.517053   -1.283092
    115          6           0        4.033442   -2.302092   -0.570720
    116          6           0        3.170771   -4.118627   -3.680500
    117          6           0        4.066846   -4.564893   -0.313005
    118          8           0        4.130682   -5.792687   -0.359695
    119          6           0        4.127527   -3.909530    1.133795
    120          6           0        5.327646   -4.469182    1.847246
    121          8           0        6.476630   -4.223815    1.439519
    122          8           0        4.932607   -5.017170    3.010874
    123          6           0        6.089370   -5.576163    3.760041
    124          1           0        3.232731    2.642021    3.242230
    125          1           0        3.280720    4.492868   -2.722971
    126          1           0        3.094882   -1.485103   -4.637137
    127          1           0        3.571205   -2.257993    3.741741
    128          1           0        3.816503    0.447647    4.487669
    129          1           0        1.513755   -1.181569    3.496122
    130          1           0        1.420860    0.549994    3.112256
    131          1           0        1.533156    0.083231    4.782346
    132          1           0        5.951624   -0.389087    3.823037
    133          1           0        6.197607   -2.057758    3.190382
    134          1           0        4.854037   -2.252101    5.693298
    135          1           0        5.890147   -0.878589    5.850850
    136          1           0        3.862694    4.645212    3.418535
    137          1           0        3.326235    6.016874    2.507515
    138          1           0        5.079569    5.743735    2.641679
    139          1           0        3.967176    7.477667    0.948462
    140          1           0        4.937664    8.214575   -0.452190
    141          1           0        5.641573    7.033863    0.689671
    142          1           0        3.460666    3.318293   -4.978555
    143          1           0        1.919339    0.809615   -5.411714
    144          1           0        1.396917    4.124694   -5.447356
    145          1           0        0.859162    3.453125   -3.867537
    146          1           0        0.686447    2.522846   -5.267677
    147          1           0        3.613223    1.731021   -7.040697
    148          1           0        3.753007    0.012889   -6.719019
    149          1           0        5.364203    2.317550   -5.897599
    150          1           0        5.952396    0.736353   -6.529004
    151          1           0        5.422723    0.935873   -4.798696
    152          1           0        3.894805   -4.922345   -3.662662
    153          1           0        3.170140   -3.604281   -4.639251
    154          1           0        2.164311   -4.414740   -3.372871
    155          1           0        3.195862   -4.156100    1.644454
    156          1           0        5.861422   -6.627340    3.961911
    157          1           0        6.226947   -4.913530    4.635100
    158          1           0        7.033056   -5.661626    3.234113
 ---------------------------------------------------------------------

 SCF Done:  E(RCAM-B3LYP) =  -4069.81238798     A.U. after   19 cycles

 Excitation energies and oscillator strengths:

 Excited State   1:      Singlet-A      1.6509 eV  751.02 nm  f=0.1556  <S**2>=0.000
     309 -> 315        0.11695
     310 -> 316       -0.11943
     311 -> 313       -0.47947
     312 -> 314        0.49192
 This state for optimization and/or second-order correction.
 Total Energy, E(TD-HF/TD-DFT) =  -4069.75171963
 Copying the excited state density for this state as the 1-particle RhoCI density.

 Excited State   2:      Singlet-A      1.6917 eV  732.88 nm  f=0.4943  <S**2>=0.000
     309 -> 315       -0.12715
     310 -> 316       -0.12475
     311 -> 313        0.49003
     312 -> 314        0.47799

 Excited State   3:      Singlet-A      2.1837 eV  567.77 nm  f=0.0551  <S**2>=0.000
     309 -> 313       -0.37188
     310 -> 314        0.52504
     311 -> 315       -0.15533
     312 -> 316        0.22178

 Excited State   4:      Singlet-A      2.1908 eV  565.92 nm  f=0.1355  <S**2>=0.000
     309 -> 313        0.52258
     310 -> 314        0.36901
     311 -> 315        0.22677
     312 -> 316        0.16148

 Excited State   5:      Singlet-A      2.2336 eV  555.09 nm  f=0.0000  <S**2>=0.000
     312 -> 313        0.70703

 The electronic state is 1-A.
 Alpha  occ. eigenvalues --  -46.87910 -46.87413 -19.26289 -19.26289 -19.19072
 Alpha  occ. eigenvalues --  -19.19062 -19.19049 -19.18488 -19.18293 -19.17837
 Alpha  occ. eigenvalues --  -14.42555 -14.42268 -14.41556 -14.41105 -14.39534
 Alpha  occ. eigenvalues --  -14.39104 -14.38704 -14.38331 -10.39130 -10.38985
 Alpha  occ. eigenvalues --  -10.35689 -10.35169 -10.34506 -10.34019 -10.31741
 Alpha  occ. eigenvalues --  -10.31611 -10.31499 -10.31079 -10.31018 -10.30834
 Alpha  occ. eigenvalues --  -10.30688 -10.30636 -10.30328 -10.30122 -10.30082
 Alpha  occ. eigenvalues --  -10.30021 -10.29872 -10.29776 -10.29621 -10.29399
 Alpha  occ. eigenvalues --  -10.29164 -10.29117 -10.28788 -10.28648 -10.28625
 Alpha  occ. eigenvalues --  -10.28494 -10.28425 -10.28176 -10.28168 -10.28045
 Alpha  occ. eigenvalues --  -10.27936 -10.27841 -10.27744 -10.27728 -10.27694
 Alpha  occ. eigenvalues --  -10.27565 -10.27524 -10.27511 -10.27430 -10.27252
 Alpha  occ. eigenvalues --  -10.27243 -10.27228 -10.27195 -10.27192 -10.27140
 Alpha  occ. eigenvalues --  -10.26881 -10.26746 -10.26690 -10.26624 -10.26291
 Alpha  occ. eigenvalues --  -10.26211 -10.26190 -10.26133 -10.26013 -10.25990
 Alpha  occ. eigenvalues --  -10.25870 -10.25633 -10.25512 -10.25342 -10.25212
 Alpha  occ. eigenvalues --  -10.24970 -10.24905 -10.24635 -10.24587 -10.24497
 Alpha  occ. eigenvalues --  -10.24446  -3.16652  -3.16163  -1.91534  -1.91120
 Alpha  occ. eigenvalues --   -1.91045  -1.90963  -1.90634  -1.90470  -1.16647
 Alpha  occ. eigenvalues --   -1.16573  -1.08744  -1.08455  -1.07455  -1.06846
 Alpha  occ. eigenvalues --   -1.06745  -1.06687  -1.04688  -1.04273  -1.03871
 Alpha  occ. eigenvalues --   -1.03415  -1.03358  -1.02773  -1.02529  -1.01852
 Alpha  occ. eigenvalues --   -0.92079  -0.91759  -0.89601  -0.89239  -0.89237
 Alpha  occ. eigenvalues --   -0.89032  -0.88364  -0.88006  -0.87974  -0.87769
 Alpha  occ. eigenvalues --   -0.87495  -0.87466  -0.87411  -0.86861  -0.85048
 Alpha  occ. eigenvalues --   -0.84847  -0.83998  -0.83642  -0.83177  -0.82725
 Alpha  occ. eigenvalues --   -0.82702  -0.82488  -0.81641  -0.81421  -0.80692
 Alpha  occ. eigenvalues --   -0.80240  -0.78960  -0.78358  -0.77302  -0.76972
 Alpha  occ. eigenvalues --   -0.76951  -0.76729  -0.75988  -0.75670  -0.74971
 Alpha  occ. eigenvalues --   -0.74590  -0.72889  -0.72424  -0.71764  -0.71379
 Alpha  occ. eigenvalues --   -0.69947  -0.69514  -0.68959  -0.68660  -0.67768
 Alpha  occ. eigenvalues --   -0.67378  -0.67288  -0.67040  -0.65347  -0.65120
 Alpha  occ. eigenvalues --   -0.64941  -0.64691  -0.64545  -0.64469  -0.64346
 Alpha  occ. eigenvalues --   -0.63962  -0.62343  -0.62117  -0.60601  -0.60088
 Alpha  occ. eigenvalues --   -0.59885  -0.59629  -0.59088  -0.58758  -0.58609
 Alpha  occ. eigenvalues --   -0.58203  -0.57673  -0.57413  -0.57369  -0.56996
 Alpha  occ. eigenvalues --   -0.56444  -0.56012  -0.55957  -0.55747  -0.55667
 Alpha  occ. eigenvalues --   -0.55401  -0.55248  -0.55032  -0.54572  -0.54302
 Alpha  occ. eigenvalues --   -0.53950  -0.53795  -0.53455  -0.53327  -0.53023
 Alpha  occ. eigenvalues --   -0.52990  -0.52954  -0.52890  -0.52734  -0.52474
 Alpha  occ. eigenvalues --   -0.52464  -0.52157  -0.52048  -0.51706  -0.51510
 Alpha  occ. eigenvalues --   -0.51458  -0.51276  -0.50981  -0.50803  -0.50246
 Alpha  occ. eigenvalues --   -0.50116  -0.50078  -0.49803  -0.49635  -0.49623
 Alpha  occ. eigenvalues --   -0.49341  -0.49294  -0.49164  -0.49026  -0.48904
 Alpha  occ. eigenvalues --   -0.48678  -0.48636  -0.48534  -0.48373  -0.48158
 Alpha  occ. eigenvalues --   -0.48117  -0.47798  -0.47417  -0.47399  -0.46890
 Alpha  occ. eigenvalues --   -0.46882  -0.46613  -0.46500  -0.46465  -0.46393
 Alpha  occ. eigenvalues --   -0.46252  -0.46016  -0.45899  -0.45827  -0.45596
 Alpha  occ. eigenvalues --   -0.45287  -0.44996  -0.44698  -0.44618  -0.44372
 Alpha  occ. eigenvalues --   -0.44254  -0.44241  -0.44152  -0.44129  -0.43946
 Alpha  occ. eigenvalues --   -0.43854  -0.43731  -0.43567  -0.43457  -0.43393
 Alpha  occ. eigenvalues --   -0.43202  -0.43124  -0.42781  -0.42753  -0.42682
 Alpha  occ. eigenvalues --   -0.42675  -0.42313  -0.42058  -0.41807  -0.41765
 Alpha  occ. eigenvalues --   -0.41584  -0.41466  -0.41292  -0.41232  -0.41030
 Alpha  occ. eigenvalues --   -0.40901  -0.40811  -0.40634  -0.40554  -0.40534
 Alpha  occ. eigenvalues --   -0.40265  -0.40251  -0.40116  -0.39462  -0.39171
 Alpha  occ. eigenvalues --   -0.38529  -0.38137  -0.37777  -0.37540  -0.37402
 Alpha  occ. eigenvalues --   -0.37314  -0.37029  -0.36999  -0.36760  -0.36653
 Alpha  occ. eigenvalues --   -0.36253  -0.36009  -0.34397  -0.34012  -0.33836
 Alpha  occ. eigenvalues --   -0.33732  -0.33300  -0.32919  -0.31573  -0.31147
 Alpha  occ. eigenvalues --   -0.31051  -0.30739  -0.30146  -0.29748  -0.29610
 Alpha  occ. eigenvalues --   -0.29458  -0.29062  -0.28916  -0.24192  -0.23782
 Alpha  occ. eigenvalues --   -0.21248  -0.20857
 Alpha virt. eigenvalues --   -0.08911  -0.08527  -0.01874  -0.01434  -0.00228
 Alpha virt. eigenvalues --    0.00198   0.02069   0.02370   0.02585   0.03587
 Alpha virt. eigenvalues --    0.04655   0.04916   0.05045   0.05285   0.06175

 Mulliken charges:
               1
     1  Mg   0.838859
     2  C   -0.002580
     3  C   -0.094507
     4  C   -0.045760
     5  C   -0.064243
     6  N   -0.256902
     7  C   -0.051855
     8  C   -0.014063
     9  C   -0.086859
    10  C    0.046338
    11  C    0.104810
    12  C    0.053690
    13  C   -0.073857
    14  H    0.041756
    15  N   -0.433140
    16  C    0.168105
    17  C   -0.177799
    18  C   -0.005253
    19  C    0.148745
    20  C    0.110057
    21  C    0.010618
    22  O   -0.249879
    23  C    0.063307
    24  N   -0.341405
    25  C    0.041582
    26  C   -0.028161
    27  C   -0.024218
    28  C    0.075850
    29  C    0.076150
    30  C    0.034973
    31  C   -0.008010
    32  N   -0.310632
    33  C    0.080938
    34  C   -0.170459
    35  C    0.008289
    36  C    0.083418
    37  C    0.127399
    38  C    0.045752
    39  O   -0.188184
    40  C   -0.005201
    41  C    0.213096
    42  O   -0.257906
    43  O   -0.304803
    44  C    0.157479
    45  H   -0.017595
    46  H   -0.017189
    47  H   -0.041336
    48  H    0.001326
    49  H   -0.003898
    50  H    0.025601
    51  H    0.016173
    52  H    0.016918
    53  H    0.009873
    54  H    0.044931
    55  H    0.017394
    56  H    0.017520
    57  H    0.006463
    58  H    0.027053
    59  H    0.037050
    60  H    0.038526
    61  H    0.034633
    62  H    0.027939
    63  H    0.016652
    64  H    0.009555
    65  H    0.023177
    66  H    0.012350
    67  H    0.005008
    68  H    0.006924
    69  H    0.004111
    70  H    0.009648
    71  H    0.023982
    72  H    0.028633
    73  H    0.046773
    74  H    0.009221
    75  H    0.046608
    76  H    0.035550
    77  H    0.043092
    78  H    0.047919
    79  H    0.054051
    80  Mg   0.837337
    81  C   -0.016968
    82  C   -0.087899
    83  C   -0.044874
    84  C   -0.059871
    85  N   -0.254491
    86  C   -0.050119
    87  C   -0.014828
    88  C   -0.090934
    89  C    0.045124
    90  C    0.114559
    91  C    0.062780
    92  C   -0.077336
    93  H    0.034506
    94  N   -0.423466
    95  C    0.162032
    96  C   -0.174074
    97  C   -0.008228
    98  C    0.151659
    99  C    0.099282
   100  C    0.015232
   101  O   -0.254348
   102  C    0.061212
   103  N   -0.349863
   104  C    0.036695
   105  C   -0.020487
   106  C   -0.035527
   107  C    0.088635
   108  C    0.071992
   109  C    0.034616
   110  C   -0.007536
   111  N   -0.324882
   112  C    0.078389
   113  C   -0.157707
   114  C    0.002303
   115  C    0.096812
   116  C    0.129345
   117  C    0.043193
   118  O   -0.189437
   119  C    0.000583
   120  C    0.210942
   121  O   -0.250965
   122  O   -0.306241
   123  C    0.152202
   124  H   -0.020164
   125  H   -0.016631
   126  H   -0.037884
   127  H   -0.002477
   128  H   -0.005444
   129  H    0.022043
   130  H    0.018106
   131  H    0.010731
   132  H    0.014266
   133  H    0.037836
   134  H    0.019192
   135  H    0.019223
   136  H    0.008191
   137  H    0.027777
   138  H    0.038641
   139  H    0.038797
   140  H    0.035474
   141  H    0.033554
   142  H    0.013671
   143  H    0.016018
   144  H    0.023065
   145  H    0.012937
   146  H    0.006939
   147  H    0.005595
   148  H    0.004813
   149  H    0.010263
   150  H    0.017521
   151  H    0.029990
   152  H    0.043303
   153  H    0.008465
   154  H    0.057331
   155  H    0.033729
   156  H    0.042981
   157  H    0.048946
   158  H    0.053685
 Sum of Mulliken charges =  -0.00000

 Dipole moment (field-independent basis, Debye):
    X=             -3.0387    Y=              1.6827    Z=              6.7458  Tot=              7.5876
 Quadrupole moment (field-independent basis, Debye-Ang):
   XX=           -519.5468   YY=           -526.0904   ZZ=           -473.4160
   XY=             15.3918   XZ=              3.0562   YZ=            -25.6303

 Normal termination of Gaussian 16 at Thu Sep  9 03:47:48 2021.
