 Gaussian 16, Revision A.03,
 Gaussian 16:  ES64L-G16RevA.03 25-Dec-2016

 -----------------------------------
 #p cam-b3lyp/Def2SVP td=(nstates=5)
 -----------------------------------

 --------------------------------
 TDDFT excited states in gaussian
 --------------------------------
 Symbolic Z-matrix:
 Charge =  0 Multiplicity = 1

                         Standard orientation:
 ---------------------------------------------------------------------
 Center     Atomic      Atomic             Coordinates (Angstroms)
 Number     Number       Type             X           Y           Z
 ---------------------------------------------------------------------
      1         12           0        7.525594    0.858509    0.487466
      2          6           0        7.931065   -2.356441   -1.033030
      3          6           0        8.474371    2.222583   -2.492835
      4          6           0        7.614850    3.680480    1.931464
      5          6           0        7.720543   -0.741883    3.577191
      6          7           0        8.102518   -0.055040   -1.444692
      7          6           0        8.159319   -1.297337   -1.914418
      8          6           0        8.410185   -1.366149   -3.450551
      9          6           0        9.113277    0.050209   -3.654486
     10          6           0        8.501099    0.796328   -2.482109
     11          6           0       10.627403    0.010314   -3.474669
     12          6           0        7.077691   -1.467086   -4.266640
     13          6           0        7.240299   -1.864683   -5.736615
     14          1           0        6.225136   -2.707183   -6.350608
     15          7           0        7.500865    2.684578   -0.266000
     16          6           0        7.909043    3.055717   -1.503309
     17          6           0        7.690695    4.516047   -1.583559
     18          6           0        7.300392    4.992953   -0.227712
     19          6           0        7.484250    3.793904    0.549370
     20          6           0        7.807689    5.296777   -2.856557
     21          6           0        6.845544    6.321603    0.287975
     22          8           0        6.780707    6.579924    1.538432
     23          6           0        6.558628    7.355431   -0.722925
     24          7           0        7.869164    1.431422    2.465183
     25          6           0        7.793227    2.714557    2.835024
     26          6           0        7.793958    2.853270    4.328576
     27          6           0        7.640965    1.373984    4.910004
     28          6           0        7.662256    0.591780    3.573600
     29          6           0        9.037154    3.515337    4.938610
     30          6           0        6.470347    1.122473    5.893271
     31          6           0        5.151500    1.248234    5.163939
     32          7           0        7.602179   -1.195135    1.185838
     33          6           0        7.703617   -1.630433    2.515086
     34          6           0        7.831746   -3.098912    2.480171
     35          6           0        7.812481   -3.416461    1.123470
     36          6           0        7.707080   -2.219855    0.358410
     37          6           0        8.004215   -3.947471    3.609169
     38          6           0        7.881211   -4.486327    0.141370
     39          8           0        7.881469   -5.716882    0.198164
     40          6           0        8.083398   -3.833807   -1.297089
     41          6           0        7.102872   -4.485477   -2.233679
     42          8           0        5.874814   -4.310249   -2.097531
     43          8           0        7.765491   -5.012802   -3.274547
     44          6           0        6.848075   -5.649488   -4.256959
     45          1           0        8.982656    2.753966   -3.299816
     46          1           0        7.539029    4.624399    2.475254
     47          1           0        7.700753   -1.316371    4.505105
     48          1           0        9.082380   -2.164321   -3.765987
     49          1           0        8.821860    0.517559   -4.594902
     50          1           0       10.959648   -0.960959   -3.108387
     51          1           0       10.854731    0.789669   -2.747056
     52          1           0       11.134561    0.302163   -4.394665
     53          1           0        6.655239   -0.469877   -4.389809
     54          1           0        6.380019   -2.151709   -3.783036
     55          1           0        8.236548   -2.261273   -5.934383
     56          1           0        7.183205   -0.960825   -6.343230
     57          1           0        8.268723    4.706478   -3.647468
     58          1           0        8.516631    6.103492   -2.671299
     59          1           0        6.850942    5.713351   -3.171887
     60          1           0        7.454832    7.536758   -1.316633
     61          1           0        6.161077    8.209254   -0.175395
     62          1           0        5.805361    6.974766   -1.413311
     63          1           0        6.953191    3.458243    4.665538
     64          1           0        8.525663    1.058585    5.463633
     65          1           0        8.812986    4.394958    5.542531
     66          1           0        9.720249    3.762332    4.126412
     67          1           0        9.654236    2.855202    5.547584
     68          1           0        6.472081    1.871527    6.684385
     69          1           0        6.508573    0.140908    6.365839
     70          1           0        4.968371    2.322088    5.175496
     71          1           0        4.367554    0.712698    5.700447
     72          1           0        5.242837    0.944465    4.120930
     73          1           0        7.347624   -4.802932    3.450918
     74          1           0        7.761447   -3.427865    4.535817
     75          1           0        9.065788   -4.180085    3.526648
     76          1           0        9.115993   -4.026580   -1.586413
     77          1           0        7.177994   -6.680796   -4.382623
     78          1           0        6.844814   -5.008302   -5.138591
     79          1           0        5.819455   -5.801130   -3.927892
     80         12           0       -8.314584    0.187101   -0.211570
     81          6           0       -5.674445   -2.122855    0.545310
     82          6           0       -5.921152    2.601948   -0.484736
     83          6           0      -10.643515    2.330291   -0.435748
     84          6           0      -10.530013   -2.091148    1.219210
     85          7           0       -6.116001    0.124419    0.022012
     86          6           0       -5.217400   -0.821683    0.249518
     87          6           0       -3.744153   -0.364657    0.075650
     88          6           0       -3.949221    1.208308    0.325830
     89          6           0       -5.409283    1.335841   -0.103849
     90          6           0       -3.845857    1.603390    1.789587
     91          6           0       -3.195983   -0.650229   -1.366560
     92          6           0       -1.679063   -0.515076   -1.516408
     93          1           0       -0.985960   -1.422604   -2.426615
     94          7           0       -8.285413    2.048039   -0.900514
     95          6           0       -7.222514    2.877560   -0.958890
     96          6           0       -7.726460    4.137913   -1.526098
     97          6           0       -9.206716    4.040287   -1.644458
     98          6           0       -9.443216    2.782882   -0.963952
     99          6           0       -6.821072    5.250219   -1.969361
    100          6           0      -10.239912    4.937227   -2.256189
    101          8           0      -11.491474    4.771639   -2.034810
    102          6           0       -9.738640    6.071210   -3.046306
    103          7           0      -10.266943    0.227562    0.501847
    104          6           0      -11.085568    1.255758    0.217915
    105          6           0      -12.511839    0.938959    0.599720
    106          6           0      -12.520296   -0.614839    0.978155
    107          6           0      -11.013612   -0.919846    0.828888
    108          6           0      -13.084772    1.748839    1.762578
    109          6           0      -13.535328   -1.517241    0.224461
    110          6           0      -13.154501   -1.614771   -1.235283
    111          7           0       -8.193612   -1.830639    0.551402
    112          6           0       -9.235975   -2.587930    1.129393
    113          6           0       -8.642816   -3.855895    1.601474
    114          6           0       -7.281411   -3.737677    1.283555
    115          6           0       -7.039340   -2.476125    0.675778
    116          6           0       -9.338422   -4.900427    2.273194
    117          6           0       -5.992161   -4.388862    1.333522
    118          8           0       -5.595752   -5.506942    1.659857
    119          6           0       -4.872061   -3.320512    0.972411
    120          6           0       -3.947117   -3.940929   -0.038563
    121          8           0       -4.357454   -4.231576   -1.175993
    122          8           0       -2.685981   -3.888408    0.427436
    123          6           0       -1.730112   -4.481968   -0.545101
    124          1           0       -5.279884    3.476420   -0.370882
    125          1           0      -11.502896    2.987588   -0.587057
    126          1           0      -11.171877   -2.894237    1.587624
    127          1           0       -3.053591   -0.770280    0.805290
    128          1           0       -3.307734    1.798461   -0.323460
    129          1           0       -3.768656    0.741156    2.435123
    130          1           0       -4.747551    2.160286    2.008351
    131          1           0       -3.017298    2.302715    1.933672
    132          1           0       -3.523541    0.152569   -2.039585
    133          1           0       -3.508023   -1.618033   -1.708043
    134          1           0       -1.170253   -0.482021   -0.545346
    135          1           0       -1.460024    0.456039   -1.966950
    136          1           0       -5.796487    5.104023   -1.605698
    137          1           0       -7.161493    6.160335   -1.463738
    138          1           0       -6.851418    5.413203   -3.048801
    139          1           0       -9.104098    6.694666   -2.420914
    140          1           0      -10.624855    6.543162   -3.474964
    141          1           0       -9.103970    5.683558   -3.851003
    142          1           0      -13.181037    1.100648   -0.236430
    143          1           0      -12.769893   -0.774877    2.037359
    144          1           0      -14.008636    2.297516    1.498993
    145          1           0      -12.322264    2.433059    2.110383
    146          1           0      -13.306621    1.174410    2.660365
    147          1           0      -14.533198   -1.072927    0.255872
    148          1           0      -13.614778   -2.516968    0.638265
    149          1           0      -13.587513   -0.706272   -1.664513
    150          1           0      -13.584815   -2.507496   -1.684622
    151          1           0      -12.067502   -1.554160   -1.363334
    152          1           0       -8.999628   -5.830767    1.837095
    153          1           0      -10.416181   -4.785335    2.178591
    154          1           0       -8.996327   -4.734803    3.298284
    155          1           0       -4.354372   -3.063270    1.897288
    156          1           0       -1.179146   -5.264631   -0.014472
    157          1           0       -1.142328   -3.633136   -0.942286
    158          1           0       -2.143325   -5.040838   -1.376580
 ---------------------------------------------------------------------

 SCF Done:  E(RCAM-B3LYP) =  -4069.81192567     A.U. after   19 cycles

 Excitation energies and oscillator strengths:

 Excited State   1:      Singlet-A      1.6689 eV  742.92 nm  f=0.0122  <S**2>=0.000
     309 -> 315       -0.10776
     310 -> 316        0.13406
     311 -> 313       -0.42825
     312 -> 314        0.53646
 This state for optimization and/or second-order correction.
 Total Energy, E(TD-HF/TD-DFT) =  -4069.75059594
 Copying the excited state density for this state as the 1-particle RhoCI density.

 Excited State   2:      Singlet-A      1.6857 eV  735.50 nm  f=0.7403  <S**2>=0.000
     309 -> 315        0.13828
     310 -> 316        0.10971
     311 -> 313        0.53554
     312 -> 314        0.42762

 Excited State   3:      Singlet-A      2.1853 eV  567.36 nm  f=0.1050  <S**2>=0.000
     310 -> 314        0.64238
     312 -> 316       -0.27232

 Excited State   4:      Singlet-A      2.1925 eV  565.49 nm  f=0.0972  <S**2>=0.000
     309 -> 313        0.64043
     311 -> 315       -0.27811

 Excited State   5:      Singlet-A      2.7152 eV  456.64 nm  f=0.0000  <S**2>=0.000
     312 -> 313        0.70693

 The electronic state is 1-A.
 Alpha  occ. eigenvalues --  -46.87954 -46.87555 -19.26408 -19.26057 -19.19162
 Alpha  occ. eigenvalues --  -19.18986 -19.18924 -19.18634 -19.18301 -19.17912
 Alpha  occ. eigenvalues --  -14.42601 -14.42385 -14.41602 -14.41256 -14.39560
 Alpha  occ. eigenvalues --  -14.39249 -14.38740 -14.38492 -10.39220 -10.38856
 Alpha  occ. eigenvalues --  -10.35621 -10.35313 -10.34521 -10.34084 -10.31785
 Alpha  occ. eigenvalues --  -10.31547 -10.31361 -10.31187 -10.31061 -10.30902
 Alpha  occ. eigenvalues --  -10.30717 -10.30660 -10.30361 -10.30293 -10.30248
 Alpha  occ. eigenvalues --  -10.30068 -10.30051 -10.29793 -10.29782 -10.29408
 Alpha  occ. eigenvalues --  -10.29341 -10.29297 -10.28886 -10.28663 -10.28556
 Alpha  occ. eigenvalues --  -10.28517 -10.28403 -10.28292 -10.28250 -10.27999
 Alpha  occ. eigenvalues --  -10.27939 -10.27895 -10.27874 -10.27740 -10.27647
 Alpha  occ. eigenvalues --  -10.27639 -10.27595 -10.27561 -10.27552 -10.27440
 Alpha  occ. eigenvalues --  -10.27391 -10.27366 -10.27363 -10.27296 -10.27293
 Alpha  occ. eigenvalues --  -10.26880 -10.26850 -10.26597 -10.26502 -10.26356
 Alpha  occ. eigenvalues --  -10.26352 -10.26335 -10.26167 -10.26068 -10.25955
 Alpha  occ. eigenvalues --  -10.25888 -10.25836 -10.25752 -10.25566 -10.25327
 Alpha  occ. eigenvalues --  -10.24978 -10.24940 -10.24865 -10.24762 -10.24663
 Alpha  occ. eigenvalues --  -10.24587  -3.16697  -3.16305  -1.91579  -1.91187
 Alpha  occ. eigenvalues --   -1.91165  -1.91007  -1.90776  -1.90613  -1.16760
 Alpha  occ. eigenvalues --   -1.16364  -1.08757  -1.08509  -1.07389  -1.06888
 Alpha  occ. eigenvalues --   -1.06781  -1.06704  -1.04731  -1.04380  -1.03912
 Alpha  occ. eigenvalues --   -1.03556  -1.03387  -1.02936  -1.02563  -1.02006
 Alpha  occ. eigenvalues --   -0.92117  -0.91859  -0.89670  -0.89396  -0.89325
 Alpha  occ. eigenvalues --   -0.89004  -0.88435  -0.88129  -0.88006  -0.87820
 Alpha  occ. eigenvalues --   -0.87686  -0.87566  -0.87434  -0.87032  -0.85124
 Alpha  occ. eigenvalues --   -0.84857  -0.84085  -0.83779  -0.83133  -0.82850
 Alpha  occ. eigenvalues --   -0.82793  -0.82515  -0.81719  -0.81401  -0.80741
 Alpha  occ. eigenvalues --   -0.80283  -0.78949  -0.78538  -0.77363  -0.77070
 Alpha  occ. eigenvalues --   -0.77022  -0.76735  -0.76057  -0.75674  -0.75040
 Alpha  occ. eigenvalues --   -0.74689  -0.72919  -0.72592  -0.71813  -0.71459
 Alpha  occ. eigenvalues --   -0.70060  -0.69672  -0.69016  -0.68688  -0.67790
 Alpha  occ. eigenvalues --   -0.67480  -0.67367  -0.67052  -0.65427  -0.65120
 Alpha  occ. eigenvalues --   -0.64997  -0.64763  -0.64646  -0.64493  -0.64418
 Alpha  occ. eigenvalues --   -0.64098  -0.62432  -0.62073  -0.60599  -0.60247
 Alpha  occ. eigenvalues --   -0.59945  -0.59662  -0.59133  -0.58874  -0.58649
 Alpha  occ. eigenvalues --   -0.58299  -0.57722  -0.57456  -0.57385  -0.57123
 Alpha  occ. eigenvalues --   -0.56454  -0.56110  -0.56091  -0.55678  -0.55670
 Alpha  occ. eigenvalues --   -0.55482  -0.55311  -0.55112  -0.54664  -0.54326
 Alpha  occ. eigenvalues --   -0.54034  -0.53763  -0.53450  -0.53368  -0.53113
 Alpha  occ. eigenvalues --   -0.53060  -0.53001  -0.52912  -0.52743  -0.52593
 Alpha  occ. eigenvalues --   -0.52563  -0.52313  -0.52043  -0.51775  -0.51761
 Alpha  occ. eigenvalues --   -0.51511  -0.51336  -0.51062  -0.50740  -0.50396
 Alpha  occ. eigenvalues --   -0.50181  -0.50074  -0.49871  -0.49776  -0.49662
 Alpha  occ. eigenvalues --   -0.49371  -0.49358  -0.49229  -0.49070  -0.48960
 Alpha  occ. eigenvalues --   -0.48728  -0.48615  -0.48590  -0.48403  -0.48278
 Alpha  occ. eigenvalues --   -0.48221  -0.47841  -0.47464  -0.47443  -0.47003
 Alpha  occ. eigenvalues --   -0.46942  -0.46695  -0.46591  -0.46506  -0.46406
 Alpha  occ. eigenvalues --   -0.46302  -0.46159  -0.45953  -0.45949  -0.45656
 Alpha  occ. eigenvalues --   -0.45347  -0.45108  -0.44714  -0.44660  -0.44369
 Alpha  occ. eigenvalues --   -0.44346  -0.44296  -0.44226  -0.44162  -0.44001
 Alpha  occ. eigenvalues --   -0.43964  -0.43808  -0.43628  -0.43530  -0.43363
 Alpha  occ. eigenvalues --   -0.43241  -0.43169  -0.42841  -0.42796  -0.42791
 Alpha  occ. eigenvalues --   -0.42676  -0.42462  -0.42157  -0.41847  -0.41846
 Alpha  occ. eigenvalues --   -0.41674  -0.41540  -0.41317  -0.41282  -0.41015
 Alpha  occ. eigenvalues --   -0.40986  -0.40869  -0.40717  -0.40614  -0.40570
 Alpha  occ. eigenvalues --   -0.40384  -0.40377  -0.40058  -0.39599  -0.39342
 Alpha  occ. eigenvalues --   -0.38615  -0.38248  -0.37889  -0.37485  -0.37469
 Alpha  occ. eigenvalues --   -0.37408  -0.37160  -0.37054  -0.36851  -0.36558
 Alpha  occ. eigenvalues --   -0.36335  -0.36068  -0.34436  -0.34141  -0.33916
 Alpha  occ. eigenvalues --   -0.33652  -0.33337  -0.33061  -0.31515  -0.31192
 Alpha  occ. eigenvalues --   -0.31186  -0.30860  -0.30160  -0.29811  -0.29606
 Alpha  occ. eigenvalues --   -0.29469  -0.29228  -0.29103  -0.24232  -0.23926
 Alpha  occ. eigenvalues --   -0.21278  -0.21011
 Alpha virt. eigenvalues --   -0.08926  -0.08687  -0.01904  -0.01581  -0.00215
 Alpha virt. eigenvalues --    0.00073   0.02057   0.02325   0.02915   0.03325
 Alpha virt. eigenvalues --    0.04574   0.04866   0.04960   0.05388   0.06045

 Mulliken charges:
               1
     1  Mg   0.837788
     2  C   -0.003219
     3  C   -0.094140
     4  C   -0.046122
     5  C   -0.063874
     6  N   -0.256800
     7  C   -0.052450
     8  C   -0.013938
     9  C   -0.086966
    10  C    0.046118
    11  C    0.104741
    12  C    0.053517
    13  C   -0.072001
    14  H    0.036405
    15  N   -0.433154
    16  C    0.168083
    17  C   -0.177277
    18  C   -0.004266
    19  C    0.148435
    20  C    0.110132
    21  C    0.011770
    22  O   -0.249743
    23  C    0.062703
    24  N   -0.341101
    25  C    0.041207
    26  C   -0.028183
    27  C   -0.024057
    28  C    0.074700
    29  C    0.076089
    30  C    0.035144
    31  C   -0.004558
    32  N   -0.310517
    33  C    0.080312
    34  C   -0.169508
    35  C    0.008546
    36  C    0.082774
    37  C    0.127279
    38  C    0.046091
    39  O   -0.187758
    40  C   -0.005293
    41  C    0.213187
    42  O   -0.257957
    43  O   -0.304574
    44  C    0.157611
    45  H   -0.017374
    46  H   -0.016879
    47  H   -0.041097
    48  H    0.001294
    49  H   -0.003974
    50  H    0.025677
    51  H    0.016508
    52  H    0.016947
    53  H    0.010785
    54  H    0.043663
    55  H    0.018278
    56  H    0.018011
    57  H    0.006088
    58  H    0.027070
    59  H    0.038998
    60  H    0.037778
    61  H    0.035451
    62  H    0.030725
    63  H    0.016223
    64  H    0.009878
    65  H    0.023279
    66  H    0.012706
    67  H    0.005078
    68  H    0.006620
    69  H    0.005257
    70  H    0.008313
    71  H    0.018267
    72  H    0.028425
    73  H    0.047986
    74  H    0.009364
    75  H    0.046388
    76  H    0.035564
    77  H    0.043587
    78  H    0.046539
    79  H    0.053403
    80  Mg   0.837547
    81  C   -0.016694
    82  C   -0.087850
    83  C   -0.045705
    84  C   -0.065163
    85  N   -0.254562
    86  C   -0.049790
    87  C   -0.014945
    88  C   -0.090408
    89  C    0.045741
    90  C    0.114419
    91  C    0.062722
    92  C   -0.078592
    93  H    0.037272
    94  N   -0.423428
    95  C    0.162773
    96  C   -0.174783
    97  C   -0.008062
    98  C    0.152048
    99  C    0.099450
   100  C    0.015391
   101  O   -0.253459
   102  C    0.061295
   103  N   -0.350109
   104  C    0.037434
   105  C   -0.019767
   106  C   -0.034796
   107  C    0.089018
   108  C    0.073756
   109  C    0.034788
   110  C   -0.007637
   111  N   -0.324151
   112  C    0.078558
   113  C   -0.163274
   114  C    0.002433
   115  C    0.096150
   116  C    0.131505
   117  C    0.042263
   118  O   -0.187204
   119  C    0.001166
   120  C    0.211392
   121  O   -0.251562
   122  O   -0.305620
   123  C    0.151519
   124  H   -0.019798
   125  H   -0.015878
   126  H   -0.040647
   127  H    0.000123
   128  H   -0.004433
   129  H    0.022551
   130  H    0.014031
   131  H    0.016416
   132  H    0.013053
   133  H    0.037775
   134  H    0.021793
   135  H    0.018344
   136  H    0.008645
   137  H    0.025888
   138  H    0.039306
   139  H    0.038127
   140  H    0.036079
   141  H    0.033686
   142  H    0.014203
   143  H    0.012281
   144  H    0.024894
   145  H    0.011609
   146  H    0.005509
   147  H    0.006048
   148  H    0.003596
   149  H    0.010801
   150  H    0.017791
   151  H    0.030253
   152  H    0.046125
   153  H    0.008292
   154  H    0.046913
   155  H    0.035247
   156  H    0.046072
   157  H    0.051342
   158  H    0.052883
 Sum of Mulliken charges =  -0.00000

 Dipole moment (field-independent basis, Debye):
    X=              4.0522    Y=              6.9383    Z=             -2.3397  Tot=              8.3686
 Quadrupole moment (field-independent basis, Debye-Ang):
   XX=           -487.0048   YY=           -555.6305   ZZ=           -471.9970
   XY=             19.0765   XZ=            -38.3528   YZ=            -10.9523

 Normal termination of Gaussian 16 at Sun Sep 12 02:48:26 2021.
