 Gaussian 16, Revision A.03,
 Gaussian 16:  ES64L-G16RevA.03 25-Dec-2016

 -----------------------------------
 #p cam-b3lyp/Def2SVP td=(nstates=5)
 -----------------------------------

 --------------------------------
 TDDFT excited states in gaussian
 --------------------------------
 Symbolic Z-matrix:
 Charge =  0 Multiplicity = 1

                         Standard orientation:
 ---------------------------------------------------------------------
 Center     Atomic      Atomic             Coordinates (Angstroms)
 Number     Number       Type             X           Y           Z
 ---------------------------------------------------------------------
      1         12           0        4.233877   -0.150115    0.017042
      2          6           0        3.740389   -3.473077   -1.218518
      3          6           0        5.094174    0.744243   -3.161491
      4          6           0        5.111222    2.672820    1.165050
      5          6           0        4.442475   -1.527313    3.211643
      6          7           0        4.360991   -1.307205   -1.865943
      7          6           0        4.087700   -2.559993   -2.216665
      8          6           0        4.131490   -2.794077   -3.756360
      9          6           0        5.098010   -1.594074   -4.166031
     10          6           0        4.809057   -0.645890   -3.015650
     11          6           0        6.577024   -1.965759   -4.136542
     12          6           0        2.721280   -2.646166   -4.420559
     13          6           0        2.615543   -3.174583   -5.854068
     14          1           0        1.374468   -3.804690   -6.278390
     15          7           0        4.519471    1.574579   -0.903128
     16          6           0        4.847730    1.753122   -2.205301
     17          6           0        4.946423    3.215128   -2.403990
     18          6           0        4.835361    3.864383   -1.068241
     19          6           0        4.843978    2.713828   -0.201334
     20          6           0        5.078119    3.855305   -3.751796
     21          6           0        4.747618    5.295218   -0.640286
     22          8           0        4.891232    5.650361    0.579478
     23          6           0        4.575011    6.292153   -1.712372
     24          7           0        4.928999    0.469263    1.885414
     25          6           0        5.180730    1.758921    2.135207
     26          6           0        5.390779    2.000361    3.600650
     27          6           0        4.988401    0.640644    4.334826
     28          6           0        4.677614   -0.219361    3.084997
     29          6           0        6.812688    2.402913    4.015544
     30          6           0        3.917587    0.734204    5.450632
     31          6           0        2.580625    1.105318    4.849046
     32          7           0        3.942067   -2.111559    0.899444
     33          6           0        4.104264   -2.462207    2.247558
     34          6           0        3.902623   -3.919765    2.342080
     35          6           0        3.651869   -4.320812    1.031306
     36          6           0        3.720132   -3.189688    0.168641
     37          6           0        4.019121   -4.702222    3.524714
     38          6           0        3.366489   -5.445587    0.155351
     39          8           0        3.104109   -6.636366    0.330551
     40          6           0        3.532784   -4.961196   -1.352475
     41          6           0        2.328376   -5.437026   -2.118175
     42          8           0        1.193869   -4.976659   -1.876677
     43          8           0        2.729838   -6.174882   -3.164569
     44          6           0        1.584334   -6.653858   -3.983443
     45          1           0        5.606022    1.086316   -4.063123
     46          1           0        5.309637    3.645549    1.619878
     47          1           0        4.408713   -2.014151    4.188015
     48          1           0        4.569848   -3.745158   -4.059198
     49          1           0        4.805458   -1.141076   -5.113094
     50          1           0        6.729979   -2.958460   -3.713376
     51          1           0        7.054988   -1.208888   -3.514296
     52          1           0        7.021791   -1.864091   -5.126806
     53          1           0        2.515783   -1.590275   -4.596419
     54          1           0        1.953737   -3.116919   -3.805258
     55          1           0        3.469727   -3.801345   -6.111842
     56          1           0        2.685471   -2.327388   -6.536395
     57          1           0        5.300540    3.120243   -4.524297
     58          1           0        5.963456    4.489914   -3.717724
     59          1           0        4.205080    4.455715   -4.008005
     60          1           0        5.411409    6.221013   -2.408020
     61          1           0        4.442600    7.251155   -1.212741
     62          1           0        3.679510    6.045172   -2.283360
     63          1           0        4.749461    2.803902    3.960455
     64          1           0        5.842380    0.171985    4.824472
     65          1           0        6.860578    3.351401    4.551064
     66          1           0        7.430920    2.428565    3.118648
     67          1           0        7.338670    1.664625    4.620267
     68          1           0        4.178072    1.517726    6.161397
     69          1           0        3.796311   -0.193727    6.009637
     70          1           0        2.639802    2.190611    4.775089
     71          1           0        1.768522    0.802810    5.511003
     72          1           0        2.477578    0.714846    3.836426
     73          1           0        3.177042   -5.394182    3.516828
     74          1           0        4.008845   -4.075932    4.416486
     75          1           0        4.986274   -5.176443    3.358626
     76          1           0        4.455819   -5.404922   -1.724275
     77          1           0        1.662944   -7.739537   -4.041368
     78          1           0        1.615924   -6.093683   -4.918115
     79          1           0        0.594499   -6.542598   -3.539385
     80         12           0       -3.561914    1.314531    0.506718
     81          6           0       -6.154398   -1.161582    0.342575
     82          6           0       -5.025958    2.810246   -2.186603
     83          6           0       -1.052245    3.248925    0.342063
     84          6           0       -1.708429   -0.951922    2.397090
     85          7           0       -5.355409    0.796870   -0.679734
     86          6           0       -6.297019   -0.132109   -0.610981
     87          6           0       -7.497949    0.097340   -1.567365
     88          6           0       -6.760173    1.007301   -2.665776
     89          6           0       -5.663371    1.607909   -1.788872
     90          6           0       -6.099644    0.199916   -3.770839
     91          6           0       -8.673665    0.872365   -0.875216
     92          6           0       -9.994408    0.860925   -1.648031
     93          1           0      -11.242773    0.810405   -0.892042
     94          7           0       -3.348102    3.066390   -0.400926
     95          6           0       -4.041130    3.520989   -1.465986
     96          6           0       -3.492927    4.853249   -1.763829
     97          6           0       -2.308922    5.079152   -0.891016
     98          6           0       -2.175125    3.769961   -0.284224
     99          6           0       -4.136721    5.799496   -2.735213
    100          6           0       -1.433218    6.271872   -0.652759
    101          8           0       -0.316742    6.174022   -0.030876
    102          6           0       -1.876198    7.540190   -1.249947
    103          7           0       -1.574394    1.097182    1.076689
    104          6           0       -0.701819    2.111329    0.942370
    105          6           0        0.589679    1.819501    1.668495
    106          6           0        0.312260    0.497057    2.523925
    107          6           0       -1.126618    0.189276    2.054559
    108          6           0        1.816806    1.604361    0.782917
    109          6           0        0.591273    0.574571    4.049970
    110          6           0       -0.394883    1.512631    4.707941
    111          7           0       -3.917056   -0.617774    1.405672
    112          6           0       -2.995409   -1.402679    2.132703
    113          6           0       -3.663205   -2.683636    2.441967
    114          6           0       -4.928979   -2.563170    1.848860
    115          6           0       -5.034809   -1.304611    1.197443
    116          6           0       -3.079847   -3.778733    3.139517
    117          6           0       -6.195845   -3.218777    1.616639
    118          8           0       -6.715611   -4.265551    2.001165
    119          6           0       -6.999981   -2.391612    0.523234
    120          6           0       -8.407024   -2.207494    1.022097
    121          8           0       -8.633885   -1.523091    2.035368
    122          8           0       -9.266284   -2.685067    0.103415
    123          6           0      -10.675292   -2.514946    0.547919
    124          1           0       -5.271420    3.229226   -3.162870
    125          1           0       -0.194483    3.922186    0.408684
    126          1           0       -1.232727   -1.671790    3.066549
    127          1           0       -7.888181   -0.801151   -2.030199
    128          1           0       -7.418832    1.786752   -3.039927
    129          1           0       -6.134646   -0.860717   -3.570870
    130          1           0       -5.074291    0.543265   -3.813355
    131          1           0       -6.542452    0.452585   -4.738519
    132          1           0       -8.454035    1.947605   -0.894437
    133          1           0       -8.834869    0.509325    0.121189
    134          1           0       -9.998131    0.109263   -2.446738
    135          1           0      -10.096275    1.812639   -2.175181
    136          1           0       -4.895829    5.294729   -3.345436
    137          1           0       -3.364078    6.095583   -3.453000
    138          1           0       -4.531781    6.695417   -2.251567
    139          1           0       -1.966617    7.420137   -2.326917
    140          1           0       -1.169308    8.292805   -0.895321
    141          1           0       -2.878796    7.772604   -0.873912
    142          1           0        0.845039    2.627360    2.343236
    143          1           0        0.938358   -0.343246    2.189659
    144          1           0        2.649579    2.294518    1.015831
    145          1           0        1.514357    1.708534   -0.250626
    146          1           0        2.229563    0.597158    0.802441
    147          1           0        1.584973    0.990934    4.232611
    148          1           0        0.549799   -0.389316    4.546149
    149          1           0        0.050981    2.497422    4.539179
    150          1           0       -0.480219    1.294860    5.770646
    151          1           0       -1.360744    1.494900    4.189838
    152          1           0       -3.826792   -4.138594    3.834547
    153          1           0       -2.167670   -3.482392    3.653207
    154          1           0       -2.879552   -4.456737    2.305574
    155          1           0       -6.966573   -2.959625   -0.407269
    156          1           0      -11.141537   -3.504581    0.517712
    157          1           0      -11.104088   -1.735825   -0.109994
    158          1           0      -10.844493   -2.232862    1.580504
 ---------------------------------------------------------------------

 SCF Done:  E(RCAM-B3LYP) =  -4069.61440541     A.U. after   19 cycles

 Excitation energies and oscillator strengths:

 Excited State   1:      Singlet-A      1.6248 eV  763.08 nm  f=0.0006  <S**2>=0.000
     309 -> 315        0.11341
     310 -> 316       -0.11418
     311 -> 313        0.48171
     312 -> 314        0.49193
 This state for optimization and/or second-order correction.
 Total Energy, E(TD-HF/TD-DFT) =  -4069.55469558
 Copying the excited state density for this state as the 1-particle RhoCI density.

 Excited State   2:      Singlet-A      1.7088 eV  725.57 nm  f=0.6640  <S**2>=0.000
     309 -> 315        0.13152
     310 -> 316        0.12661
     311 -> 313        0.48808
     312 -> 314       -0.47841

 Excited State   3:      Singlet-A      2.1353 eV  580.63 nm  f=0.0080  <S**2>=0.000
     309 -> 313        0.18007
     312 -> 313        0.67642

 Excited State   4:      Singlet-A      2.1739 eV  570.33 nm  f=0.0633  <S**2>=0.000
     309 -> 313        0.41209
     310 -> 314        0.47725
     311 -> 315       -0.17155
     312 -> 313       -0.15257
     312 -> 316        0.19320

 Excited State   5:      Singlet-A      2.1874 eV  566.82 nm  f=0.1266  <S**2>=0.000
     309 -> 313        0.45684
     310 -> 314       -0.43006
     311 -> 315       -0.20261
     312 -> 313       -0.12957
     312 -> 316       -0.18783

 The electronic state is 1-A.
 Alpha  occ. eigenvalues --  -46.87752 -46.87224 -19.26330 -19.26075 -19.19075
 Alpha  occ. eigenvalues --  -19.18870 -19.18700 -19.18388 -19.18271 -19.17708
 Alpha  occ. eigenvalues --  -14.42574 -14.42083 -14.41566 -14.40899 -14.39335
 Alpha  occ. eigenvalues --  -14.38932 -14.38713 -14.38164 -10.39139 -10.38789
 Alpha  occ. eigenvalues --  -10.35322 -10.35079 -10.34492 -10.33877 -10.31702
 Alpha  occ. eigenvalues --  -10.31580 -10.31519 -10.31009 -10.30852 -10.30725
 Alpha  occ. eigenvalues --  -10.30703 -10.30620 -10.30515 -10.30182 -10.29918
 Alpha  occ. eigenvalues --  -10.29853 -10.29743 -10.29589 -10.29482 -10.29416
 Alpha  occ. eigenvalues --  -10.29085 -10.28904 -10.28839 -10.28602 -10.28477
 Alpha  occ. eigenvalues --  -10.28430 -10.28412 -10.28225 -10.28062 -10.28043
 Alpha  occ. eigenvalues --  -10.27941 -10.27929 -10.27869 -10.27806 -10.27672
 Alpha  occ. eigenvalues --  -10.27649 -10.27529 -10.27492 -10.27306 -10.27250
 Alpha  occ. eigenvalues --  -10.27249 -10.27166 -10.27085 -10.27022 -10.26770
 Alpha  occ. eigenvalues --  -10.26700 -10.26663 -10.26630 -10.26533 -10.26426
 Alpha  occ. eigenvalues --  -10.26337 -10.26336 -10.26240 -10.26213 -10.26099
 Alpha  occ. eigenvalues --  -10.26027 -10.25753 -10.25716 -10.25378 -10.25282
 Alpha  occ. eigenvalues --  -10.25000 -10.24965 -10.24506 -10.24312 -10.23959
 Alpha  occ. eigenvalues --  -10.20601  -3.16490  -3.15974  -1.91375  -1.90962
 Alpha  occ. eigenvalues --   -1.90856  -1.90802  -1.90444  -1.90282  -1.16681
 Alpha  occ. eigenvalues --   -1.16364  -1.08726  -1.08311  -1.07080  -1.06697
 Alpha  occ. eigenvalues --   -1.06656  -1.06654  -1.04707  -1.04092  -1.03949
 Alpha  occ. eigenvalues --   -1.03364  -1.03227  -1.02601  -1.02569  -1.01701
 Alpha  occ. eigenvalues --   -0.93465  -0.92096  -0.91592  -0.89447  -0.89273
 Alpha  occ. eigenvalues --   -0.88860  -0.88652  -0.88210  -0.88028  -0.87833
 Alpha  occ. eigenvalues --   -0.87381  -0.87287  -0.87269  -0.86785  -0.86382
 Alpha  occ. eigenvalues --   -0.85085  -0.84632  -0.83624  -0.83019  -0.82678
 Alpha  occ. eigenvalues --   -0.82615  -0.82351  -0.81721  -0.81290  -0.80746
 Alpha  occ. eigenvalues --   -0.80132  -0.79193  -0.78673  -0.78212  -0.77172
 Alpha  occ. eigenvalues --   -0.76764  -0.76617  -0.76240  -0.75739  -0.75477
 Alpha  occ. eigenvalues --   -0.74841  -0.73924  -0.72646  -0.72242  -0.71846
 Alpha  occ. eigenvalues --   -0.71369  -0.69077  -0.68904  -0.68313  -0.67770
 Alpha  occ. eigenvalues --   -0.67319  -0.67243  -0.66892  -0.66501  -0.65290
 Alpha  occ. eigenvalues --   -0.64942  -0.64884  -0.64634  -0.64342  -0.64181
 Alpha  occ. eigenvalues --   -0.62939  -0.62424  -0.61842  -0.60605  -0.60069
 Alpha  occ. eigenvalues --   -0.59928  -0.59457  -0.59226  -0.58808  -0.58660
 Alpha  occ. eigenvalues --   -0.58228  -0.57838  -0.57600  -0.57401  -0.57197
 Alpha  occ. eigenvalues --   -0.56588  -0.56348  -0.56127  -0.55984  -0.55742
 Alpha  occ. eigenvalues --   -0.55537  -0.55524  -0.55123  -0.54966  -0.54731
 Alpha  occ. eigenvalues --   -0.54183  -0.53915  -0.53595  -0.53443  -0.53204
 Alpha  occ. eigenvalues --   -0.53159  -0.52868  -0.52831  -0.52715  -0.52625
 Alpha  occ. eigenvalues --   -0.52383  -0.52308  -0.52070  -0.51656  -0.51461
 Alpha  occ. eigenvalues --   -0.51364  -0.51314  -0.51259  -0.50852  -0.50446
 Alpha  occ. eigenvalues --   -0.50131  -0.49986  -0.49821  -0.49627  -0.49470
 Alpha  occ. eigenvalues --   -0.49335  -0.49242  -0.49176  -0.49087  -0.48865
 Alpha  occ. eigenvalues --   -0.48824  -0.48671  -0.48639  -0.48386  -0.48199
 Alpha  occ. eigenvalues --   -0.48031  -0.47630  -0.47566  -0.47474  -0.47192
 Alpha  occ. eigenvalues --   -0.46928  -0.46670  -0.46617  -0.46516  -0.46376
 Alpha  occ. eigenvalues --   -0.46232  -0.46144  -0.45976  -0.45859  -0.45724
 Alpha  occ. eigenvalues --   -0.45497  -0.45329  -0.45209  -0.44697  -0.44627
 Alpha  occ. eigenvalues --   -0.44401  -0.44212  -0.44188  -0.44176  -0.43986
 Alpha  occ. eigenvalues --   -0.43788  -0.43660  -0.43612  -0.43527  -0.43512
 Alpha  occ. eigenvalues --   -0.43156  -0.43149  -0.42938  -0.42767  -0.42604
 Alpha  occ. eigenvalues --   -0.42561  -0.42450  -0.42015  -0.41952  -0.41731
 Alpha  occ. eigenvalues --   -0.41488  -0.41414  -0.41296  -0.41069  -0.40990
 Alpha  occ. eigenvalues --   -0.40840  -0.40672  -0.40648  -0.40451  -0.40416
 Alpha  occ. eigenvalues --   -0.40257  -0.40085  -0.39930  -0.38909  -0.38713
 Alpha  occ. eigenvalues --   -0.38169  -0.37803  -0.37517  -0.37492  -0.37338
 Alpha  occ. eigenvalues --   -0.37258  -0.36964  -0.36825  -0.36479  -0.36388
 Alpha  occ. eigenvalues --   -0.35858  -0.34405  -0.33994  -0.33831  -0.33551
 Alpha  occ. eigenvalues --   -0.33379  -0.32750  -0.31365  -0.31163  -0.30950
 Alpha  occ. eigenvalues --   -0.30570  -0.30131  -0.29603  -0.29523  -0.29384
 Alpha  occ. eigenvalues --   -0.28929  -0.28804  -0.27342  -0.24219  -0.23598
 Alpha  occ. eigenvalues --   -0.21290  -0.20670
 Alpha virt. eigenvalues --   -0.08928  -0.08373  -0.01998  -0.01296  -0.00074
 Alpha virt. eigenvalues --    0.00320   0.01984   0.02643   0.03565   0.04468
 Alpha virt. eigenvalues --    0.04879   0.05054   0.05177   0.05473   0.06352

 Mulliken charges:
               1
     1  Mg   0.685461
     2  C    0.000450
     3  C   -0.092216
     4  C   -0.038121
     5  C   -0.069292
     6  N   -0.253251
     7  C   -0.051175
     8  C   -0.014047
     9  C   -0.086231
    10  C    0.048825
    11  C    0.104886
    12  C    0.053160
    13  C   -0.071858
    14  H    0.036316
    15  N   -0.421300
    16  C    0.171215
    17  C   -0.176175
    18  C   -0.004698
    19  C    0.134761
    20  C    0.110582
    21  C    0.020214
    22  O   -0.248463
    23  C    0.061477
    24  N   -0.324057
    25  C    0.030011
    26  C   -0.028207
    27  C   -0.033948
    28  C    0.072591
    29  C    0.078629
    30  C    0.198438
    31  C    0.160082
    32  N   -0.303561
    33  C    0.075658
    34  C   -0.171898
    35  C    0.008249
    36  C    0.081513
    37  C    0.127911
    38  C    0.046339
    39  O   -0.187590
    40  C   -0.007394
    41  C    0.212850
    42  O   -0.256491
    43  O   -0.304878
    44  C    0.157424
    45  H   -0.017597
    46  H   -0.016589
    47  H   -0.044404
    48  H    0.001048
    49  H   -0.003980
    50  H    0.025789
    51  H    0.016707
    52  H    0.016947
    53  H    0.011836
    54  H    0.044909
    55  H    0.017940
    56  H    0.017799
    57  H    0.005307
    58  H    0.027177
    59  H    0.041389
    60  H    0.034250
    61  H    0.038619
    62  H    0.036340
    63  H    0.011670
    64  H    0.013404
    65  H    0.024191
    66  H    0.014774
    67  H    0.005452
    68  H   -0.012520
    69  H   -0.001003
    70  H    0.040243
    71  H    0.046039
    72  H    0.133288
    73  H    0.047319
    74  H    0.007477
    75  H    0.046748
    76  H    0.035552
    77  H    0.043374
    78  H    0.046257
    79  H    0.054323
    80  Mg   0.838449
    81  C   -0.017895
    82  C   -0.088581
    83  C   -0.049208
    84  C   -0.066115
    85  N   -0.254630
    86  C   -0.048790
    87  C   -0.015252
    88  C   -0.090355
    89  C    0.045228
    90  C    0.114819
    91  C    0.062680
    92  C   -0.077324
    93  H    0.033957
    94  N   -0.422459
    95  C    0.161585
    96  C   -0.177029
    97  C   -0.009607
    98  C    0.149851
    99  C    0.100421
   100  C    0.012765
   101  O   -0.254049
   102  C    0.061455
   103  N   -0.350348
   104  C    0.043401
   105  C    0.016829
   106  C   -0.047276
   107  C    0.108719
   108  C    0.036598
   109  C    0.078842
   110  C    0.004910
   111  N   -0.325151
   112  C    0.079855
   113  C   -0.159509
   114  C    0.002213
   115  C    0.098004
   116  C    0.132042
   117  C    0.043243
   118  O   -0.187635
   119  C    0.000783
   120  C    0.211011
   121  O   -0.251453
   122  O   -0.305575
   123  C    0.152290
   124  H   -0.021775
   125  H   -0.016556
   126  H   -0.037346
   127  H   -0.001064
   128  H   -0.005483
   129  H    0.022642
   130  H    0.014192
   131  H    0.014486
   132  H    0.013888
   133  H    0.037525
   134  H    0.020449
   135  H    0.019074
   136  H    0.007649
   137  H    0.022851
   138  H    0.038302
   139  H    0.036054
   140  H    0.035144
   141  H    0.034144
   142  H    0.013011
   143  H    0.021403
   144  H    0.076135
   145  H    0.044134
   146  H    0.027942
   147  H   -0.443016
   148  H   -0.024742
   149  H   -0.002085
   150  H    0.010648
   151  H    0.020850
   152  H    0.044128
   153  H    0.008511
   154  H    0.054014
   155  H    0.035210
   156  H    0.043456
   157  H    0.049051
   158  H    0.053200
 Sum of Mulliken charges =  -0.00000

 Dipole moment (field-independent basis, Debye):
    X=              3.0856    Y=              4.6008    Z=             -6.7467  Tot=              8.7296
 Quadrupole moment (field-independent basis, Debye-Ang):
   XX=           -485.9691   YY=           -551.8254   ZZ=           -458.4128
   XY=            -27.6797   XZ=             26.7242   YZ=             -5.1913

 Normal termination of Gaussian 16 at Thu Sep  9 09:33:10 2021.
