 Gaussian 16, Revision A.03,
 Gaussian 16:  ES64L-G16RevA.03 25-Dec-2016

 -----------------------------------
 #p cam-b3lyp/Def2SVP td=(nstates=5)
 -----------------------------------

 --------------------------------
 TDDFT excited states in gaussian
 --------------------------------
 Symbolic Z-matrix:
 Charge =  0 Multiplicity = 1

                         Standard orientation:
 ---------------------------------------------------------------------
 Center     Atomic      Atomic             Coordinates (Angstroms)
 Number     Number       Type             X           Y           Z
 ---------------------------------------------------------------------
      1         12           0        4.997353   -0.992794   -0.015905
      2          6           0        5.394703    1.974498   -1.977921
      3          6           0        6.003831    0.836036    2.683252
      4          6           0        5.092024   -3.694273    1.642307
      5          6           0        5.130506   -2.801157   -2.992102
      6          7           0        5.594419    1.128050    0.198991
      7          6           0        5.646329    2.174804   -0.618801
      8          6           0        5.919558    3.520683    0.116950
      9          6           0        6.639208    2.952864    1.421436
     10          6           0        6.016692    1.568313    1.459064
     11          6           0        8.150010    2.808167    1.269640
     12          6           0        4.598559    4.280651    0.476310
     13          6           0        4.779392    5.741681    0.898262
     14          1           0        3.765516    6.712157    0.514103
     15          7           0        5.001483   -1.298589    1.935844
     16          6           0        5.431740   -0.437950    2.889503
     17          6           0        5.228660   -1.127063    4.182006
     18          6           0        4.822644   -2.530068    3.890767
     19          6           0        4.983286   -2.571738    2.459741
     20          6           0        5.372250   -0.446646    5.508718
     21          6           0        4.372890   -3.657866    4.764796
     22          8           0        4.291770   -4.859739    4.336434
     23          6           0        4.111129   -3.329762    6.177903
     24          7           0        5.316678   -2.982629   -0.560166
     25          6           0        5.247527   -3.965153    0.344737
     26          6           0        5.227166   -5.312980   -0.313204
     27          6           0        5.051256   -5.039176   -1.876483
     28          6           0        5.085094   -3.491134   -1.850201
     29          6           0        6.467366   -6.188037   -0.084750
     30          6           0        3.863645   -5.739066   -2.583697
     31          6           0        2.557166   -5.171189   -2.076029
     32          7           0        5.043711   -0.522008   -2.134219
     33          6           0        5.120993   -1.431804   -3.198632
     34          6           0        5.235518   -0.639381   -4.436783
     35          6           0        5.233576    0.684696   -4.002432
     36          6           0        5.151174    0.716754   -2.580998
     37          6           0        5.382857   -1.163799   -5.751208
     38          6           0        5.306762    2.079328   -4.406787
     39          8           0        5.294346    2.670701   -5.487351
     40          6           0        5.536784    2.967072   -3.104932
     41          6           0        4.564215    4.113588   -3.158957
     42          8           0        3.335992    3.915797   -3.060402
     43          8           0        5.237291    5.271646   -3.078880
     44          6           0        4.328654    6.449013   -3.097297
     45          1           0        6.529256    1.245008    3.548475
     46          1           0        5.017119   -4.648982    2.167053
     47          1           0        5.091267   -3.294833   -3.964829
     48          1           0        6.588715    4.199890   -0.411569
     49          1           0        6.366446    3.515366    2.314137
     50          1           0        8.467372    2.997770    0.244333
     51          1           0        8.373863    1.779647    1.553416
     52          1           0        8.673703    3.438233    1.989041
     53          1           0        4.187603    3.870616    1.398832
     54          1           0        3.887160    4.229053   -0.348661
     55          1           0        5.774643    6.109025    0.646383
     56          1           0        4.740099    5.790255    1.986516
     57          1           0        5.839414    0.532240    5.408299
     58          1           0        6.086047   -1.029921    6.090089
     59          1           0        4.424391   -0.386438    6.043761
     60          1           0        5.017846   -2.923964    6.627058
     61          1           0        3.713623   -4.238298    6.628904
     62          1           0        3.364691   -2.536239    6.223722
     63          1           0        4.387285   -5.908791    0.041810
     64          1           0        5.924472   -5.354970   -2.447834
     65          1           0        6.242616   -7.159510    0.356196
     66          1           0        7.164919   -5.628098    0.537486
     67          1           0        7.068864   -6.369746   -0.975030
     68          1           0        3.860696   -6.804301   -2.355198
     69          1           0        3.885339   -5.632591   -3.668337
     70          1           0        2.384209   -5.738026   -1.161910
     71          1           0        1.760145   -5.344823   -2.799782
     72          1           0        2.661230   -4.123077   -1.794749
     73          1           0        4.720528   -0.578653   -6.389090
     74          1           0        5.131206   -2.223572   -5.785224
     75          1           0        6.443265   -0.980668   -5.923987
     76          1           0        6.571707    3.306349   -3.135716
     77          1           0        4.650500    7.090040   -3.918110
     78          1           0        4.344791    6.868655   -2.091292
     79          1           0        3.293800    6.254854   -3.381407
     80         12           0       -5.562911   -0.275836    0.003096
     81          6           0       -3.134131    1.931594    1.454772
     82          6           0       -7.875707    2.180418    0.505485
     83          6           0       -7.806154   -2.350639   -0.851569
     84          6           0       -3.366800   -2.900477    0.661942
     85          7           0       -5.403630    1.750469    0.875435
     86          6           0       -4.417555    2.504683    1.337141
     87          6           0       -4.812831    3.979370    1.617529
     88          6           0       -6.390436    3.768946    1.831480
     89          6           0       -6.584907    2.507993    0.991926
     90          6           0       -6.765344    3.448301    3.268823
     91          6           0       -4.519172    4.919488    0.396085
     92          6           0       -4.590765    6.416545    0.705002
     93          1           0       -3.663958    7.313633    0.020351
     94          7           0       -7.428008    0.026741   -0.603887
     95          6           0       -8.211796    1.089691   -0.326199
     96          6           0       -9.498455    0.824730   -0.988355
     97          6           0       -9.465588   -0.556369   -1.541710
     98          6           0       -8.212404   -1.031469   -0.990434
     99          6           0      -10.575523    1.862234   -1.118416
    100          6           0      -10.412345   -1.326892   -2.411276
    101          8           0      -10.298237   -2.593106   -2.574063
    102          6           0      -11.532036   -0.571284   -2.991662
    103          7           0       -5.679507   -2.348958    0.107452
    104          6           0       -6.744756   -3.007006   -0.382611
    105          6           0       -6.485380   -4.493258   -0.447352
    106          6           0       -4.929489   -4.672344   -0.123776
    107          6           0       -4.561776   -3.201865    0.172695
    108          6           0       -7.306820   -5.354298    0.511929
    109          6           0       -4.079362   -5.451466   -1.164410
    110          6           0       -3.980920   -4.658721   -2.447869
    111          7           0       -3.533947   -0.463039    0.721651
    112          6           0       -2.815992   -1.657801    0.947872
    113          6           0       -1.518895   -1.279779    1.545422
    114          6           0       -1.581999    0.118108    1.647450
    115          6           0       -2.838328    0.577103    1.167371
    116          6           0       -0.498142   -2.182314    1.957265
    117          6           0       -0.875686    1.308905    2.061947
    118          8           0        0.261714    1.548092    2.465503
    119          6           0       -1.898781    2.525269    2.072893
    120          6           0       -1.249933    3.684337    1.367148
    121          8           0       -0.989083    3.619205    0.152927
    122          8           0       -1.243482    4.751503    2.186588
    123          6           0       -0.619741    5.929687    1.527311
    124          1           0       -8.720663    2.791627    0.823859
    125          1           0       -8.501230   -3.100957   -1.235479
    126          1           0       -2.588143   -3.652634    0.805534
    127          1           0       -4.370366    4.406541    2.509451
    128          1           0       -6.959328    4.596009    1.414716
    129          1           0       -5.893867    3.297851    3.888530
    130          1           0       -7.358037    2.544023    3.223511
    131          1           0       -7.426976    4.222635    3.667538
    132          1           0       -5.342274    4.836931   -0.325318
    133          1           0       -3.569261    4.686430   -0.044356
    134          1           0       -4.591801    6.615255    1.783641
    135          1           0       -5.556270    6.795939    0.361663
    136          1           0      -10.381762    2.726526   -0.471221
    137          1           0      -11.494045    1.421817   -0.715659
    138          1           0      -10.750982    2.159659   -2.154476
    139          1           0      -12.121135   -0.127729   -2.192492
    140          1           0      -12.045995   -1.271939   -3.652570
    141          1           0      -11.126005    0.258390   -3.581063
    142          1           0       -6.684353   -4.877658   -1.440192
    143          1           0       -4.769189   -5.230783    0.810193
    144          1           0       -7.897316   -6.136950   -0.000750
    145          1           0       -7.954068   -4.703997    1.085277
    146          1           0       -6.733046   -5.854055    1.290540
    147          1           0       -4.565681   -6.396190   -1.419655
    148          1           0       -3.079681   -5.687832   -0.815481
    149          1           0       -4.911590   -4.910219   -2.965259
    150          1           0       -3.112210   -4.969797   -3.024595
    151          1           0       -3.996225   -3.581182   -2.247047
    152          1           0        0.441231   -1.764838    1.619954
    153          1           0       -0.660301   -3.178344    1.550556
    154          1           0       -0.638202   -2.153709    3.041164
    155          1           0       -2.123894    2.754626    3.115153
    156          1           0        0.191337    6.268425    2.179300
    157          1           0       -1.446716    6.640499    1.341278
    158          1           0       -0.087832    5.760910    0.598307
 ---------------------------------------------------------------------

 SCF Done:  E(RCAM-B3LYP) =  -4069.81120116     A.U. after   19 cycles

 Excitation energies and oscillator strengths:

 Excited State   1:      Singlet-A      1.6625 eV  745.77 nm  f=0.2938  <S**2>=0.000
     309 -> 315        0.13437
     310 -> 316        0.10365
     311 -> 313        0.54114
     312 -> 314        0.42288
 This state for optimization and/or second-order correction.
 Total Energy, E(TD-HF/TD-DFT) =  -4069.75010567
 Copying the excited state density for this state as the 1-particle RhoCI density.

 Excited State   2:      Singlet-A      1.6890 eV  734.08 nm  f=0.4880  <S**2>=0.000
     309 -> 315       -0.10866
     310 -> 316        0.13910
     311 -> 313       -0.42188
     312 -> 314        0.53986

 Excited State   3:      Singlet-A      2.1794 eV  568.88 nm  f=0.0069  <S**2>=0.000
     309 -> 313        0.52623
     310 -> 314       -0.37309
     311 -> 315       -0.21935
     312 -> 316        0.15385

 Excited State   4:      Singlet-A      2.1927 eV  565.44 nm  f=0.1697  <S**2>=0.000
     309 -> 313        0.36965
     310 -> 314        0.52203
     311 -> 315       -0.16044
     312 -> 316       -0.22751

 Excited State   5:      Singlet-A      2.3755 eV  521.92 nm  f=0.0000  <S**2>=0.000
     312 -> 313        0.70569

 The electronic state is 1-A.
 Alpha  occ. eigenvalues --  -46.87562 -46.87208 -19.26242 -19.25749 -19.18962
 Alpha  occ. eigenvalues --  -19.18630 -19.18387 -19.18378 -19.18045 -19.17644
 Alpha  occ. eigenvalues --  -14.42404 -14.41861 -14.41266 -14.40923 -14.39258
 Alpha  occ. eigenvalues --  -14.38820 -14.38503 -14.38015 -10.38913 -10.38463
 Alpha  occ. eigenvalues --  -10.35307 -10.35015 -10.34202 -10.33860 -10.31702
 Alpha  occ. eigenvalues --  -10.31246 -10.31224 -10.30933 -10.30826 -10.30317
 Alpha  occ. eigenvalues --  -10.30307 -10.30272 -10.30045 -10.29999 -10.29987
 Alpha  occ. eigenvalues --  -10.29804 -10.29711 -10.29444 -10.29343 -10.29313
 Alpha  occ. eigenvalues --  -10.29111 -10.28705 -10.28637 -10.28569 -10.28316
 Alpha  occ. eigenvalues --  -10.28165 -10.28128 -10.28068 -10.27918 -10.27787
 Alpha  occ. eigenvalues --  -10.27582 -10.27557 -10.27422 -10.27391 -10.27386
 Alpha  occ. eigenvalues --  -10.27378 -10.27287 -10.27246 -10.27156 -10.27151
 Alpha  occ. eigenvalues --  -10.27106 -10.27050 -10.26981 -10.26922 -10.26845
 Alpha  occ. eigenvalues --  -10.26612 -10.26576 -10.26334 -10.26036 -10.26003
 Alpha  occ. eigenvalues --  -10.25993 -10.25983 -10.25943 -10.25832 -10.25775
 Alpha  occ. eigenvalues --  -10.25760 -10.25509 -10.25398 -10.25321 -10.25128
 Alpha  occ. eigenvalues --  -10.24793 -10.24623 -10.24601 -10.24524 -10.24287
 Alpha  occ. eigenvalues --  -10.24283  -3.16311  -3.15945  -1.91192  -1.90825
 Alpha  occ. eigenvalues --   -1.90782  -1.90619  -1.90414  -1.90256  -1.16521
 Alpha  occ. eigenvalues --   -1.16082  -1.08637  -1.08102  -1.06882  -1.06789
 Alpha  occ. eigenvalues --   -1.06769  -1.06027  -1.04404  -1.03998  -1.03571
 Alpha  occ. eigenvalues --   -1.03226  -1.02946  -1.02680  -1.02019  -1.01864
 Alpha  occ. eigenvalues --   -0.91901  -0.91419  -0.89401  -0.89101  -0.89070
 Alpha  occ. eigenvalues --   -0.88620  -0.88129  -0.87871  -0.87710  -0.87593
 Alpha  occ. eigenvalues --   -0.87354  -0.87116  -0.87035  -0.86752  -0.84913
 Alpha  occ. eigenvalues --   -0.84448  -0.83784  -0.83569  -0.82846  -0.82569
 Alpha  occ. eigenvalues --   -0.82523  -0.82145  -0.81513  -0.81082  -0.80357
 Alpha  occ. eigenvalues --   -0.80080  -0.78550  -0.78271  -0.77059  -0.76817
 Alpha  occ. eigenvalues --   -0.76758  -0.76449  -0.75763  -0.75416  -0.74719
 Alpha  occ. eigenvalues --   -0.74480  -0.72610  -0.72263  -0.71499  -0.71174
 Alpha  occ. eigenvalues --   -0.69662  -0.69572  -0.68744  -0.68358  -0.67517
 Alpha  occ. eigenvalues --   -0.67130  -0.67109  -0.66677  -0.65187  -0.64735
 Alpha  occ. eigenvalues --   -0.64679  -0.64565  -0.64341  -0.64133  -0.64113
 Alpha  occ. eigenvalues --   -0.63815  -0.62185  -0.61791  -0.60253  -0.59950
 Alpha  occ. eigenvalues --   -0.59713  -0.59242  -0.58904  -0.58476  -0.58336
 Alpha  occ. eigenvalues --   -0.57991  -0.57458  -0.57147  -0.57046  -0.56831
 Alpha  occ. eigenvalues --   -0.56113  -0.55798  -0.55796  -0.55464  -0.55365
 Alpha  occ. eigenvalues --   -0.55155  -0.55038  -0.54915  -0.54387  -0.54066
 Alpha  occ. eigenvalues --   -0.53826  -0.53332  -0.53142  -0.53051  -0.52820
 Alpha  occ. eigenvalues --   -0.52789  -0.52705  -0.52585  -0.52412  -0.52304
 Alpha  occ. eigenvalues --   -0.52267  -0.52081  -0.51803  -0.51572  -0.51427
 Alpha  occ. eigenvalues --   -0.51127  -0.51071  -0.50706  -0.50391  -0.50088
 Alpha  occ. eigenvalues --   -0.49896  -0.49784  -0.49647  -0.49417  -0.49399
 Alpha  occ. eigenvalues --   -0.49110  -0.49043  -0.49009  -0.48695  -0.48595
 Alpha  occ. eigenvalues --   -0.48470  -0.48300  -0.48260  -0.48118  -0.48008
 Alpha  occ. eigenvalues --   -0.47964  -0.47511  -0.47210  -0.47029  -0.46807
 Alpha  occ. eigenvalues --   -0.46618  -0.46468  -0.46322  -0.46178  -0.46020
 Alpha  occ. eigenvalues --   -0.45986  -0.45856  -0.45737  -0.45678  -0.45337
 Alpha  occ. eigenvalues --   -0.45122  -0.44796  -0.44436  -0.44395  -0.44094
 Alpha  occ. eigenvalues --   -0.44060  -0.44051  -0.43989  -0.43862  -0.43711
 Alpha  occ. eigenvalues --   -0.43590  -0.43516  -0.43466  -0.43299  -0.43002
 Alpha  occ. eigenvalues --   -0.42883  -0.42838  -0.42807  -0.42542  -0.42462
 Alpha  occ. eigenvalues --   -0.42304  -0.42162  -0.41874  -0.41603  -0.41576
 Alpha  occ. eigenvalues --   -0.41371  -0.41196  -0.41032  -0.40913  -0.40651
 Alpha  occ. eigenvalues --   -0.40636  -0.40612  -0.40416  -0.40405  -0.40361
 Alpha  occ. eigenvalues --   -0.40135  -0.40134  -0.39631  -0.39327  -0.39129
 Alpha  occ. eigenvalues --   -0.38260  -0.38054  -0.37561  -0.37229  -0.37171
 Alpha  occ. eigenvalues --   -0.37108  -0.36858  -0.36704  -0.36636  -0.36191
 Alpha  occ. eigenvalues --   -0.36106  -0.35674  -0.34158  -0.33737  -0.33673
 Alpha  occ. eigenvalues --   -0.33144  -0.33074  -0.32631  -0.31188  -0.30909
 Alpha  occ. eigenvalues --   -0.30879  -0.30495  -0.29935  -0.29503  -0.29242
 Alpha  occ. eigenvalues --   -0.29130  -0.28900  -0.28771  -0.23941  -0.23518
 Alpha  occ. eigenvalues --   -0.21027  -0.20581
 Alpha virt. eigenvalues --   -0.08706  -0.08226  -0.01590  -0.01218   0.00052
 Alpha virt. eigenvalues --    0.00472   0.02268   0.02713   0.03383   0.03663
 Alpha virt. eigenvalues --    0.04813   0.05165   0.05323   0.05685   0.06181

 Mulliken charges:
               1
     1  Mg   0.842385
     2  C    0.000460
     3  C   -0.089510
     4  C   -0.047618
     5  C   -0.065247
     6  N   -0.256337
     7  C   -0.049916
     8  C   -0.015711
     9  C   -0.088520
    10  C    0.050018
    11  C    0.105168
    12  C    0.052198
    13  C   -0.069730
    14  H    0.027635
    15  N   -0.433466
    16  C    0.174136
    17  C   -0.174730
    18  C   -0.004029
    19  C    0.147961
    20  C    0.110996
    21  C    0.011433
    22  O   -0.252166
    23  C    0.062072
    24  N   -0.340856
    25  C    0.040964
    26  C   -0.027642
    27  C   -0.023673
    28  C    0.074299
    29  C    0.076642
    30  C    0.035801
    31  C   -0.004721
    32  N   -0.310571
    33  C    0.080663
    34  C   -0.170505
    35  C    0.007744
    36  C    0.084490
    37  C    0.127397
    38  C    0.046775
    39  O   -0.189988
    40  C   -0.006180
    41  C    0.211112
    42  O   -0.251454
    43  O   -0.305816
    44  C    0.158395
    45  H   -0.019051
    46  H   -0.019086
    47  H   -0.043325
    48  H   -0.000896
    49  H   -0.003824
    50  H    0.024665
    51  H    0.015839
    52  H    0.015231
    53  H    0.020409
    54  H    0.049003
    55  H    0.016567
    56  H    0.017613
    57  H    0.005886
    58  H    0.024530
    59  H    0.041958
    60  H    0.036910
    61  H    0.033419
    62  H    0.033368
    63  H    0.014323
    64  H    0.008716
    65  H    0.021787
    66  H    0.012757
    67  H    0.003993
    68  H    0.004845
    69  H    0.004632
    70  H    0.005955
    71  H    0.016074
    72  H    0.031070
    73  H    0.047057
    74  H    0.007884
    75  H    0.044828
    76  H    0.033664
    77  H    0.041123
    78  H    0.044733
    79  H    0.054360
    80  Mg   0.839155
    81  C   -0.015918
    82  C   -0.087850
    83  C   -0.045488
    84  C   -0.064988
    85  N   -0.254570
    86  C   -0.049753
    87  C   -0.015192
    88  C   -0.090556
    89  C    0.046011
    90  C    0.114540
    91  C    0.062382
    92  C   -0.077724
    93  H    0.035060
    94  N   -0.423411
    95  C    0.163175
    96  C   -0.174691
    97  C   -0.007764
    98  C    0.152229
    99  C    0.099454
   100  C    0.015662
   101  O   -0.253262
   102  C    0.061135
   103  N   -0.350120
   104  C    0.037540
   105  C   -0.019804
   106  C   -0.034867
   107  C    0.088907
   108  C    0.073715
   109  C    0.034581
   110  C   -0.007544
   111  N   -0.324179
   112  C    0.078615
   113  C   -0.164020
   114  C    0.001039
   115  C    0.097677
   116  C    0.130876
   117  C    0.044242
   118  O   -0.190486
   119  C    0.000538
   120  C    0.209546
   121  O   -0.244872
   122  O   -0.307165
   123  C    0.151027
   124  H   -0.019983
   125  H   -0.015678
   126  H   -0.039750
   127  H   -0.001471
   128  H   -0.004360
   129  H    0.021816
   130  H    0.014346
   131  H    0.015904
   132  H    0.014315
   133  H    0.039488
   134  H    0.019814
   135  H    0.019439
   136  H    0.008617
   137  H    0.025871
   138  H    0.039949
   139  H    0.038048
   140  H    0.036299
   141  H    0.034147
   142  H    0.014395
   143  H    0.012576
   144  H    0.024968
   145  H    0.011416
   146  H    0.005654
   147  H    0.005863
   148  H    0.004098
   149  H    0.010768
   150  H    0.017493
   151  H    0.030894
   152  H    0.047675
   153  H    0.011199
   154  H    0.045827
   155  H    0.033274
   156  H    0.040465
   157  H    0.049079
   158  H    0.057286
 Sum of Mulliken charges =  -0.00000

 Dipole moment (field-independent basis, Debye):
    X=             -2.1112    Y=              2.7450    Z=              5.1076  Tot=              6.1709
 Quadrupole moment (field-independent basis, Debye-Ang):
   XX=           -471.8910   YY=           -470.4220   ZZ=           -521.6189
   XY=            -27.0190   XZ=              9.2439   YZ=             32.4613

 Normal termination of Gaussian 16 at Fri Sep 10 17:12:54 2021.
