 Gaussian 16, Revision A.03,
 Gaussian 16:  ES64L-G16RevA.03 25-Dec-2016

 -----------------------------------
 #p cam-b3lyp/Def2SVP td=(nstates=5)
 -----------------------------------

 --------------------------------
 TDDFT excited states in gaussian
 --------------------------------
 Symbolic Z-matrix:
 Charge =  0 Multiplicity = 1

                         Standard orientation:
 ---------------------------------------------------------------------
 Center     Atomic      Atomic             Coordinates (Angstroms)
 Number     Number       Type             X           Y           Z
 ---------------------------------------------------------------------
      1         12           0       -4.061820    0.289862    0.468273
      2          6           0       -3.242416    3.634564    1.444880
      3          6           0       -5.052595    1.568532   -2.536129
      4          6           0       -5.212210   -2.576861   -0.249448
      5          6           0       -4.083708   -0.536003    3.853998
      6          7           0       -4.093150    2.355906   -0.326163
      7          6           0       -3.695933    3.540731    0.127244
      8          6           0       -3.735677    4.661218   -0.954562
      9          6           0       -4.826959    4.030109   -1.930678
     10          6           0       -4.622740    2.560868   -1.605793
     11          6           0       -6.258853    4.417308   -1.575350
     12          6           0       -2.357423    4.840592   -1.675652
     13          6           0       -2.216482    6.118961   -2.507074
     14          1           0       -0.922445    6.782500   -2.557380
     15          7           0       -4.537204   -0.499076   -1.279421
     16          6           0       -4.899542    0.171862   -2.399171
     17          6           0       -5.152164   -0.859385   -3.428439
     18          6           0       -5.091348   -2.190567   -2.763346
     19          6           0       -4.968890   -1.802517   -1.381391
     20          6           0       -5.367567   -0.541421   -4.876282
     21          6           0       -5.146976   -3.590210   -3.288738
     22          8           0       -5.310438   -4.599069   -2.520586
     23          6           0       -5.093125   -3.744586   -4.753767
     24          7           0       -4.792560   -1.279735    1.634471
     25          6           0       -5.173510   -2.434323    1.076987
     26          6           0       -5.387961   -3.496757    2.113897
     27          6           0       -4.836814   -2.893288    3.485690
     28          6           0       -4.455070   -1.478546    2.984646
     29          6           0       -6.838335   -3.960721    2.306681
     30          6           0       -3.766742   -3.722578    4.239110
     31          6           0       -2.483679   -3.752541    3.439142
     32          7           0       -3.556171    1.288847    2.327680
     33          6           0       -3.663108    0.763148    3.623396
     34          6           0       -3.309953    1.846214    4.559514
     35          6           0       -3.036385    2.938529    3.738628
     36          6           0       -3.233226    2.569053    2.377367
     37          6           0       -3.328805    1.759503    5.979571
     38          6           0       -2.647434    4.338803    3.696137
     39          8           0       -2.260503    5.157056    4.531744
     40          6           0       -2.883198    4.879662    2.217044
     41          6           0       -1.646192    5.630222    1.804993
     42          8           0       -0.562513    5.034477    1.637387
     43          8           0       -1.982759    6.878225    1.444781
     44          6           0       -0.804715    7.667853    0.996614
     45          1           0       -5.609161    1.881188   -3.421805
     46          1           0       -5.504493   -3.608286   -0.457225
     47          1           0       -3.986573   -0.743442    4.921231
     48          1           0       -4.076891    5.631060   -0.592066
     49          1           0       -4.595669    4.222271   -2.978199
     50          1           0       -6.302242    4.959523   -0.630871
     51          1           0       -6.804502    3.476548   -1.499655
     52          1           0       -6.724921    4.969142   -2.392074
     53          1           0       -2.265050    4.094722   -2.465086
     54          1           0       -1.537018    4.784100   -0.959362
     55          1           0       -3.004317    6.835515   -2.273031
     56          1           0       -2.383093    5.865540   -3.554078
     57          1           0       -5.522718    0.525267   -5.033285
     58          1           0       -6.313486   -0.998949   -5.165443
     59          1           0       -4.565089   -0.927482   -5.505026
     60          1           0       -5.926803   -3.204809   -5.203402
     61          1           0       -5.054378   -4.816943   -4.941913
     62          1           0       -4.184501   -3.270176   -5.125637
     63          1           0       -4.828822   -4.399278    1.870492
     64          1           0       -5.630910   -2.754334    4.219704
     65          1           0       -6.977328   -5.032998    2.166655
     66          1           0       -7.467776   -3.392179    1.622683
     67          1           0       -7.276703   -3.702172    3.270217
     68          1           0       -4.097696   -4.754264    4.353297
     69          1           0       -3.542324   -3.334374    5.232682
     70          1           0       -2.656221   -4.563616    2.732589
     71          1           0       -1.635808   -3.973949    4.088222
     72          1           0       -2.354134   -2.837993    2.860085
     73          1           0       -2.419600    2.249875    6.327206
     74          1           0       -3.371748    0.722700    6.312435
     75          1           0       -4.243608    2.308103    6.203246
     76          1           0       -3.760031    5.525272    2.255405
     77          1           0       -0.770918    8.569324    1.608530
     78          1           0       -0.906752    7.791768   -0.081644
     79          1           0        0.174039    7.237058    1.210609
     80         12           0        3.540545   -1.741330   -0.600816
     81          6           0        5.717839    1.073742   -0.138342
     82          6           0        1.626437    0.256541   -2.595628
     83          6           0        1.370520   -4.055205   -0.666832
     84          6           0        4.952009   -3.127931    2.268126
     85          7           0        3.749318    0.373923   -1.212701
     86          6           0        4.650048    1.326612   -1.024528
     87          6           0        4.435876    2.594939   -1.893453
     88          6           0        2.859289    2.441962   -2.157728
     89          6           0        2.733713    0.926388   -2.016529
     90          6           0        2.003159    3.094178   -1.084874
     91          6           0        5.250371    2.545841   -3.233677
     92          6           0        5.333417    3.876469   -3.984860
     93          1           0        6.563454    4.193469   -4.705270
     94          7           0        2.038586   -2.057893   -1.858775
     95          6           0        1.394155   -1.136400   -2.604981
     96          6           0        0.356443   -1.871649   -3.344390
     97          6           0        0.333342   -3.275037   -2.849730
     98          6           0        1.252460   -3.176314   -1.733678
     99          6           0       -0.437870   -1.256817   -4.459953
    100          6           0       -0.404859   -4.499889   -3.298043
    101          8           0       -0.456075   -5.557370   -2.575575
    102          6           0       -1.143709   -4.393187   -4.564624
    103          7           0        3.056289   -3.258715    0.735359
    104          6           0        2.106380   -4.163215    0.439585
    105          6           0        2.123693   -5.312549    1.418941
    106          6           0        3.446348   -5.110628    2.294961
    107          6           0        3.939502   -3.771732    1.703747
    108          6           0        0.911575   -5.416297    2.344350
    109          6           0        4.439996   -6.303028    2.354353
    110          6           0        5.067222   -6.520309    0.996132
    111          7           0        5.179574   -1.251548    0.718941
    112          6           0        5.581976   -1.953674    1.876167
    113          6           0        6.668469   -1.173328    2.503083
    114          6           0        6.808248   -0.050761    1.673139
    115          6           0        5.861113   -0.116058    0.615706
    116          6           0        7.343671   -1.508573    3.710490
    117          6           0        7.534502    1.179922    1.457116
    118          8           0        8.509908    1.716406    1.981029
    119          6           0        6.775758    2.026057    0.345918
    120          6           0        7.795924    2.505393   -0.650079
    121          8           0        8.411450    1.694525   -1.364391
    122          8           0        7.720109    3.845147   -0.748422
    123          6           0        8.705327    4.366901   -1.732767
    124          1           0        0.837404    0.856006   -3.050554
    125          1           0        0.717893   -4.930579   -0.702635
    126          1           0        5.510283   -3.542046    3.110448
    127          1           0        4.639013    3.531455   -1.388029
    128          1           0        2.595475    2.754251   -3.164819
    129          1           0        2.597601    3.451962   -0.257357
    130          1           0        1.314135    2.328706   -0.752674
    131          1           0        1.387107    3.884613   -1.523058
    132          1           0        4.694691    1.949475   -3.968736
    133          1           0        6.238407    2.163671   -3.065271
    134          1           0        5.025499    4.722977   -3.359115
    135          1           0        4.601860    3.863044   -4.796439
    136          1           0       -0.317879   -0.166709   -4.485856
    137          1           0       -1.495941   -1.407991   -4.220174
    138          1           0       -0.226358   -1.713616   -5.429108
    139          1           0       -1.872763   -3.589765   -4.490828
    140          1           0       -1.531600   -5.394438   -4.761903
    141          1           0       -0.441522   -4.109243   -5.356410
    142          1           0        2.186995   -6.261423    0.900558
    143          1           0        3.209721   -4.919240    3.351948
    144          1           0        0.391918   -6.390608    2.275380
    145          1           0        0.233468   -4.606279    2.110755
    146          1           0        1.120030   -5.246161    3.399253
    147          1           0        3.909839   -7.225775    2.602602
    148          1           0        5.225355   -6.174500    3.091709
    149          1           0        4.318846   -7.122390    0.472188
    150          1           0        6.009409   -7.056388    1.090627
    151          1           0        5.167635   -5.573441    0.452983
    152          1           0        8.396830   -1.330880    3.537928
    153          1           0        7.155714   -2.541037    3.997640
    154          1           0        6.876070   -0.799453    4.398800
    155          1           0        6.274943    2.853778    0.849552
    156          1           0        9.313942    5.112121   -1.211325
    157          1           0        8.108437    4.718211   -2.595342
    158          1           0        9.467210    3.683737   -2.089552
 ---------------------------------------------------------------------

 SCF Done:  E(RCAM-B3LYP) =  -4069.81195995     A.U. after   19 cycles

 Excitation energies and oscillator strengths:

 Excited State   1:      Singlet-A      1.6267 eV  762.20 nm  f=0.0959  <S**2>=0.000
     309 -> 315       -0.11320
     310 -> 316        0.11571
     311 -> 313       -0.47965
     312 -> 314        0.49392
 This state for optimization and/or second-order correction.
 Total Energy, E(TD-HF/TD-DFT) =  -4069.75218106
 Copying the excited state density for this state as the 1-particle RhoCI density.

 Excited State   2:      Singlet-A      1.7108 eV  724.71 nm  f=0.6136  <S**2>=0.000
     309 -> 315        0.13294
     310 -> 316        0.12643
     311 -> 313        0.49022
     312 -> 314        0.47627

 Excited State   3:      Singlet-A      2.1656 eV  572.52 nm  f=0.0002  <S**2>=0.000
     312 -> 313        0.70520

 Excited State   4:      Singlet-A      2.1755 eV  569.92 nm  f=0.0034  <S**2>=0.000
     309 -> 313        0.39473
     310 -> 314        0.51162
     311 -> 315       -0.16112
     312 -> 316       -0.20830

 Excited State   5:      Singlet-A      2.1962 eV  564.53 nm  f=0.1633  <S**2>=0.000
     309 -> 313        0.50599
     310 -> 314       -0.38820
     311 -> 315       -0.22489
     312 -> 316        0.17128

 The electronic state is 1-A.
 Alpha  occ. eigenvalues --  -46.88049 -46.87407 -19.26646 -19.26130 -19.19414
 Alpha  occ. eigenvalues --  -19.19016 -19.18938 -19.18481 -19.18435 -19.17801
 Alpha  occ. eigenvalues --  -14.42732 -14.42212 -14.41689 -14.41120 -14.39666
 Alpha  occ. eigenvalues --  -14.39111 -14.38845 -14.38343 -10.39452 -10.38861
 Alpha  occ. eigenvalues --  -10.35652 -10.35176 -10.34660 -10.33973 -10.32040
 Alpha  occ. eigenvalues --  -10.31698 -10.31574 -10.31231 -10.31008 -10.30856
 Alpha  occ. eigenvalues --  -10.30747 -10.30737 -10.30445 -10.30157 -10.30123
 Alpha  occ. eigenvalues --  -10.30113 -10.29921 -10.29920 -10.29662 -10.29524
 Alpha  occ. eigenvalues --  -10.29200 -10.29184 -10.29152 -10.29090 -10.28651
 Alpha  occ. eigenvalues --  -10.28483 -10.28469 -10.28365 -10.28149 -10.28066
 Alpha  occ. eigenvalues --  -10.28010 -10.27892 -10.27853 -10.27759 -10.27685
 Alpha  occ. eigenvalues --  -10.27678 -10.27653 -10.27559 -10.27459 -10.27403
 Alpha  occ. eigenvalues --  -10.27376 -10.27346 -10.27273 -10.27256 -10.27217
 Alpha  occ. eigenvalues --  -10.27196 -10.26770 -10.26719 -10.26531 -10.26451
 Alpha  occ. eigenvalues --  -10.26375 -10.26303 -10.26267 -10.26053 -10.25993
 Alpha  occ. eigenvalues --  -10.25704 -10.25623 -10.25533 -10.25247 -10.25192
 Alpha  occ. eigenvalues --  -10.25101 -10.24999 -10.24771 -10.24624 -10.24587
 Alpha  occ. eigenvalues --  -10.24450  -3.16790  -3.16156  -1.91671  -1.91259
 Alpha  occ. eigenvalues --   -1.91101  -1.91038  -1.90627  -1.90464  -1.16997
 Alpha  occ. eigenvalues --   -1.16423  -1.08896  -1.08407  -1.07396  -1.07017
 Alpha  occ. eigenvalues --   -1.06722  -1.06717  -1.04872  -1.04213  -1.04009
 Alpha  occ. eigenvalues --   -1.03491  -1.03410  -1.02800  -1.02665  -1.01862
 Alpha  occ. eigenvalues --   -0.92254  -0.91721  -0.89725  -0.89557  -0.89284
 Alpha  occ. eigenvalues --   -0.88766  -0.88472  -0.88126  -0.88021  -0.87971
 Alpha  occ. eigenvalues --   -0.87583  -0.87551  -0.87430  -0.86944  -0.85336
 Alpha  occ. eigenvalues --   -0.84688  -0.84117  -0.83690  -0.83240  -0.82969
 Alpha  occ. eigenvalues --   -0.82782  -0.82370  -0.81891  -0.81361  -0.80890
 Alpha  occ. eigenvalues --   -0.80211  -0.79084  -0.78433  -0.77516  -0.77234
 Alpha  occ. eigenvalues --   -0.76898  -0.76621  -0.76231  -0.75497  -0.75100
 Alpha  occ. eigenvalues --   -0.74588  -0.73031  -0.72450  -0.71929  -0.71289
 Alpha  occ. eigenvalues --   -0.70070  -0.69567  -0.69206  -0.68530  -0.67917
 Alpha  occ. eigenvalues --   -0.67606  -0.67377  -0.66975  -0.65634  -0.65129
 Alpha  occ. eigenvalues --   -0.64979  -0.64904  -0.64524  -0.64475  -0.64392
 Alpha  occ. eigenvalues --   -0.63989  -0.62596  -0.62055  -0.60699  -0.60166
 Alpha  occ. eigenvalues --   -0.60134  -0.59468  -0.59244  -0.58768  -0.58749
 Alpha  occ. eigenvalues --   -0.58186  -0.57887  -0.57545  -0.57303  -0.57036
 Alpha  occ. eigenvalues --   -0.56588  -0.56318  -0.55978  -0.55802  -0.55664
 Alpha  occ. eigenvalues --   -0.55564  -0.55253  -0.55042  -0.54775  -0.54287
 Alpha  occ. eigenvalues --   -0.54266  -0.53673  -0.53561  -0.53523  -0.53258
 Alpha  occ. eigenvalues --   -0.53168  -0.53011  -0.52884  -0.52634  -0.52589
 Alpha  occ. eigenvalues --   -0.52377  -0.52225  -0.52150  -0.51975  -0.51649
 Alpha  occ. eigenvalues --   -0.51465  -0.51409  -0.50977  -0.50897  -0.50418
 Alpha  occ. eigenvalues --   -0.50242  -0.50157  -0.49827  -0.49748  -0.49633
 Alpha  occ. eigenvalues --   -0.49467  -0.49404  -0.49202  -0.48939  -0.48886
 Alpha  occ. eigenvalues --   -0.48724  -0.48677  -0.48649  -0.48267  -0.48184
 Alpha  occ. eigenvalues --   -0.48106  -0.47978  -0.47559  -0.47345  -0.47069
 Alpha  occ. eigenvalues --   -0.46928  -0.46888  -0.46620  -0.46465  -0.46404
 Alpha  occ. eigenvalues --   -0.46238  -0.46107  -0.46054  -0.45869  -0.45566
 Alpha  occ. eigenvalues --   -0.45410  -0.44986  -0.44863  -0.44791  -0.44422
 Alpha  occ. eigenvalues --   -0.44373  -0.44299  -0.44279  -0.44195  -0.43887
 Alpha  occ. eigenvalues --   -0.43796  -0.43754  -0.43714  -0.43670  -0.43319
 Alpha  occ. eigenvalues --   -0.43284  -0.43107  -0.43012  -0.42835  -0.42704
 Alpha  occ. eigenvalues --   -0.42646  -0.42358  -0.42248  -0.41981  -0.41854
 Alpha  occ. eigenvalues --   -0.41743  -0.41410  -0.41404  -0.41208  -0.41188
 Alpha  occ. eigenvalues --   -0.41102  -0.40771  -0.40693  -0.40657  -0.40465
 Alpha  occ. eigenvalues --   -0.40414  -0.40233  -0.39964  -0.39571  -0.39232
 Alpha  occ. eigenvalues --   -0.38686  -0.38163  -0.38132  -0.37601  -0.37538
 Alpha  occ. eigenvalues --   -0.37402  -0.37042  -0.37026  -0.36914  -0.36557
 Alpha  occ. eigenvalues --   -0.36457  -0.35975  -0.34549  -0.34131  -0.33994
 Alpha  occ. eigenvalues --   -0.33634  -0.33453  -0.32928  -0.31535  -0.31291
 Alpha  occ. eigenvalues --   -0.31031  -0.30709  -0.30296  -0.29734  -0.29702
 Alpha  occ. eigenvalues --   -0.29585  -0.29096  -0.28962  -0.24339  -0.23780
 Alpha  occ. eigenvalues --   -0.21398  -0.20864
 Alpha virt. eigenvalues --   -0.09048  -0.08548  -0.02003  -0.01449  -0.00353
 Alpha virt. eigenvalues --    0.00212   0.01940   0.02310   0.02545   0.03552
 Alpha virt. eigenvalues --    0.04341   0.04651   0.04986   0.05392   0.05652

 Mulliken charges:
               1
     1  Mg   0.838428
     2  C   -0.003928
     3  C   -0.096978
     4  C   -0.042642
     5  C   -0.063283
     6  N   -0.256718
     7  C   -0.053790
     8  C   -0.012902
     9  C   -0.086318
    10  C    0.045253
    11  C    0.104725
    12  C    0.047932
    13  C   -0.071965
    14  H    0.034158
    15  N   -0.432785
    16  C    0.166905
    17  C   -0.179609
    18  C   -0.008993
    19  C    0.152220
    20  C    0.109724
    21  C    0.012394
    22  O   -0.243206
    23  C    0.064384
    24  N   -0.341075
    25  C    0.040668
    26  C   -0.029205
    27  C   -0.025250
    28  C    0.075428
    29  C    0.075838
    30  C    0.046807
    31  C   -0.023339
    32  N   -0.310859
    33  C    0.081113
    34  C   -0.168945
    35  C    0.008618
    36  C    0.083526
    37  C    0.127185
    38  C    0.046520
    39  O   -0.187457
    40  C   -0.005923
    41  C    0.213395
    42  O   -0.258609
    43  O   -0.304339
    44  C    0.157249
    45  H   -0.017720
    46  H   -0.014374
    47  H   -0.040720
    48  H    0.001712
    49  H   -0.005098
    50  H    0.025954
    51  H    0.017235
    52  H    0.017022
    53  H    0.007483
    54  H    0.047536
    55  H    0.020317
    56  H    0.017868
    57  H    0.005878
    58  H    0.028266
    59  H    0.035403
    60  H    0.036673
    61  H    0.039913
    62  H    0.022360
    63  H    0.020046
    64  H    0.009841
    65  H    0.024472
    66  H    0.012260
    67  H    0.004770
    68  H    0.006367
    69  H    0.002857
    70  H    0.016795
    71  H    0.019938
    72  H    0.031655
    73  H    0.048269
    74  H    0.009657
    75  H    0.046552
    76  H    0.035706
    77  H    0.044565
    78  H    0.045585
    79  H    0.053243
    80  Mg   0.838254
    81  C   -0.016513
    82  C   -0.089698
    83  C   -0.046203
    84  C   -0.065022
    85  N   -0.255045
    86  C   -0.047217
    87  C   -0.015049
    88  C   -0.092934
    89  C    0.048152
    90  C    0.117236
    91  C    0.062815
    92  C   -0.076839
    93  H    0.033316
    94  N   -0.423325
    95  C    0.162271
    96  C   -0.174431
    97  C   -0.007760
    98  C    0.150067
    99  C    0.097588
   100  C    0.018674
   101  O   -0.249941
   102  C    0.057284
   103  N   -0.349989
   104  C    0.036103
   105  C   -0.017029
   106  C   -0.035218
   107  C    0.089135
   108  C    0.066813
   109  C    0.034848
   110  C   -0.007404
   111  N   -0.324294
   112  C    0.079015
   113  C   -0.163026
   114  C    0.002800
   115  C    0.096517
   116  C    0.131271
   117  C    0.042664
   118  O   -0.188140
   119  C    0.000697
   120  C    0.210963
   121  O   -0.251694
   122  O   -0.305105
   123  C    0.152355
   124  H   -0.019966
   125  H   -0.015027
   126  H   -0.041087
   127  H   -0.000004
   128  H   -0.008121
   129  H    0.028808
   130  H    0.019016
   131  H    0.016164
   132  H    0.012899
   133  H    0.037028
   134  H    0.020683
   135  H    0.018244
   136  H    0.006989
   137  H    0.028703
   138  H    0.036470
   139  H    0.034043
   140  H    0.039373
   141  H    0.032092
   142  H    0.013705
   143  H    0.011599
   144  H    0.024001
   145  H    0.018106
   146  H    0.004699
   147  H    0.005493
   148  H    0.003352
   149  H    0.010807
   150  H    0.017460
   151  H    0.030433
   152  H    0.045490
   153  H    0.007822
   154  H    0.047880
   155  H    0.037591
   156  H    0.043547
   157  H    0.049048
   158  H    0.053062
 Sum of Mulliken charges =  -0.00000

 Dipole moment (field-independent basis, Debye):
    X=             -6.5507    Y=              1.7629    Z=             -4.8531  Tot=              8.3410
 Quadrupole moment (field-independent basis, Debye-Ang):
   XX=           -545.1833   YY=           -506.6515   ZZ=           -479.6376
   XY=            -17.7124   XZ=              2.5898   YZ=            -58.7185

 Normal termination of Gaussian 16 at Thu Sep  9 07:59:37 2021.
