 Gaussian 16, Revision A.03,
 Gaussian 16:  ES64L-G16RevA.03 25-Dec-2016

 -----------------------------------
 #p cam-b3lyp/Def2SVP td=(nstates=5)
 -----------------------------------

 --------------------------------
 TDDFT excited states in gaussian
 --------------------------------
 Symbolic Z-matrix:
 Charge =  0 Multiplicity = 1

                         Standard orientation:
 ---------------------------------------------------------------------
 Center     Atomic      Atomic             Coordinates (Angstroms)
 Number     Number       Type             X           Y           Z
 ---------------------------------------------------------------------
      1         12           0      -15.597394   -0.888901    0.302629
      2          6           0      -15.846409    2.662692   -0.066679
      3          6           0      -16.504058   -1.144043   -2.976995
      4          6           0      -15.826758   -4.023810    0.722582
      5          6           0      -15.828350   -0.398918    3.745336
      6          7           0      -16.084970    0.638166   -1.224127
      7          6           0      -16.084905    1.967177   -1.254123
      8          6           0      -16.287657    2.552900   -2.683526
      9          6           0      -17.032894    1.315872   -3.359087
     10          6           0      -16.481824    0.197443   -2.492275
     11          6           0      -18.549398    1.357961   -3.201148
     12          6           0      -14.928894    2.862562   -3.397393
     13          6           0      -15.034084    3.732371   -4.653467
     14          1           0      -13.972701    4.687116   -4.935024
     15          7           0      -15.613441   -2.360326   -1.015515
     16          6           0      -15.997382   -2.281739   -2.312319
     17          6           0      -15.827312   -3.640369   -2.870784
     18          6           0      -15.494023   -4.556656   -1.744982
     19          6           0      -15.659292   -3.677148   -0.616032
     20          6           0      -15.933457   -3.948223   -4.332875
     21          6           0      -15.100795   -5.999186   -1.693879
     22          8           0      -15.081967   -6.660696   -0.599976
     23          6           0      -14.819948   -6.649718   -2.986541
     24          7           0      -16.018945   -2.071086    1.970672
     25          6           0      -15.998345   -3.406212    1.893213
     26          6           0      -16.048085   -4.032984    3.255057
     27          6           0      -15.861380   -2.838716    4.298426
     28          6           0      -15.816072   -1.656867    3.298702
     29          6           0      -17.330918   -4.806726    3.589234
     30          6           0      -14.712400   -2.977982    5.328410
     31          6           0      -13.377668   -2.910169    4.620603
     32          7           0      -15.623659    0.817460    1.643779
     33          6           0      -15.749314    0.790406    3.040258
     34          6           0      -15.825566    2.191140    3.494348
     35          6           0      -15.755188    2.940182    2.321390
     36          6           0      -15.668567    2.062310    1.203298
     37          6           0      -16.001979    2.623017    4.838518
     38          6           0      -15.757826    4.277413    1.750722
     39          8           0      -15.717271    5.418073    2.214124
     40          6           0      -15.939750    4.148940    0.173945
     41          6           0      -14.910005    5.032496   -0.475873
     42          8           0      -13.693301    4.770071   -0.385709
     43          8           0      -15.522913    5.903219   -1.292407
     44          6           0      -14.555374    6.790553   -1.991450
     45          1           0      -17.006275   -1.355141   -3.923122
     46          1           0      -15.799711   -5.097076    0.922096
     47          1           0      -15.816214   -0.166652    4.811806
     48          1           0      -16.922254    3.438280   -2.726099
     49          1           0      -16.730075    1.175512   -4.396546
     50          1           0      -18.858603    2.165589   -2.537785
     51          1           0      -18.824945    0.391557   -2.778500
     52          1           0      -19.038871    1.410058   -4.174019
     53          1           0      -14.537669    1.945917   -3.838715
     54          1           0      -14.222621    3.317434   -2.701982
     55          1           0      -16.009752    4.214014   -4.724185
     56          1           0      -14.990302    3.079766   -5.525470
     57          1           0      -16.350213   -3.109738   -4.889474
     58          1           0      -16.675008   -4.739830   -4.438562
     59          1           0      -14.982750   -4.276590   -4.753188
     60          1           0      -15.703908   -6.585356   -3.621380
     61          1           0      -14.468503   -7.652979   -2.748207
     62          1           0      -14.033876   -6.093662   -3.498245
     63          1           0      -15.239055   -4.750619    3.385042
     64          1           0      -16.750663   -2.687894    4.910883
     65          1           0      -17.155236   -5.845673    3.869290
     66          1           0      -17.997788   -4.740708    2.730039
     67          1           0      -17.942594   -4.360805    4.373086
     68          1           0      -14.763420   -3.946496    5.824721
     69          1           0      -14.730681   -2.208431    6.100232
     70          1           0      -13.232153   -3.933634    4.276835
     71          1           0      -12.591924   -2.617009    5.317650
     72          1           0      -13.427540   -2.273616    3.736975
     73          1           0      -15.311841    3.453806    4.985042
     74          1           0      -15.804840    1.815315    5.543045
     75          1           0      -17.051977    2.914641    4.820760
     76          1           0      -16.956053    4.470485   -0.051572
     77          1           0      -14.845618    7.818057   -1.771840
     78          1           0      -14.548157    6.479089   -3.036124
     79          1           0      -13.532325    6.780507   -1.613815
     80         12           0       16.150771   -0.504496   -0.040343
     81          6           0       14.422172    2.638147    0.081507
     82          6           0       14.027604   -1.404962   -2.553485
     83          6           0       17.351506   -3.436495    0.130075
     84          6           0       17.340950    0.184013    3.162021
     85          7           0       14.482277    0.565190   -1.022259
     86          6           0       13.956467    1.777695   -0.934450
     87          6           0       12.926585    2.114181   -2.046065
     88          6           0       12.484728    0.617632   -2.425499
     89          6           0       13.753284   -0.124532   -2.010019
     90          6           0       11.330649    0.099174   -1.583696
     91          6           0       13.584069    2.846301   -3.268252
     92          6           0       12.593201    3.478209   -4.248378
     93          1           0       12.959717    4.735026   -4.895326
     94          7           0       16.096618   -1.992698   -1.352167
     95          6           0       15.176175   -2.192356   -2.318704
     96          6           0       15.570925   -3.435205   -2.999642
     97          6           0       16.705417   -4.040537   -2.250504
     98          6           0       16.749236   -3.171919   -1.091335
     99          6           0       14.941976   -3.895124   -4.282733
    100          6           0       17.594427   -5.215497   -2.524947
    101          8           0       18.361053   -5.705233   -1.622022
    102          6           0       17.472395   -5.833815   -3.853211
    103          7           0       17.021604   -1.583661    1.508659
    104          6           0       17.507684   -2.820134    1.301834
    105          6           0       18.328841   -3.287537    2.479811
    106          6           0       18.494404   -2.006908    3.423284
    107          6           0       17.627071   -0.999481    2.637009
    108          6           0       17.735948   -4.441533    3.287999
    109          6           0       19.943098   -1.595766    3.803933
    110          6           0       20.678780   -1.103548    2.578421
    111          7           0       16.092683    1.179629    1.311847
    112          6           0       16.632737    1.246310    2.614914
    113          6           0       16.241483    2.553123    3.182005
    114          6           0       15.475485    3.151281    2.170093
    115          6           0       15.378127    2.270507    1.059129
    116          6           0       16.553988    3.019475    4.490044
    117          6           0       14.718239    4.323153    1.793270
    118          8           0       14.521360    5.428826    2.295715
    119          6           0       13.896770    3.991209    0.473647
    120          6           0       14.093117    5.126313   -0.493572
    121          8           0       15.215114    5.357206   -0.977756
    122          8           0       12.890891    5.612062   -0.852815
    123          6           0       13.032938    6.732789   -1.820092
    124          1           0       13.273495   -1.871786   -3.187745
    125          1           0       17.875813   -4.392363    0.200020
    126          1           0       17.754533    0.514242    4.117305
    127          1           0       12.066757    2.682294   -1.711824
    128          1           0       12.315465    0.514718   -3.494198
    129          1           0       11.074751    0.781624   -0.786880
    130          1           0       11.663936   -0.847377   -1.178698
    131          1           0       10.472561   -0.131338   -2.221576
    132          1           0       14.048210    2.099724   -3.925474
    133          1           0       14.285949    3.586491   -2.936433
    134          1           0       11.582166    3.542828   -3.828164
    135          1           0       12.483957    2.813165   -5.108492
    136          1           0       14.025333   -3.334914   -4.504837
    137          1           0       14.599607   -4.922912   -4.120593
    138          1           0       15.640559   -3.883599   -5.122081
    139          1           0       16.448031   -6.165977   -4.004195
    140          1           0       18.249752   -6.599398   -3.891700
    141          1           0       17.671150   -5.070676   -4.613964
    142          1           0       19.309661   -3.618083    2.160686
    143          1           0       18.003241   -2.151761    4.396741
    144          1           0       18.408910   -5.316987    3.357143
    145          1           0       16.791808   -4.722093    2.840334
    146          1           0       17.443264   -4.189925    4.305959
    147          1           0       20.498259   -2.462017    4.172128
    148          1           0       19.987381   -0.833547    4.574682
    149          1           0       21.025425   -2.029639    2.110146
    150          1           0       21.515012   -0.468147    2.863064
    151          1           0       19.992153   -0.616196    1.876498
    152          1           0       16.856435    4.053214    4.388026
    153          1           0       17.336215    2.419096    4.949852
    154          1           0       15.587652    2.881388    4.982383
    155          1           0       12.850893    3.873422    0.759747
    156          1           0       12.503152    7.590850   -1.394944
    157          1           0       12.664047    6.341584   -2.786856
    158          1           0       14.023835    7.146862   -1.965424
 ---------------------------------------------------------------------

 SCF Done:  E(RCAM-B3LYP) =  -4069.81176210     A.U. after   19 cycles

 Excitation energies and oscillator strengths:

 Excited State   1:      Singlet-A      1.6753 eV  740.07 nm  f=0.2076  <S**2>=0.000
     310 -> 316       -0.16829
     311 -> 314        0.16708
     312 -> 313        0.66540
     310 <- 316       -0.10145
 This state for optimization and/or second-order correction.
 Total Energy, E(TD-HF/TD-DFT) =  -4069.75019578
 Copying the excited state density for this state as the 1-particle RhoCI density.

 Excited State   2:      Singlet-A      1.6801 eV  737.96 nm  f=0.5697  <S**2>=0.000
     309 -> 315        0.17032
     311 -> 314        0.66503
     312 -> 313       -0.16703
     309 <- 315        0.10197

 Excited State   3:      Singlet-A      2.1861 eV  567.16 nm  f=0.0980  <S**2>=0.000
     310 -> 313        0.64225
     312 -> 316        0.27298

 Excited State   4:      Singlet-A      2.1925 eV  565.49 nm  f=0.1026  <S**2>=0.000
     309 -> 314        0.64047
     311 -> 315       -0.27819

 Excited State   5:      Singlet-A      3.0629 eV  404.80 nm  f=0.0000  <S**2>=0.000
     312 -> 314        0.70710

 The electronic state is 1-A.
 Alpha  occ. eigenvalues --  -46.87808 -46.87660 -19.26342 -19.26294 -19.19155
 Alpha  occ. eigenvalues --  -19.19030 -19.18829 -19.18715 -19.18179 -19.18048
 Alpha  occ. eigenvalues --  -14.42496 -14.42462 -14.41461 -14.41359 -14.39415
 Alpha  occ. eigenvalues --  -14.39351 -14.38599 -14.38598 -10.39090 -10.39085
 Alpha  occ. eigenvalues --  -10.35462 -10.35393 -10.34399 -10.34225 -10.31748
 Alpha  occ. eigenvalues --  -10.31688 -10.31416 -10.31307 -10.31021 -10.30921
 Alpha  occ. eigenvalues --  -10.30581 -10.30519 -10.30397 -10.30359 -10.30219
 Alpha  occ. eigenvalues --  -10.30141 -10.29932 -10.29894 -10.29642 -10.29436
 Alpha  occ. eigenvalues --  -10.29400 -10.29266 -10.28761 -10.28715 -10.28649
 Alpha  occ. eigenvalues --  -10.28552 -10.28403 -10.28376 -10.28136 -10.28128
 Alpha  occ. eigenvalues --  -10.28000 -10.27804 -10.27739 -10.27668 -10.27596
 Alpha  occ. eigenvalues --  -10.27519 -10.27512 -10.27495 -10.27482 -10.27468
 Alpha  occ. eigenvalues --  -10.27465 -10.27460 -10.27415 -10.27377 -10.27168
 Alpha  occ. eigenvalues --  -10.27046 -10.26718 -10.26689 -10.26426 -10.26417
 Alpha  occ. eigenvalues --  -10.26245 -10.26194 -10.26139 -10.26030 -10.26019
 Alpha  occ. eigenvalues --  -10.25934 -10.25852 -10.25849 -10.25446 -10.25399
 Alpha  occ. eigenvalues --  -10.24871 -10.24844 -10.24799 -10.24733 -10.24699
 Alpha  occ. eigenvalues --  -10.24689  -3.16551  -3.16409  -1.91433  -1.91292
 Alpha  occ. eigenvalues --   -1.91019  -1.90880  -1.90861  -1.90717  -1.16642
 Alpha  occ. eigenvalues --   -1.16637  -1.08654  -1.08637  -1.07230  -1.06968
 Alpha  occ. eigenvalues --   -1.06939  -1.06652  -1.04593  -1.04494  -1.03772
 Alpha  occ. eigenvalues --   -1.03662  -1.03245  -1.03038  -1.02423  -1.02110
 Alpha  occ. eigenvalues --   -0.91985  -0.91983  -0.89531  -0.89494  -0.89199
 Alpha  occ. eigenvalues --   -0.89148  -0.88298  -0.88221  -0.87881  -0.87792
 Alpha  occ. eigenvalues --   -0.87685  -0.87682  -0.87287  -0.87120  -0.84997
 Alpha  occ. eigenvalues --   -0.84994  -0.83947  -0.83876  -0.82981  -0.82932
 Alpha  occ. eigenvalues --   -0.82660  -0.82650  -0.81596  -0.81593  -0.80608
 Alpha  occ. eigenvalues --   -0.80440  -0.78809  -0.78635  -0.77230  -0.77143
 Alpha  occ. eigenvalues --   -0.76945  -0.76896  -0.75934  -0.75835  -0.74909
 Alpha  occ. eigenvalues --   -0.74802  -0.72785  -0.72698  -0.71683  -0.71579
 Alpha  occ. eigenvalues --   -0.69918  -0.69758  -0.68885  -0.68825  -0.67653
 Alpha  occ. eigenvalues --   -0.67600  -0.67232  -0.67198  -0.65298  -0.65269
 Alpha  occ. eigenvalues --   -0.64865  -0.64769  -0.64651  -0.64632  -0.64280
 Alpha  occ. eigenvalues --   -0.64203  -0.62308  -0.62274  -0.60454  -0.60340
 Alpha  occ. eigenvalues --   -0.59816  -0.59794  -0.58999  -0.58991  -0.58515
 Alpha  occ. eigenvalues --   -0.58424  -0.57595  -0.57550  -0.57320  -0.57236
 Alpha  occ. eigenvalues --   -0.56321  -0.56203  -0.55989  -0.55882  -0.55532
 Alpha  occ. eigenvalues --   -0.55450  -0.55350  -0.55246  -0.54534  -0.54486
 Alpha  occ. eigenvalues --   -0.53909  -0.53907  -0.53311  -0.53234  -0.53227
 Alpha  occ. eigenvalues --   -0.53139  -0.52926  -0.52900  -0.52769  -0.52668
 Alpha  occ. eigenvalues --   -0.52449  -0.52402  -0.51924  -0.51883  -0.51656
 Alpha  occ. eigenvalues --   -0.51629  -0.51207  -0.51199  -0.50586  -0.50476
 Alpha  occ. eigenvalues --   -0.50043  -0.49978  -0.49931  -0.49868  -0.49527
 Alpha  occ. eigenvalues --   -0.49486  -0.49226  -0.49200  -0.49107  -0.49101
 Alpha  occ. eigenvalues --   -0.48603  -0.48555  -0.48473  -0.48457  -0.48375
 Alpha  occ. eigenvalues --   -0.48338  -0.47707  -0.47593  -0.47309  -0.47117
 Alpha  occ. eigenvalues --   -0.46808  -0.46708  -0.46567  -0.46551  -0.46370
 Alpha  occ. eigenvalues --   -0.46270  -0.46173  -0.46084  -0.45832  -0.45819
 Alpha  occ. eigenvalues --   -0.45212  -0.45209  -0.44588  -0.44519  -0.44512
 Alpha  occ. eigenvalues --   -0.44474  -0.44156  -0.44125  -0.44100  -0.44077
 Alpha  occ. eigenvalues --   -0.44031  -0.43938  -0.43550  -0.43505  -0.43397
 Alpha  occ. eigenvalues --   -0.43383  -0.43038  -0.42927  -0.42898  -0.42709
 Alpha  occ. eigenvalues --   -0.42665  -0.42554  -0.42021  -0.41963  -0.41715
 Alpha  occ. eigenvalues --   -0.41667  -0.41545  -0.41457  -0.41152  -0.40988
 Alpha  occ. eigenvalues --   -0.40881  -0.40837  -0.40721  -0.40697  -0.40582
 Alpha  occ. eigenvalues --   -0.40493  -0.40247  -0.40224  -0.39452  -0.39427
 Alpha  occ. eigenvalues --   -0.38480  -0.38350  -0.37760  -0.37651  -0.37331
 Alpha  occ. eigenvalues --   -0.37275  -0.37265  -0.37197  -0.36766  -0.36723
 Alpha  occ. eigenvalues --   -0.36215  -0.36203  -0.34297  -0.34252  -0.33857
 Alpha  occ. eigenvalues --   -0.33781  -0.33198  -0.33174  -0.31358  -0.31274
 Alpha  occ. eigenvalues --   -0.31047  -0.30972  -0.30039  -0.29952  -0.29461
 Alpha  occ. eigenvalues --   -0.29333  -0.29327  -0.29210  -0.24092  -0.24035
 Alpha  occ. eigenvalues --   -0.21139  -0.21116
 Alpha virt. eigenvalues --   -0.08791  -0.08786  -0.01761  -0.01683  -0.00070
 Alpha virt. eigenvalues --   -0.00028   0.02190   0.02209   0.03107   0.03229
 Alpha virt. eigenvalues --    0.04706   0.04732   0.05088   0.05170   0.06164

 Mulliken charges:
               1
     1  Mg   0.838678
     2  C   -0.002963
     3  C   -0.094151
     4  C   -0.045878
     5  C   -0.063927
     6  N   -0.256778
     7  C   -0.052449
     8  C   -0.014008
     9  C   -0.086991
    10  C    0.046316
    11  C    0.104810
    12  C    0.053464
    13  C   -0.071790
    14  H    0.036108
    15  N   -0.433140
    16  C    0.168419
    17  C   -0.177173
    18  C   -0.004020
    19  C    0.148695
    20  C    0.110184
    21  C    0.012265
    22  O   -0.249634
    23  C    0.062486
    24  N   -0.341127
    25  C    0.041250
    26  C   -0.028179
    27  C   -0.023972
    28  C    0.074817
    29  C    0.076170
    30  C    0.035138
    31  C   -0.004510
    32  N   -0.310485
    33  C    0.080416
    34  C   -0.169698
    35  C    0.008386
    36  C    0.083002
    37  C    0.127307
    38  C    0.046133
    39  O   -0.188381
    40  C   -0.005369
    41  C    0.212898
    42  O   -0.257121
    43  O   -0.304787
    44  C    0.157681
    45  H   -0.017607
    46  H   -0.016845
    47  H   -0.041460
    48  H    0.000959
    49  H   -0.004053
    50  H    0.025493
    51  H    0.016455
    52  H    0.016662
    53  H    0.011170
    54  H    0.044116
    55  H    0.017900
    56  H    0.017926
    57  H    0.005871
    58  H    0.026825
    59  H    0.039491
    60  H    0.037359
    61  H    0.035617
    62  H    0.031452
    63  H    0.016535
    64  H    0.009487
    65  H    0.023208
    66  H    0.012549
    67  H    0.004775
    68  H    0.006371
    69  H    0.004762
    70  H    0.008753
    71  H    0.018157
    72  H    0.028972
    73  H    0.047606
    74  H    0.009131
    75  H    0.046038
    76  H    0.035176
    77  H    0.042987
    78  H    0.046385
    79  H    0.053688
    80  Mg   0.837920
    81  C   -0.016815
    82  C   -0.087790
    83  C   -0.045525
    84  C   -0.064877
    85  N   -0.254571
    86  C   -0.049813
    87  C   -0.015130
    88  C   -0.090492
    89  C    0.045750
    90  C    0.114361
    91  C    0.062541
    92  C   -0.077911
    93  H    0.034906
    94  N   -0.423502
    95  C    0.162922
    96  C   -0.174627
    97  C   -0.007813
    98  C    0.152109
    99  C    0.099375
   100  C    0.015559
   101  O   -0.253196
   102  C    0.061198
   103  N   -0.350074
   104  C    0.037528
   105  C   -0.019856
   106  C   -0.034799
   107  C    0.088902
   108  C    0.073657
   109  C    0.034738
   110  C   -0.007686
   111  N   -0.324146
   112  C    0.078470
   113  C   -0.163123
   114  C    0.002270
   115  C    0.096188
   116  C    0.131490
   117  C    0.042394
   118  O   -0.187795
   119  C    0.000917
   120  C    0.211248
   121  O   -0.251046
   122  O   -0.305588
   123  C    0.152016
   124  H   -0.019645
   125  H   -0.015586
   126  H   -0.040455
   127  H   -0.000569
   128  H   -0.004330
   129  H    0.022525
   130  H    0.014419
   131  H    0.016331
   132  H    0.013889
   133  H    0.037671
   134  H    0.020855
   135  H    0.019569
   136  H    0.008769
   137  H    0.026136
   138  H    0.039774
   139  H    0.038249
   140  H    0.036383
   141  H    0.033892
   142  H    0.014393
   143  H    0.012431
   144  H    0.025129
   145  H    0.011649
   146  H    0.005684
   147  H    0.006255
   148  H    0.003659
   149  H    0.010927
   150  H    0.017933
   151  H    0.030108
   152  H    0.046024
   153  H    0.008499
   154  H    0.046993
   155  H    0.035110
   156  H    0.043988
   157  H    0.049498
   158  H    0.053562
 Sum of Mulliken charges =  -0.00000

 Dipole moment (field-independent basis, Debye):
    X=             -4.5968    Y=             -4.6809    Z=             -6.0729  Tot=              8.9399
 Quadrupole moment (field-independent basis, Debye-Ang):
   XX=           -521.0467   YY=           -565.4709   ZZ=           -446.6470
   XY=            -12.2642   XZ=             41.7749   YZ=            -23.3809

 Normal termination of Gaussian 16 at Sun Sep 12 18:37:16 2021.
