 Gaussian 16, Revision A.03,
 Gaussian 16:  ES64L-G16RevA.03 25-Dec-2016

 -----------------------------------
 #p cam-b3lyp/Def2SVP td=(nstates=5)
 -----------------------------------

 --------------------------------
 TDDFT excited states in gaussian
 --------------------------------
 Symbolic Z-matrix:
 Charge =  0 Multiplicity = 1

                         Standard orientation:
 ---------------------------------------------------------------------
 Center     Atomic      Atomic             Coordinates (Angstroms)
 Number     Number       Type             X           Y           Z
 ---------------------------------------------------------------------
      1         12           0        6.703427    0.508857    1.036039
      2          6           0        7.245233   -2.400624   -0.977311
      3          6           0        7.975902    2.347143   -1.541669
      4          6           0        6.658738    3.031932    2.956643
      5          6           0        6.554597   -1.611119    3.798142
      6          7           0        7.476976   -0.067995   -0.956324
      7          6           0        7.574426   -1.210214   -1.629384
      8          6           0        7.987734   -1.016228   -3.118988
      9          6           0        8.719192    0.395058   -2.995535
     10          6           0        7.990656    0.940733   -1.780053
     11          6           0       10.205035    0.284701   -2.669046
     12          6           0        6.749518   -0.938122   -4.074210
     13          6           0        7.065537   -1.076995   -5.566256
     14          1           0        6.115643   -1.772410   -6.421502
     15          7           0        6.773144    2.438466    0.618187
     16          6           0        7.314167    3.009173   -0.484932
     17          6           0        7.116594    4.466287   -0.328521
     18          6           0        6.587003    4.709122    1.042120
     19          6           0        6.677661    3.388383    1.610281
     20          6           0        7.374999    5.454011   -1.424595
     21          6           0        6.089530    5.938742    1.733994
     22          8           0        5.893170    5.976305    2.996771
     23          6           0        5.920198    7.140396    0.897097
     24          7           0        6.837635    0.718345    3.108656
     25          6           0        6.732154    1.918707    3.689164
     26          6           0        6.574072    1.794366    5.175598
     27          6           0        6.348665    0.240794    5.467760
     28          6           0        6.507010   -0.296265    4.023889
     29          6           0        7.749757    2.306899    6.018857
     30          6           0        5.077687   -0.147814    6.264013
     31          6           0        3.845451    0.137916    5.435128
     32          7           0        6.689461   -1.636487    1.365205
     33          6           0        6.644792   -2.299758    2.600012
     34          6           0        6.764931   -3.742415    2.320054
     35          6           0        6.888602   -3.817514    0.934085
     36          6           0        6.874644   -2.503335    0.385423
     37          6           0        6.809223   -4.779338    3.293328
     38          6           0        7.054040   -4.700837   -0.208818
     39          8           0        7.039011   -5.921976   -0.370334
     40          6           0        7.413894   -3.812642   -1.480604
     41          6           0        6.534390   -4.264792   -2.614333
     42          8           0        5.300161   -4.083911   -2.577915
     43          8           0        7.300638   -4.619403   -3.657241
     44          6           0        6.488896   -5.050455   -4.826609
     45          1           0        8.571597    2.997794   -2.184896
     46          1           0        6.532219    3.868025    3.647569
     47          1           0        6.431312   -2.338121    4.602954
     48          1           0        8.683837   -1.764379   -3.498640
     49          1           0        8.533603    1.026946   -3.863864
     50          1           0       10.488894   -0.743985   -2.447347
     51          1           0       10.359009    0.918767   -1.795694
     52          1           0       10.809912    0.719351   -3.465275
     53          1           0        6.350148    0.075995   -4.062760
     54          1           0        5.998993   -1.678162   -3.794247
     55          1           0        8.074235   -1.458921   -5.726162
     56          1           0        7.080459   -0.079901   -6.006462
     57          1           0        7.913602    4.999044   -2.254930
     58          1           0        8.066057    6.197110   -1.027164
     59          1           0        6.460639    5.944186   -1.759271
     60          1           0        6.876127    7.399078    0.441211
     61          1           0        5.472730    7.895589    1.542315
     62          1           0        5.242319    6.906035    0.075815
     63          1           0        5.706620    2.353013    5.524693
     64          1           0        7.166645   -0.189527    6.046039
     65          1           0        7.468829    3.073092    6.741860
     66          1           0        8.517683    2.673963    5.338530
     67          1           0        8.293162    1.534609    6.562636
     68          1           0        5.000347    0.451249    7.170703
     69          1           0        5.057771   -1.197487    6.557340
     70          1           0        3.670177    1.197671    5.616870
     71          1           0        3.004603   -0.462359    5.784206
     72          1           0        4.045616    0.018693    4.370137
     73          1           0        6.166958   -5.576505    2.919176
     74          1           0        6.472570   -4.423380    4.266755
     75          1           0        7.871760   -5.021705    3.281953
     76          1           0        8.470052   -3.978916   -1.690381
     77          1           0        6.822644   -6.052251   -5.097260
     78          1           0        6.584809   -4.265283   -5.576749
     79          1           0        5.429860   -5.230228   -4.638291
     80         12           0       -6.367364    0.409438   -0.990435
     81          6           0       -8.333418   -1.691635    1.154141
     82          6           0       -8.580038    2.915766   -0.314432
     83          6           0       -4.922923    2.150148   -3.215500
     84          6           0       -5.017028   -2.494178   -2.365676
     85          7           0       -8.181752    0.480665    0.272576
     86          6           0       -8.797146   -0.361151    1.089251
     87          6           0       -9.925933    0.278680    1.941332
     88          6           0      -10.269817    1.524589    0.988279
     89          6           0       -8.919182    1.680092    0.292371
     90          6           0      -11.316398    1.204856   -0.066134
     91          6           0       -9.416998    0.754282    3.347313
     92          6           0      -10.521880    1.104492    4.346485
     93          1           0      -10.304880    0.801892    5.758511
     94          7           0       -6.391402    2.368873   -1.304472
     95          6           0       -7.357609    3.239074   -0.943288
     96          6           0       -6.911362    4.556870   -1.421244
     97          6           0       -5.681933    4.367875   -2.238234
     98          6           0       -5.628345    2.921152   -2.303093
     99          6           0       -7.588609    5.837385   -1.027502
    100          6           0       -4.721476    5.330137   -2.868928
    101          8           0       -3.856485    4.948330   -3.734300
    102          6           0       -4.884982    6.747341   -2.513562
    103          7           0       -5.305764   -0.093914   -2.705659
    104          6           0       -4.736205    0.854802   -3.469507
    105          6           0       -3.799670    0.246987   -4.486290
    106          6           0       -3.673617   -1.296160   -4.085793
    107          6           0       -4.672756   -1.334520   -2.908666
    108          6           0       -4.238871    0.359421   -5.946035
    109          6           0       -2.240223   -1.849051   -3.856980
    110          6           0       -1.634231   -1.217746   -2.624245
    111          7           0       -6.468061   -1.706226   -0.563953
    112          6           0       -5.845782   -2.751491   -1.281078
    113          6           0       -6.301696   -4.022383   -0.681580
    114          6           0       -7.182476   -3.625783    0.335980
    115          6           0       -7.284937   -2.208517    0.355224
    116          6           0       -5.937846   -5.326761   -1.120124
    117          6           0       -8.057040   -4.084206    1.391292
    118          8           0       -8.307816   -5.176694    1.898539
    119          6           0       -8.938665   -2.857501    1.885600
    120          6           0       -8.903252   -2.836094    3.389198
    121          8           0       -7.840251   -2.608472    3.993200
    122          8           0      -10.163140   -2.871257    3.860167
    123          6           0      -10.180543   -2.840726    5.346974
    124          1           0       -9.335970    3.700706   -0.350706
    125          1           0       -4.318928    2.706789   -3.935799
    126          1           0       -4.566179   -3.439870   -2.674016
    127          1           0      -10.803787   -0.342576    2.072442
    128          1           0      -10.504170    2.413089    1.568809
    129          1           0      -11.570887    0.155438   -0.075971
    130          1           0      -10.879737    1.497160   -1.012142
    131          1           0      -12.195201    1.841700    0.069750
    132          1           0       -8.940510    1.737430    3.241858
    133          1           0       -8.756314    0.027855    3.779088
    134          1           0      -11.503083    0.737864    4.021259
    135          1           0      -10.636254    2.190930    4.370668
    136          1           0       -8.561070    5.649598   -0.555836
    137          1           0       -7.834025    6.367387   -1.954178
    138          1           0       -6.953460    6.477742   -0.411724
    139          1           0       -5.886920    7.073696   -2.782008
    140          1           0       -4.052441    7.266589   -2.992244
    141          1           0       -4.802507    6.846946   -1.425488
    142          1           0       -2.819805    0.705289   -4.432071
    143          1           0       -4.082339   -1.954419   -4.866483
    144          1           0       -3.493682    0.865652   -6.588291
    145          1           0       -5.185922    0.881526   -5.978290
    146          1           0       -4.479456   -0.585616   -6.430005
    147          1           0       -1.592080   -1.579226   -4.694395
    148          1           0       -2.204577   -2.928735   -3.757036
    149          1           0       -1.246786   -0.265853   -2.999563
    150          1           0       -0.834730   -1.840775   -2.228430
    151          1           0       -2.405477   -0.989099   -1.879570
    152          1           0       -5.728423   -5.906933   -0.231280
    153          1           0       -5.079202   -5.296686   -1.787652
    154          1           0       -6.853075   -5.619587   -1.641542
    155          1           0       -9.948990   -3.004559    1.501951
    156          1           0      -10.747543   -3.716333    5.677893
    157          1           0      -10.582801   -1.847232    5.620693
    158          1           0       -9.239198   -2.991141    5.862421
 ---------------------------------------------------------------------

 SCF Done:  E(RCAM-B3LYP) =  -4069.81194239     A.U. after   19 cycles

 Excitation energies and oscillator strengths:

 Excited State   1:      Singlet-A      1.6650 eV  744.67 nm  f=0.0102  <S**2>=0.000
     309 -> 315       -0.10881
     310 -> 316        0.13223
     311 -> 313       -0.43468
     312 -> 314        0.53147
 This state for optimization and/or second-order correction.
 Total Energy, E(TD-HF/TD-DFT) =  -4069.75075607
 Copying the excited state density for this state as the 1-particle RhoCI density.

 Excited State   2:      Singlet-A      1.6889 eV  734.10 nm  f=0.7341  <S**2>=0.000
     309 -> 315        0.13777
     310 -> 316        0.11200
     311 -> 313        0.53030
     312 -> 314        0.43380

 Excited State   3:      Singlet-A      2.1848 eV  567.50 nm  f=0.0673  <S**2>=0.000
     309 -> 313        0.14400
     310 -> 314        0.62654
     312 -> 316       -0.26529

 Excited State   4:      Singlet-A      2.1932 eV  565.32 nm  f=0.1272  <S**2>=0.000
     309 -> 313        0.62436
     310 -> 314       -0.14273
     311 -> 315       -0.27167

 Excited State   5:      Singlet-A      2.7074 eV  457.94 nm  f=0.0000  <S**2>=0.000
     312 -> 313        0.70697

 The electronic state is 1-A.
 Alpha  occ. eigenvalues --  -46.87704 -46.87546 -19.26264 -19.26261 -19.19069
 Alpha  occ. eigenvalues --  -19.18994 -19.18721 -19.18641 -19.18093 -19.17946
 Alpha  occ. eigenvalues --  -14.42389 -14.42363 -14.41355 -14.41238 -14.39310
 Alpha  occ. eigenvalues --  -14.39242 -14.38496 -14.38483 -10.39049 -10.38998
 Alpha  occ. eigenvalues --  -10.35354 -10.35321 -10.34315 -10.34124 -10.31680
 Alpha  occ. eigenvalues --  -10.31673 -10.31321 -10.31197 -10.30927 -10.30827
 Alpha  occ. eigenvalues --  -10.30480 -10.30414 -10.30281 -10.30243 -10.30107
 Alpha  occ. eigenvalues --  -10.30017 -10.29826 -10.29768 -10.29538 -10.29328
 Alpha  occ. eigenvalues --  -10.29289 -10.29159 -10.28687 -10.28632 -10.28583
 Alpha  occ. eigenvalues --  -10.28508 -10.28301 -10.28278 -10.28051 -10.28047
 Alpha  occ. eigenvalues --  -10.27891 -10.27701 -10.27638 -10.27561 -10.27491
 Alpha  occ. eigenvalues --  -10.27389 -10.27385 -10.27381 -10.27376 -10.27361
 Alpha  occ. eigenvalues --  -10.27346 -10.27346 -10.27320 -10.27237 -10.27095
 Alpha  occ. eigenvalues --  -10.26951 -10.26660 -10.26610 -10.26369 -10.26311
 Alpha  occ. eigenvalues --  -10.26167 -10.26048 -10.25945 -10.25920 -10.25879
 Alpha  occ. eigenvalues --  -10.25800 -10.25739 -10.25698 -10.25342 -10.25296
 Alpha  occ. eigenvalues --  -10.24762 -10.24744 -10.24696 -10.24578 -10.24530
 Alpha  occ. eigenvalues --  -10.24417  -3.16447  -3.16296  -1.91328  -1.91178
 Alpha  occ. eigenvalues --   -1.90915  -1.90766  -1.90757  -1.90603  -1.16608
 Alpha  occ. eigenvalues --   -1.16556  -1.08555  -1.08554  -1.07122  -1.06896
 Alpha  occ. eigenvalues --   -1.06854  -1.06615  -1.04495  -1.04388  -1.03668
 Alpha  occ. eigenvalues --   -1.03550  -1.03141  -1.02920  -1.02319  -1.01996
 Alpha  occ. eigenvalues --   -0.91892  -0.91879  -0.89415  -0.89345  -0.89119
 Alpha  occ. eigenvalues --   -0.89056  -0.88184  -0.88068  -0.87776  -0.87671
 Alpha  occ. eigenvalues --   -0.87588  -0.87573  -0.87178  -0.87029  -0.84910
 Alpha  occ. eigenvalues --   -0.84903  -0.83832  -0.83712  -0.82868  -0.82835
 Alpha  occ. eigenvalues --   -0.82574  -0.82553  -0.81524  -0.81491  -0.80519
 Alpha  occ. eigenvalues --   -0.80339  -0.78703  -0.78530  -0.77129  -0.77031
 Alpha  occ. eigenvalues --   -0.76864  -0.76779  -0.75853  -0.75738  -0.74806
 Alpha  occ. eigenvalues --   -0.74674  -0.72682  -0.72578  -0.71589  -0.71474
 Alpha  occ. eigenvalues --   -0.69790  -0.69564  -0.68797  -0.68726  -0.67556
 Alpha  occ. eigenvalues --   -0.67496  -0.67150  -0.67113  -0.65215  -0.65172
 Alpha  occ. eigenvalues --   -0.64774  -0.64652  -0.64544  -0.64541  -0.64169
 Alpha  occ. eigenvalues --   -0.64052  -0.62240  -0.62170  -0.60346  -0.60235
 Alpha  occ. eigenvalues --   -0.59728  -0.59697  -0.58901  -0.58877  -0.58419
 Alpha  occ. eigenvalues --   -0.58311  -0.57520  -0.57451  -0.57220  -0.57115
 Alpha  occ. eigenvalues --   -0.56223  -0.56093  -0.55930  -0.55791  -0.55434
 Alpha  occ. eigenvalues --   -0.55361  -0.55253  -0.55112  -0.54448  -0.54348
 Alpha  occ. eigenvalues --   -0.53828  -0.53820  -0.53208  -0.53145  -0.53117
 Alpha  occ. eigenvalues --   -0.53041  -0.52844  -0.52796  -0.52670  -0.52590
 Alpha  occ. eigenvalues --   -0.52318  -0.52183  -0.51820  -0.51750  -0.51570
 Alpha  occ. eigenvalues --   -0.51545  -0.51112  -0.51076  -0.50472  -0.50388
 Alpha  occ. eigenvalues --   -0.49927  -0.49881  -0.49829  -0.49719  -0.49437
 Alpha  occ. eigenvalues --   -0.49398  -0.49134  -0.49106  -0.49024  -0.49001
 Alpha  occ. eigenvalues --   -0.48523  -0.48459  -0.48369  -0.48361  -0.48258
 Alpha  occ. eigenvalues --   -0.48248  -0.47611  -0.47488  -0.47211  -0.47017
 Alpha  occ. eigenvalues --   -0.46706  -0.46584  -0.46487  -0.46457  -0.46269
 Alpha  occ. eigenvalues --   -0.46148  -0.46078  -0.45966  -0.45750  -0.45708
 Alpha  occ. eigenvalues --   -0.45105  -0.45077  -0.44502  -0.44418  -0.44418
 Alpha  occ. eigenvalues --   -0.44359  -0.44051  -0.44029  -0.44011  -0.43940
 Alpha  occ. eigenvalues --   -0.43929  -0.43850  -0.43435  -0.43428  -0.43303
 Alpha  occ. eigenvalues --   -0.43281  -0.42942  -0.42829  -0.42788  -0.42651
 Alpha  occ. eigenvalues --   -0.42553  -0.42401  -0.41914  -0.41805  -0.41621
 Alpha  occ. eigenvalues --   -0.41557  -0.41460  -0.41341  -0.41059  -0.40884
 Alpha  occ. eigenvalues --   -0.40788  -0.40735  -0.40642  -0.40585  -0.40472
 Alpha  occ. eigenvalues --   -0.40336  -0.40176  -0.40146  -0.39319  -0.39219
 Alpha  occ. eigenvalues --   -0.38372  -0.38211  -0.37687  -0.37560  -0.37223
 Alpha  occ. eigenvalues --   -0.37190  -0.37131  -0.37096  -0.36668  -0.36663
 Alpha  occ. eigenvalues --   -0.36119  -0.36092  -0.34197  -0.34139  -0.33766
 Alpha  occ. eigenvalues --   -0.33733  -0.33099  -0.33061  -0.31251  -0.31199
 Alpha  occ. eigenvalues --   -0.30949  -0.30863  -0.29954  -0.29850  -0.29355
 Alpha  occ. eigenvalues --   -0.29231  -0.29225  -0.29099  -0.23991  -0.23922
 Alpha  occ. eigenvalues --   -0.21035  -0.21003
 Alpha virt. eigenvalues --   -0.08683  -0.08683  -0.01657  -0.01571   0.00031
 Alpha virt. eigenvalues --    0.00062   0.02287   0.02320   0.03230   0.03361
 Alpha virt. eigenvalues --    0.04795   0.04833   0.05135   0.05259   0.06226

 Mulliken charges:
               1
     1  Mg   0.839026
     2  C   -0.003270
     3  C   -0.094075
     4  C   -0.045758
     5  C   -0.063725
     6  N   -0.256785
     7  C   -0.052583
     8  C   -0.014041
     9  C   -0.087009
    10  C    0.046298
    11  C    0.104826
    12  C    0.053488
    13  C   -0.071557
    14  H    0.035184
    15  N   -0.433144
    16  C    0.168543
    17  C   -0.177006
    18  C   -0.003880
    19  C    0.148791
    20  C    0.110140
    21  C    0.012452
    22  O   -0.249747
    23  C    0.062335
    24  N   -0.341194
    25  C    0.041311
    26  C   -0.028139
    27  C   -0.024021
    28  C    0.074901
    29  C    0.076227
    30  C    0.035064
    31  C   -0.004604
    32  N   -0.310448
    33  C    0.080409
    34  C   -0.169485
    35  C    0.008250
    36  C    0.082963
    37  C    0.127275
    38  C    0.045985
    39  O   -0.188642
    40  C   -0.005336
    41  C    0.213006
    42  O   -0.257773
    43  O   -0.304615
    44  C    0.157901
    45  H   -0.017707
    46  H   -0.016866
    47  H   -0.041227
    48  H    0.000787
    49  H   -0.004039
    50  H    0.025394
    51  H    0.016506
    52  H    0.016551
    53  H    0.011488
    54  H    0.043538
    55  H    0.017941
    56  H    0.018203
    57  H    0.005798
    58  H    0.026615
    59  H    0.040112
    60  H    0.037177
    61  H    0.035391
    62  H    0.032142
    63  H    0.016671
    64  H    0.009355
    65  H    0.023103
    66  H    0.012368
    67  H    0.004699
    68  H    0.006286
    69  H    0.004985
    70  H    0.008639
    71  H    0.019216
    72  H    0.028906
    73  H    0.047735
    74  H    0.009477
    75  H    0.045840
    76  H    0.035092
    77  H    0.042987
    78  H    0.046353
    79  H    0.052945
    80  Mg   0.838037
    81  C   -0.016969
    82  C   -0.088005
    83  C   -0.045504
    84  C   -0.064513
    85  N   -0.254565
    86  C   -0.049823
    87  C   -0.015121
    88  C   -0.090456
    89  C    0.045684
    90  C    0.114456
    91  C    0.062572
    92  C   -0.077769
    93  H    0.034696
    94  N   -0.423364
    95  C    0.162822
    96  C   -0.174861
    97  C   -0.008094
    98  C    0.152066
    99  C    0.099443
   100  C    0.015410
   101  O   -0.253869
   102  C    0.061317
   103  N   -0.350183
   104  C    0.037591
   105  C   -0.019542
   106  C   -0.035218
   107  C    0.089325
   108  C    0.073937
   109  C    0.034749
   110  C   -0.008426
   111  N   -0.324215
   112  C    0.078767
   113  C   -0.162496
   114  C    0.002165
   115  C    0.096445
   116  C    0.131285
   117  C    0.042541
   118  O   -0.187800
   119  C    0.000841
   120  C    0.211245
   121  O   -0.250915
   122  O   -0.305693
   123  C    0.152093
   124  H   -0.020042
   125  H   -0.016047
   126  H   -0.039466
   127  H   -0.000794
   128  H   -0.004525
   129  H    0.022354
   130  H    0.014358
   131  H    0.015991
   132  H    0.013955
   133  H    0.037727
   134  H    0.020668
   135  H    0.019478
   136  H    0.008610
   137  H    0.025693
   138  H    0.039545
   139  H    0.038129
   140  H    0.035508
   141  H    0.034037
   142  H    0.014254
   143  H    0.012155
   144  H    0.024375
   145  H    0.011197
   146  H    0.005546
   147  H    0.006150
   148  H    0.005160
   149  H    0.009662
   150  H    0.022978
   151  H    0.028960
   152  H    0.046514
   153  H    0.009666
   154  H    0.046613
   155  H    0.034810
   156  H    0.043786
   157  H    0.049352
   158  H    0.053556
 Sum of Mulliken charges =  -0.00000

 Dipole moment (field-independent basis, Debye):
    X=             -0.0545    Y=              6.9631    Z=             -2.6690  Tot=              7.4572
 Quadrupole moment (field-independent basis, Debye-Ang):
   XX=           -437.1447   YY=           -539.2722   ZZ=           -477.8043
   XY=            -20.7233   XZ=            -22.7767   YZ=              5.6369

 Normal termination of Gaussian 16 at Sat Sep 11 05:14:42 2021.
