 Gaussian 16, Revision A.03,
 Gaussian 16:  ES64L-G16RevA.03 25-Dec-2016

 -----------------------------------
 #p cam-b3lyp/Def2SVP td=(nstates=5)
 -----------------------------------

 --------------------------------
 TDDFT excited states in gaussian
 --------------------------------
 Symbolic Z-matrix:
 Charge =  0 Multiplicity = 1

                         Standard orientation:
 ---------------------------------------------------------------------
 Center     Atomic      Atomic             Coordinates (Angstroms)
 Number     Number       Type             X           Y           Z
 ---------------------------------------------------------------------
      1         12           0       15.979385    0.705944    0.525317
      2          6           0       16.294596   -2.634673   -0.720931
      3          6           0       16.967846    1.789654   -2.555524
      4          6           0       16.147634    3.634816    1.729483
      5          6           0       16.127457   -0.636215    3.738158
      6          7           0       16.531237   -0.381326   -1.322372
      7          6           0       16.553140   -1.659554   -1.686821
      8          6           0       16.802739   -1.863184   -3.211160
      9          6           0       17.545686   -0.489086   -3.530353
     10          6           0       16.954247    0.369070   -2.425956
     11          6           0       19.057988   -0.556422   -3.343508
     12          6           0       15.468338   -1.994271   -4.019812
     13          6           0       15.620388   -2.517415   -5.451090
     14          1           0       14.582129   -3.379273   -5.995671
     15          7           0       16.006659    2.462832   -0.377705
     16          6           0       16.425792    2.717929   -1.640456
     17          6           0       16.248846    4.172052   -1.842693
     18          6           0       15.871492    4.771088   -0.532406
     19          6           0       16.020993    3.636283    0.342376
     20          6           0       16.388505    4.840366   -3.175960
     21          6           0       15.454118    6.150360   -0.130487
     22          8           0       15.395974    6.513723    1.093916
     23          6           0       15.197048    7.103997   -1.224806
     24          7           0       16.338009    1.431807    2.449413
     25          6           0       16.298181    2.742928    2.710868
     26          6           0       16.302076    3.005562    4.187671
     27          6           0       16.107038    1.584772    4.889859
     28          6           0       16.106890    0.693619    3.623322
     29          6           0       17.563179    3.680943    4.743990
     30          6           0       14.929282    1.449109    5.887308
     31          6           0       13.614886    1.550687    5.146265
     32          7           0       15.997541   -1.283689    1.392542
     33          6           0       16.085962   -1.609365    2.753714
     34          6           0       16.172552   -3.078666    2.841608
     35          6           0       16.145006   -3.507516    1.516023
     36          6           0       16.073856   -2.376348    0.653649
     37          6           0       16.320396   -3.834690    4.037854
     38          6           0       16.183967   -4.657021    0.626654
     39          8           0       16.149416   -5.878081    0.785753
     40          6           0       16.405246   -4.132605   -0.860575
     41          6           0       15.407166   -4.832234   -1.742429
     42          8           0       14.184484   -4.611800   -1.624863
     43          8           0       16.055144   -5.462901   -2.733855
     44          6           0       15.120596   -6.153198   -3.662438
     45          1           0       17.491356    2.237425   -3.402507
     46          1           0       16.098247    4.622531    2.192538
     47          1           0       16.090967   -1.130582    4.710640
     48          1           0       17.452266   -2.703456   -3.457089
     49          1           0       17.268071   -0.093731   -4.507259
     50          1           0       19.362463   -1.502747   -2.896645
     51          1           0       19.306884    0.274161   -2.682694
     52          1           0       19.573657   -0.356644   -4.283162
     53          1           0       15.074302   -0.999313   -4.226826
     54          1           0       14.751350   -2.616313   -3.482860
     55          1           0       16.605130   -2.956970   -5.612284
     56          1           0       15.589171   -1.666014   -6.131046
     57          1           0       16.833071    4.173471   -3.913630
     58          1           0       17.119871    5.639457   -3.056516
     59          1           0       15.444074    5.255952   -3.527629
     60          1           0       16.098320    7.209934   -1.828989
     61          1           0       14.823511    8.011324   -0.751439
     62          1           0       14.433673    6.688452   -1.883236
     63          1           0       15.478573    3.659920    4.470663
     64          1           0       16.982189    1.291857    5.470365
     65          1           0       17.363656    4.613793    5.271898
     66          1           0       18.253393    3.840078    3.915998
     67          1           0       18.161048    3.056768    5.407598
     68          1           0       14.951785    2.261146    6.613279
     69          1           0       14.939510    0.509660    6.440102
     70          1           0       13.462176    2.626492    5.067809
     71          1           0       12.815845    1.083989    5.723273
     72          1           0       13.698129    1.158597    4.132449
     73          1           0       15.639969   -4.681558    3.949532
     74          1           0       16.091942   -3.233039    4.917301
     75          1           0       17.375012   -4.103135    3.978032
     76          1           0       17.432126   -4.377785   -1.129881
     77          1           0       15.421299   -7.200260   -3.700816
     78          1           0       15.135907   -5.587885   -4.594421
     79          1           0       14.087935   -6.247897   -3.324827
     80         12           0      -15.733812    0.150438   -0.822086
     81          6           0      -17.063694   -1.153674    2.245443
     82          6           0      -17.561465    2.971218   -0.241124
     83          6           0      -14.939007    1.144406   -3.728591
     84          6           0      -14.948653   -3.126120   -1.712798
     85          7           0      -17.097393    0.716998    0.824707
     86          6           0      -17.477913    0.165604    1.967298
     87          6           0      -18.285431    1.108636    2.899049
     88          6           0      -18.847064    2.122111    1.787163
     89          6           0      -17.753288    1.959710    0.733624
     90          6           0      -20.166393    1.676834    1.178509
     91          6           0      -17.371925    1.846474    3.939768
     92          6           0      -18.124158    2.542333    5.076292
     93          1           0      -17.515999    2.562268    6.403776
     94          7           0      -15.777706    1.969684   -1.613925
     95          6           0      -16.564634    3.000691   -1.241023
     96          6           0      -16.229903    4.110438   -2.146877
     97          6           0      -15.299688    3.599926   -3.190338
     98          6           0      -15.319534    2.182279   -2.890406
     99          6           0      -16.716323    5.513752   -1.928898
    100          6           0      -14.530783    4.274209   -4.285932
    101          8           0      -13.969990    3.605793   -5.224842
    102          6           0      -14.532378    5.744401   -4.279048
    103          7           0      -15.237233   -0.858716   -2.570614
    104          6           0      -14.881284   -0.186604   -3.679428
    105          6           0      -14.304380   -1.116946   -4.719642
    106          6           0      -14.122768   -2.524942   -3.983325
    107          6           0      -14.736046   -2.173354   -2.610132
    108          6           0      -15.145714   -1.307586   -5.981472
    109          6           0      -12.705841   -3.160305   -4.019190
    110          6           0      -11.744453   -2.323920   -3.205798
    111          7           0      -15.782014   -1.779283    0.148426
    112          6           0      -15.433930   -3.026414   -0.415118
    113          6           0      -15.740774   -4.060949    0.593838
    114          6           0      -16.271752   -3.340355    1.674250
    115          6           0      -16.312996   -1.956665    1.353019
    116          6           0      -15.567845   -5.463824    0.426030
    117          6           0      -16.816615   -3.436738    3.009368
    118          8           0      -16.947838   -4.343349    3.830696
    119          6           0      -17.471031   -2.039215    3.390222
    120          6           0      -16.998068   -1.664994    4.768190
    121          8           0      -15.797675   -1.417469    4.978887
    122          8           0      -18.066336   -1.449783    5.557404
    123          6           0      -17.648434   -1.064996    6.931851
    124          1           0      -18.266324    3.802553   -0.271781
    125          1           0      -14.551582    1.444689   -4.704914
    126          1           0      -14.641671   -4.161303   -1.876591
    127          1           0      -19.108738    0.635752    3.420906
    128          1           0      -18.869809    3.143211    2.158911
    129          1           0      -20.450349    0.689297    1.510586
    130          1           0      -20.014249    1.686542    0.107159
    131          1           0      -20.943859    2.419516    1.379251
    132          1           0      -16.911758    2.718469    3.457469
    133          1           0      -16.640699    1.176009    4.347710
    134          1           0      -19.170100    2.218006    5.137587
    135          1           0      -18.187266    3.609180    4.848557
    136          1           0      -17.515142    5.550511   -1.177940
    137          1           0      -17.201956    5.831765   -2.857818
    138          1           0      -15.906591    6.209044   -1.697445
    139          1           0      -15.556619    6.104686   -4.338959
    140          1           0      -13.857409    6.041132   -5.084183
    141          1           0      -14.132763    6.090200   -3.319184
    142          1           0      -13.335428   -0.768401   -5.055405
    143          1           0      -14.764784   -3.301369   -4.424706
    144          1           0      -14.602386   -1.052777   -6.910959
    145          1           0      -16.041559   -0.708176   -5.888196
    146          1           0      -15.550845   -2.308594   -6.119532
    147          1           0      -12.320688   -3.169498   -5.041802
    148          1           0      -12.681551   -4.182561   -3.656714
    149          1           0      -11.449198   -1.536549   -3.905760
    150          1           0      -10.887285   -2.918249   -2.895826
    151          1           0      -12.256339   -1.842233   -2.364618
    152          1           0      -15.129462   -5.835337    1.342697
    153          1           0      -14.940599   -5.686969   -0.434512
    154          1           0      -16.605269   -5.770742    0.268426
    155          1           0      -18.553927   -2.162326    3.348468
    156          1           0      -18.125505   -1.769746    7.619911
    157          1           0      -17.917335    0.002800    7.037932
    158          1           0      -16.603777   -1.190170    7.191587
 ---------------------------------------------------------------------

 SCF Done:  E(RCAM-B3LYP) =  -4069.81175158     A.U. after   19 cycles

 Excitation energies and oscillator strengths:

 Excited State   1:      Singlet-A      1.6753 eV  740.06 nm  f=0.2142  <S**2>=0.000
     310 -> 316        0.16866
     311 -> 313        0.66678
     312 -> 314       -0.16150
     310 <- 316        0.10168
 This state for optimization and/or second-order correction.
 Total Energy, E(TD-HF/TD-DFT) =  -4069.75018475
 Copying the excited state density for this state as the 1-particle RhoCI density.

 Excited State   2:      Singlet-A      1.6801 eV  737.95 nm  f=0.5633  <S**2>=0.000
     309 -> 315        0.17067
     311 -> 313        0.16145
     312 -> 314        0.66641
     309 <- 315        0.10218

 Excited State   3:      Singlet-A      2.1861 eV  567.16 nm  f=0.0972  <S**2>=0.000
     310 -> 313        0.64223
     311 -> 316       -0.27300

 Excited State   4:      Singlet-A      2.1925 eV  565.49 nm  f=0.1033  <S**2>=0.000
     309 -> 314        0.64045
     312 -> 315       -0.27819

 Excited State   5:      Singlet-A      3.0592 eV  405.29 nm  f=0.0000  <S**2>=0.000
     312 -> 313        0.70711

 The electronic state is 1-A.
 Alpha  occ. eigenvalues --  -46.87754 -46.87661 -19.26347 -19.26241 -19.19158
 Alpha  occ. eigenvalues --  -19.18976 -19.18774 -19.18716 -19.18127 -19.18051
 Alpha  occ. eigenvalues --  -14.42498 -14.42408 -14.41407 -14.41360 -14.39361
 Alpha  occ. eigenvalues --  -14.39352 -14.38600 -14.38544 -10.39088 -10.39036
 Alpha  occ. eigenvalues --  -10.35407 -10.35393 -10.34347 -10.34228 -10.31753
 Alpha  occ. eigenvalues --  -10.31635 -10.31363 -10.31309 -10.31024 -10.30867
 Alpha  occ. eigenvalues --  -10.30527 -10.30465 -10.30398 -10.30361 -10.30165
 Alpha  occ. eigenvalues --  -10.30142 -10.29895 -10.29878 -10.29588 -10.29437
 Alpha  occ. eigenvalues --  -10.29401 -10.29212 -10.28719 -10.28707 -10.28653
 Alpha  occ. eigenvalues --  -10.28495 -10.28405 -10.28323 -10.28141 -10.28075
 Alpha  occ. eigenvalues --  -10.28001 -10.27751 -10.27685 -10.27670 -10.27542
 Alpha  occ. eigenvalues --  -10.27518 -10.27484 -10.27469 -10.27466 -10.27459
 Alpha  occ. eigenvalues --  -10.27440 -10.27408 -10.27376 -10.27361 -10.27116
 Alpha  occ. eigenvalues --  -10.27050 -10.26692 -10.26661 -10.26417 -10.26370
 Alpha  occ. eigenvalues --  -10.26195 -10.26140 -10.26134 -10.26028 -10.25977
 Alpha  occ. eigenvalues --  -10.25934 -10.25849 -10.25801 -10.25401 -10.25396
 Alpha  occ. eigenvalues --  -10.24873 -10.24790 -10.24746 -10.24725 -10.24691
 Alpha  occ. eigenvalues --  -10.24641  -3.16497  -3.16411  -1.91379  -1.91293
 Alpha  occ. eigenvalues --   -1.90965  -1.90881  -1.90807  -1.90718  -1.16641
 Alpha  occ. eigenvalues --   -1.16589  -1.08657  -1.08585  -1.07175  -1.06968
 Alpha  occ. eigenvalues --   -1.06943  -1.06598  -1.04539  -1.04496  -1.03718
 Alpha  occ. eigenvalues --   -1.03664  -1.03192  -1.03039  -1.02369  -1.02112
 Alpha  occ. eigenvalues --   -0.91987  -0.91930  -0.89494  -0.89477  -0.89152
 Alpha  occ. eigenvalues --   -0.89146  -0.88245  -0.88220  -0.87828  -0.87794
 Alpha  occ. eigenvalues --   -0.87684  -0.87631  -0.87232  -0.87121  -0.85000
 Alpha  occ. eigenvalues --   -0.84940  -0.83894  -0.83875  -0.82932  -0.82926
 Alpha  occ. eigenvalues --   -0.82653  -0.82607  -0.81595  -0.81543  -0.80554
 Alpha  occ. eigenvalues --   -0.80442  -0.78755  -0.78636  -0.77176  -0.77145
 Alpha  occ. eigenvalues --   -0.76898  -0.76892  -0.75881  -0.75839  -0.74856
 Alpha  occ. eigenvalues --   -0.74803  -0.72732  -0.72699  -0.71631  -0.71582
 Alpha  occ. eigenvalues --   -0.69864  -0.69756  -0.68831  -0.68828  -0.67602
 Alpha  occ. eigenvalues --   -0.67599  -0.67200  -0.67177  -0.65272  -0.65244
 Alpha  occ. eigenvalues --   -0.64811  -0.64770  -0.64654  -0.64578  -0.64227
 Alpha  occ. eigenvalues --   -0.64203  -0.62277  -0.62255  -0.60400  -0.60340
 Alpha  occ. eigenvalues --   -0.59797  -0.59762  -0.58993  -0.58945  -0.58461
 Alpha  occ. eigenvalues --   -0.58426  -0.57554  -0.57542  -0.57266  -0.57237
 Alpha  occ. eigenvalues --   -0.56268  -0.56204  -0.55935  -0.55885  -0.55478
 Alpha  occ. eigenvalues --   -0.55452  -0.55297  -0.55247  -0.54487  -0.54481
 Alpha  occ. eigenvalues --   -0.53913  -0.53853  -0.53257  -0.53228  -0.53180
 Alpha  occ. eigenvalues --   -0.53142  -0.52902  -0.52872  -0.52715  -0.52669
 Alpha  occ. eigenvalues --   -0.52398  -0.52395  -0.51884  -0.51872  -0.51659
 Alpha  occ. eigenvalues --   -0.51574  -0.51201  -0.51153  -0.50531  -0.50477
 Alpha  occ. eigenvalues --   -0.49989  -0.49981  -0.49877  -0.49867  -0.49489
 Alpha  occ. eigenvalues --   -0.49473  -0.49203  -0.49172  -0.49105  -0.49054
 Alpha  occ. eigenvalues --   -0.48558  -0.48551  -0.48420  -0.48403  -0.48376
 Alpha  occ. eigenvalues --   -0.48340  -0.47653  -0.47595  -0.47255  -0.47119
 Alpha  occ. eigenvalues --   -0.46755  -0.46709  -0.46554  -0.46513  -0.46317
 Alpha  occ. eigenvalues --   -0.46271  -0.46120  -0.46086  -0.45822  -0.45779
 Alpha  occ. eigenvalues --   -0.45209  -0.45160  -0.44535  -0.44514  -0.44476
 Alpha  occ. eigenvalues --   -0.44465  -0.44128  -0.44102  -0.44077  -0.44047
 Alpha  occ. eigenvalues --   -0.43977  -0.43940  -0.43552  -0.43452  -0.43386
 Alpha  occ. eigenvalues --   -0.43344  -0.42985  -0.42929  -0.42901  -0.42656
 Alpha  occ. eigenvalues --   -0.42611  -0.42553  -0.41966  -0.41963  -0.41669
 Alpha  occ. eigenvalues --   -0.41662  -0.41491  -0.41459  -0.41099  -0.40990
 Alpha  occ. eigenvalues --   -0.40827  -0.40782  -0.40723  -0.40699  -0.40529
 Alpha  occ. eigenvalues --   -0.40493  -0.40227  -0.40191  -0.39423  -0.39397
 Alpha  occ. eigenvalues --   -0.38427  -0.38351  -0.37705  -0.37654  -0.37278
 Alpha  occ. eigenvalues --   -0.37266  -0.37221  -0.37200  -0.36769  -0.36670
 Alpha  occ. eigenvalues --   -0.36217  -0.36150  -0.34254  -0.34244  -0.33860
 Alpha  occ. eigenvalues --   -0.33726  -0.33176  -0.33144  -0.31304  -0.31275
 Alpha  occ. eigenvalues --   -0.30993  -0.30973  -0.29986  -0.29955  -0.29407
 Alpha  occ. eigenvalues --   -0.29328  -0.29279  -0.29212  -0.24038  -0.24037
 Alpha  occ. eigenvalues --   -0.21118  -0.21085
 Alpha virt. eigenvalues --   -0.08793  -0.08732  -0.01708  -0.01684  -0.00030
 Alpha virt. eigenvalues --   -0.00016   0.02207   0.02243   0.03170   0.03230
 Alpha virt. eigenvalues --    0.04729   0.04760   0.05142   0.05167   0.06183

 Mulliken charges:
               1
     1  Mg   0.838826
     2  C   -0.002948
     3  C   -0.094111
     4  C   -0.045865
     5  C   -0.063976
     6  N   -0.256779
     7  C   -0.052456
     8  C   -0.014005
     9  C   -0.086995
    10  C    0.046316
    11  C    0.104820
    12  C    0.053443
    13  C   -0.071805
    14  H    0.036177
    15  N   -0.433135
    16  C    0.168445
    17  C   -0.177177
    18  C   -0.004008
    19  C    0.148708
    20  C    0.110193
    21  C    0.012293
    22  O   -0.249644
    23  C    0.062473
    24  N   -0.341161
    25  C    0.041227
    26  C   -0.028138
    27  C   -0.024011
    28  C    0.074892
    29  C    0.076186
    30  C    0.035126
    31  C   -0.004507
    32  N   -0.310484
    33  C    0.080429
    34  C   -0.169695
    35  C    0.008359
    36  C    0.082997
    37  C    0.127306
    38  C    0.046136
    39  O   -0.188433
    40  C   -0.005339
    41  C    0.212858
    42  O   -0.257043
    43  O   -0.304818
    44  C    0.157690
    45  H   -0.017637
    46  H   -0.016858
    47  H   -0.041487
    48  H    0.000912
    49  H   -0.004033
    50  H    0.025456
    51  H    0.016426
    52  H    0.016624
    53  H    0.011235
    54  H    0.044164
    55  H    0.017829
    56  H    0.017947
    57  H    0.005861
    58  H    0.026776
    59  H    0.039576
    60  H    0.037309
    61  H    0.035630
    62  H    0.031546
    63  H    0.016564
    64  H    0.009427
    65  H    0.023184
    66  H    0.012514
    67  H    0.004721
    68  H    0.006344
    69  H    0.004741
    70  H    0.008780
    71  H    0.018214
    72  H    0.028999
    73  H    0.047610
    74  H    0.009126
    75  H    0.045969
    76  H    0.035114
    77  H    0.042924
    78  H    0.046392
    79  H    0.053734
    80  Mg   0.837894
    81  C   -0.016820
    82  C   -0.087783
    83  C   -0.045531
    84  C   -0.064904
    85  N   -0.254557
    86  C   -0.049840
    87  C   -0.015072
    88  C   -0.090509
    89  C    0.045744
    90  C    0.114381
    91  C    0.062521
    92  C   -0.077918
    93  H    0.034957
    94  N   -0.423488
    95  C    0.162921
    96  C   -0.174622
    97  C   -0.007818
    98  C    0.152146
    99  C    0.099371
   100  C    0.015578
   101  O   -0.253189
   102  C    0.061188
   103  N   -0.350058
   104  C    0.037512
   105  C   -0.019835
   106  C   -0.034800
   107  C    0.088931
   108  C    0.073663
   109  C    0.034718
   110  C   -0.007686
   111  N   -0.324132
   112  C    0.078487
   113  C   -0.163096
   114  C    0.002249
   115  C    0.096220
   116  C    0.131481
   117  C    0.042399
   118  O   -0.187833
   119  C    0.000906
   120  C    0.211277
   121  O   -0.250970
   122  O   -0.305650
   123  C    0.152002
   124  H   -0.019678
   125  H   -0.015579
   126  H   -0.040416
   127  H   -0.000654
   128  H   -0.004319
   129  H    0.022446
   130  H    0.014406
   131  H    0.016271
   132  H    0.013933
   133  H    0.037717
   134  H    0.020768
   135  H    0.019590
   136  H    0.008758
   137  H    0.026118
   138  H    0.039812
   139  H    0.038231
   140  H    0.036384
   141  H    0.033927
   142  H    0.014425
   143  H    0.012400
   144  H    0.025131
   145  H    0.011602
   146  H    0.005662
   147  H    0.006270
   148  H    0.003695
   149  H    0.010927
   150  H    0.018054
   151  H    0.030095
   152  H    0.046076
   153  H    0.008555
   154  H    0.046916
   155  H    0.034999
   156  H    0.043921
   157  H    0.049489
   158  H    0.053632
 Sum of Mulliken charges =  -0.00000

 Dipole moment (field-independent basis, Debye):
    X=             -0.3661    Y=              6.3853    Z=             -4.0081  Tot=              7.5479
 Quadrupole moment (field-independent basis, Debye-Ang):
   XX=           -363.4257   YY=           -527.9099   ZZ=           -479.2289
   XY=            -29.6746   XZ=            -40.3911   YZ=             26.6297

 Normal termination of Gaussian 16 at Sun Sep 12 11:51:27 2021.
