 Gaussian 16, Revision A.03,
 Gaussian 16:  ES64L-G16RevA.03 25-Dec-2016

 -----------------------------------
 #p cam-b3lyp/Def2SVP td=(nstates=5)
 -----------------------------------

 --------------------------------
 TDDFT excited states in gaussian
 --------------------------------
 Symbolic Z-matrix:
 Charge =  0 Multiplicity = 1

                         Standard orientation:
 ---------------------------------------------------------------------
 Center     Atomic      Atomic             Coordinates (Angstroms)
 Number     Number       Type             X           Y           Z
 ---------------------------------------------------------------------
      1         12           0        7.631576   -1.009782    0.353727
      2          6           0        8.026633    2.212241   -1.154487
      3          6           0        8.448603    0.447471    3.328949
      4          6           0        7.733695   -3.913743    1.623845
      5          6           0        7.964868   -2.379273   -2.833603
      6          7           0        8.149201    1.074362    0.891366
      7          6           0        8.206453    2.226365    0.230472
      8          6           0        8.400802    3.462296    1.158953
      9          6           0        9.075173    2.735557    2.407581
     10          6           0        8.496403    1.344173    2.220494
     11          6           0       10.595372    2.651626    2.315655
     12          6           0        7.040391    4.130916    1.551330
     13          6           0        7.153791    5.522476    2.180658
     14          1           0        6.128756    6.511388    1.882823
     15          7           0        7.552261   -1.585884    2.241759
     16          6           0        7.908562   -0.856837    3.326575
     17          6           0        7.666207   -1.725175    4.498724
     18          6           0        7.319887   -3.083288    3.995051
     19          6           0        7.549987   -2.919941    2.582341
     20          6           0        7.724284   -1.234009    5.912630
     21          6           0        6.865368   -4.333403    4.679710
     22          8           0        6.843491   -5.465040    4.085157
     23          6           0        6.525965   -4.213269    6.109191
     24          7           0        8.040349   -2.895033   -0.444000
     25          6           0        7.959656   -3.996103    0.311060
     26          6           0        8.014100   -5.238503   -0.527639
     27          6           0        7.904385   -4.752831   -2.044820
     28          6           0        7.887145   -3.223393   -1.802347
     29          6           0        9.269455   -6.105451   -0.358831
     30          6           0        6.775041   -5.376365   -2.902845
     31          6           0        5.428215   -4.918298   -2.389686
     32          7           0        7.763951   -0.245757   -1.673534
     33          6           0        7.921219   -0.995167   -2.848407
     34          6           0        8.069247   -0.034416   -3.957061
     35          6           0        8.003984    1.215250   -3.343937
     36          6           0        7.852762    1.045701   -1.937994
     37          6           0        8.296013   -0.365574   -5.322106
     38          6           0        8.051538    2.654182   -3.546596
     39          8           0        8.071768    3.390651   -4.533863
     40          6           0        8.190426    3.356222   -2.124036
     41          6           0        7.185195    4.474153   -2.068817
     42          8           0        5.960660    4.233657   -2.062414
     43          8           0        7.816098    5.626127   -1.794121
     44          6           0        6.871999    6.771214   -1.696096
     45          1           0        8.918662    0.744243    4.268583
     46          1           0        7.664530   -4.934150    2.006500
     47          1           0        7.988050   -2.732584   -3.866118
     48          1           0        9.072269    4.225491    0.765138
     49          1           0        8.742121    3.160356    3.354335
     50          1           0       10.955109    2.990975    1.344392
     51          1           0       10.838359    1.599449    2.465236
     52          1           0       11.063563    3.187632    3.141653
     53          1           0        6.599214    3.585431    2.385519
     54          1           0        6.371255    4.177557    0.691442
     55          1           0        8.147616    5.946423    2.034069
     56          1           0        7.060996    5.417054    3.261619
     57          1           0        8.164003   -0.239267    5.973300
     58          1           0        8.427866   -1.874854    6.443667
     59          1           0        6.750495   -1.273251    6.401023
     60          1           0        7.396668   -3.851733    6.656656
     61          1           0        6.136774   -5.185756    6.408605
     62          1           0        5.753066   -3.453036    6.225904
     63          1           0        7.177802   -5.899132   -0.302694
     64          1           0        8.813607   -4.963361   -2.608439
     65          1           0        9.055238   -7.134478   -0.069141
     66          1           0        9.918115   -5.620865    0.370352
     67          1           0        9.918341   -6.145404   -1.233341
     68          1           0        6.795423   -6.462843   -2.824775
     69          1           0        6.845109   -5.118422   -3.959636
     70          1           0        5.230084   -5.611821   -1.573229
     71          1           0        4.672685   -5.008790   -3.170837
     72          1           0        5.484969   -3.917666   -1.960733
     73          1           0        7.646455    0.286338   -5.906104
     74          1           0        8.080475   -1.416114   -5.515784
     75          1           0        9.357031   -0.133409   -5.412644
     76          1           0        9.214195    3.722400   -2.053804
     77          1           0        7.211928    7.528841   -2.402272
     78          1           0        6.826544    7.046000   -0.642137
     79          1           0        5.858682    6.592807   -2.057618
     80         12           0       -8.223264   -0.353064   -0.284563
     81          6           0       -5.738592    2.222646   -0.017855
     82          6           0      -10.091298    1.425110    1.947733
     83          6           0      -10.223711   -2.812279   -0.150807
     84          6           0       -5.733002   -2.430355   -1.560945
     85          7           0       -7.855260    1.562341    0.758528
     86          6           0       -6.903067    2.482720    0.734350
     87          6           0       -7.250984    3.788351    1.498447
     88          6           0       -8.343534    3.189980    2.511930
     89          6           0       -8.824712    2.003117    1.679774
     90          6           0       -7.740401    2.656477    3.800708
     91          6           0       -7.874712    4.881291    0.561186
     92          6           0       -7.952491    6.282804    1.170654
     93          1           0       -7.749471    7.434412    0.295975
     94          7           0      -10.102547   -0.447023    0.346345
     95          6           0      -10.703203    0.368445    1.238264
     96          6           0      -12.079729   -0.131600    1.377176
     97          6           0      -12.194059   -1.407352    0.619487
     98          6           0      -10.808699   -1.620411    0.251428
     99          6           0      -13.151874    0.627689    2.103390
    100          6           0      -13.355780   -2.296030    0.292597
    101          8           0      -13.188939   -3.477911   -0.174448
    102          6           0      -14.691240   -1.777312    0.622738
    103          7           0       -7.969434   -2.394912   -0.582507
    104          6           0       -9.014350   -3.238477   -0.515655
    105          6           0       -8.643994   -4.607744   -1.033662
    106          6           0       -7.195165   -4.441381   -1.690013
    107          6           0       -6.928981   -2.959998   -1.343536
    108          6           0       -8.604999   -5.725145    0.008584
    109          6           0       -7.035231   -4.895335   -3.166840
    110          6           0       -7.830233   -3.985481   -4.075431
    111          7           0       -6.163635   -0.119048   -0.893845
    112          6           0       -5.296947   -1.124712   -1.375056
    113          6           0       -3.966121   -0.506842   -1.547023
    114          6           0       -4.146797    0.820156   -1.128800
    115          6           0       -5.490046    1.010243   -0.705634
    116          6           0       -2.789227   -1.175368   -1.987607
    117          6           0       -3.503972    2.100579   -0.939047
    118          8           0       -2.396081    2.564403   -1.205838
    119          6           0       -4.473940    3.032434   -0.092167
    120          6           0       -4.539393    4.373253   -0.770724
    121          8           0       -5.047081    4.485806   -1.900416
    122          8           0       -4.192469    5.329950    0.109463
    123          6           0       -4.252742    6.678944   -0.513754
    124          1           0      -10.654260    1.785489    2.809175
    125          1           0      -10.899757   -3.667007   -0.227535
    126          1           0       -4.928091   -2.985944   -2.046862
    127          1           0       -6.428097    4.223120    2.053063
    128          1           0       -9.155337    3.893375    2.677943
    129          1           0       -6.660903    2.660194    3.772123
    130          1           0       -8.112677    1.645572    3.903320
    131          1           0       -8.132759    3.210619    4.658213
    132          1           0       -8.944565    4.673298    0.431191
    133          1           0       -7.353157    4.922893   -0.375234
    134          1           0       -7.338168    6.373829    2.074680
    135          1           0       -8.973187    6.452258    1.522032
    136          1           0      -12.731475    1.448861    2.696980
    137          1           0      -13.578770   -0.054067    2.846920
    138          1           0      -13.948503    0.970419    1.439622
    139          1           0      -14.742381   -1.563185    1.687631
    140          1           0      -15.395680   -2.515083    0.233737
    141          1           0      -14.834488   -0.823547    0.102712
    142          1           0       -9.340110   -4.933863   -1.796671
    143          1           0       -6.435591   -5.030536   -1.155431
    144          1           0       -9.270531   -6.574252   -0.236731
    145          1           0       -8.864981   -5.303838    0.970590
    146          1           0       -7.618680   -6.144767    0.199079
    147          1           0       -7.442778   -5.900435   -3.300339
    148          1           0       -6.003736   -4.918908   -3.502171
    149          1           0       -8.840589   -4.401446   -4.018525
    150          1           0       -7.443426   -4.025873   -5.091692
    151          1           0       -7.870369   -2.966093   -3.674338
    152          1           0       -2.303702   -0.516948   -2.695601
    153          1           0       -3.023357   -2.138870   -2.435501
    154          1           0       -2.258525   -1.282331   -1.037777
    155          1           0       -4.062858    3.103240    0.915584
    156          1           0       -3.268843    7.138244   -0.377150
    157          1           0       -5.115512    7.187034   -0.043420
    158          1           0       -4.361826    6.729031   -1.590807
 ---------------------------------------------------------------------

 SCF Done:  E(RCAM-B3LYP) =  -4069.81122175     A.U. after   19 cycles

 Excitation energies and oscillator strengths:

 Excited State   1:      Singlet-A      1.6730 eV  741.10 nm  f=0.2750  <S**2>=0.000
     309 -> 315        0.14559
     311 -> 313        0.57752
     312 -> 314       -0.37050
 This state for optimization and/or second-order correction.
 Total Energy, E(TD-HF/TD-DFT) =  -4069.74974120
 Copying the excited state density for this state as the 1-particle RhoCI density.

 Excited State   2:      Singlet-A      1.6825 eV  736.90 nm  f=0.5060  <S**2>=0.000
     310 -> 316        0.14800
     311 -> 313        0.37029
     312 -> 314        0.57697

 Excited State   3:      Singlet-A      2.1858 eV  567.21 nm  f=0.0372  <S**2>=0.000
     309 -> 313        0.60565
     310 -> 314       -0.21523
     311 -> 315       -0.25724

 Excited State   4:      Singlet-A      2.1921 eV  565.60 nm  f=0.1543  <S**2>=0.000
     309 -> 313        0.21404
     310 -> 314        0.60373
     312 -> 316       -0.26220

 Excited State   5:      Singlet-A      2.7472 eV  451.31 nm  f=0.0000  <S**2>=0.000
     312 -> 313        0.70680

 The electronic state is 1-A.
 Alpha  occ. eigenvalues --  -46.87601 -46.87573 -19.26230 -19.26014 -19.19035
 Alpha  occ. eigenvalues --  -19.18726 -19.18660 -19.18637 -19.17956 -19.17904
 Alpha  occ. eigenvalues --  -14.42414 -14.42256 -14.41273 -14.41265 -14.39264
 Alpha  occ. eigenvalues --  -14.39213 -14.38505 -14.38387 -10.38969 -10.38797
 Alpha  occ. eigenvalues --  -10.35316 -10.35296 -10.34173 -10.34085 -10.31640
 Alpha  occ. eigenvalues --  -10.31410 -10.31218 -10.31206 -10.30944 -10.30715
 Alpha  occ. eigenvalues --  -10.30372 -10.30318 -10.30302 -10.30262 -10.30063
 Alpha  occ. eigenvalues --  -10.30037 -10.29802 -10.29737 -10.29443 -10.29352
 Alpha  occ. eigenvalues --  -10.29305 -10.29074 -10.28648 -10.28592 -10.28542
 Alpha  occ. eigenvalues --  -10.28313 -10.28312 -10.28169 -10.28072 -10.27924
 Alpha  occ. eigenvalues --  -10.27898 -10.27602 -10.27586 -10.27540 -10.27442
 Alpha  occ. eigenvalues --  -10.27401 -10.27395 -10.27394 -10.27374 -10.27352
 Alpha  occ. eigenvalues --  -10.27323 -10.27300 -10.27300 -10.27205 -10.26936
 Alpha  occ. eigenvalues --  -10.26933 -10.26621 -10.26463 -10.26352 -10.26279
 Alpha  occ. eigenvalues --  -10.26063 -10.26062 -10.26047 -10.25973 -10.25846
 Alpha  occ. eigenvalues --  -10.25838 -10.25702 -10.25653 -10.25331 -10.25303
 Alpha  occ. eigenvalues --  -10.24767 -10.24654 -10.24636 -10.24605 -10.24602
 Alpha  occ. eigenvalues --  -10.24548  -3.16343  -3.16323  -1.91225  -1.91205
 Alpha  occ. eigenvalues --   -1.90812  -1.90794  -1.90654  -1.90630  -1.16522
 Alpha  occ. eigenvalues --   -1.16360  -1.08509  -1.08407  -1.07063  -1.06891
 Alpha  occ. eigenvalues --   -1.06819  -1.06355  -1.04410  -1.04386  -1.03575
 Alpha  occ. eigenvalues --   -1.03575  -1.03044  -1.02949  -1.02221  -1.02021
 Alpha  occ. eigenvalues --   -0.91888  -0.91769  -0.89409  -0.89349  -0.89079
 Alpha  occ. eigenvalues --   -0.88987  -0.88139  -0.88121  -0.87681  -0.87677
 Alpha  occ. eigenvalues --   -0.87599  -0.87482  -0.87103  -0.87038  -0.84922
 Alpha  occ. eigenvalues --   -0.84784  -0.83793  -0.83772  -0.82856  -0.82812
 Alpha  occ. eigenvalues --   -0.82573  -0.82456  -0.81492  -0.81366  -0.80396
 Alpha  occ. eigenvalues --   -0.80349  -0.78618  -0.78544  -0.77062  -0.77037
 Alpha  occ. eigenvalues --   -0.76814  -0.76734  -0.75750  -0.75721  -0.74728
 Alpha  occ. eigenvalues --   -0.74720  -0.72604  -0.72588  -0.71497  -0.71487
 Alpha  occ. eigenvalues --   -0.69752  -0.69679  -0.68746  -0.68680  -0.67509
 Alpha  occ. eigenvalues --   -0.67452  -0.67123  -0.67019  -0.65188  -0.65083
 Alpha  occ. eigenvalues --   -0.64680  -0.64656  -0.64564  -0.64424  -0.64119
 Alpha  occ. eigenvalues --   -0.64096  -0.62174  -0.62070  -0.60271  -0.60256
 Alpha  occ. eigenvalues --   -0.59716  -0.59607  -0.58901  -0.58797  -0.58330
 Alpha  occ. eigenvalues --   -0.58311  -0.57439  -0.57361  -0.57145  -0.57120
 Alpha  occ. eigenvalues --   -0.56122  -0.56108  -0.55787  -0.55745  -0.55360
 Alpha  occ. eigenvalues --   -0.55341  -0.55154  -0.55152  -0.54392  -0.54317
 Alpha  occ. eigenvalues --   -0.53837  -0.53692  -0.53138  -0.53120  -0.53053
 Alpha  occ. eigenvalues --   -0.53030  -0.52809  -0.52705  -0.52594  -0.52581
 Alpha  occ. eigenvalues --   -0.52318  -0.52277  -0.51757  -0.51718  -0.51578
 Alpha  occ. eigenvalues --   -0.51417  -0.51096  -0.50999  -0.50418  -0.50403
 Alpha  occ. eigenvalues --   -0.49904  -0.49873  -0.49786  -0.49746  -0.49407
 Alpha  occ. eigenvalues --   -0.49327  -0.49110  -0.49018  -0.49008  -0.48902
 Alpha  occ. eigenvalues --   -0.48460  -0.48389  -0.48296  -0.48286  -0.48257
 Alpha  occ. eigenvalues --   -0.48245  -0.47511  -0.47509  -0.47117  -0.47035
 Alpha  occ. eigenvalues --   -0.46623  -0.46613  -0.46477  -0.46354  -0.46180
 Alpha  occ. eigenvalues --   -0.46173  -0.45988  -0.45967  -0.45712  -0.45612
 Alpha  occ. eigenvalues --   -0.45127  -0.45036  -0.44422  -0.44384  -0.44374
 Alpha  occ. eigenvalues --   -0.44334  -0.44039  -0.43991  -0.43970  -0.43900
 Alpha  occ. eigenvalues --   -0.43844  -0.43822  -0.43454  -0.43297  -0.43280
 Alpha  occ. eigenvalues --   -0.43200  -0.42836  -0.42831  -0.42792  -0.42517
 Alpha  occ. eigenvalues --   -0.42473  -0.42422  -0.41882  -0.41828  -0.41564
 Alpha  occ. eigenvalues --   -0.41509  -0.41381  -0.41338  -0.40956  -0.40905
 Alpha  occ. eigenvalues --   -0.40686  -0.40657  -0.40648  -0.40624  -0.40412
 Alpha  occ. eigenvalues --   -0.40399  -0.40157  -0.40020  -0.39348  -0.39288
 Alpha  occ. eigenvalues --   -0.38301  -0.38273  -0.37578  -0.37538  -0.37184
 Alpha  occ. eigenvalues --   -0.37146  -0.37116  -0.37057  -0.36660  -0.36477
 Alpha  occ. eigenvalues --   -0.36126  -0.35975  -0.34162  -0.34092  -0.33743
 Alpha  occ. eigenvalues --   -0.33495  -0.33084  -0.32987  -0.31196  -0.31189
 Alpha  occ. eigenvalues --   -0.30885  -0.30844  -0.29812  -0.29807  -0.29265
 Alpha  occ. eigenvalues --   -0.29236  -0.29124  -0.29105  -0.23947  -0.23887
 Alpha  occ. eigenvalues --   -0.21028  -0.20939
 Alpha virt. eigenvalues --   -0.08699  -0.08586  -0.01599  -0.01565   0.00058
 Alpha virt. eigenvalues --    0.00122   0.02321   0.02399   0.03314   0.03365
 Alpha virt. eigenvalues --    0.04808   0.04914   0.05288   0.05368   0.06254

 Mulliken charges:
               1
     1  Mg   0.839738
     2  C   -0.002183
     3  C   -0.094053
     4  C   -0.046120
     5  C   -0.064186
     6  N   -0.256710
     7  C   -0.052150
     8  C   -0.014169
     9  C   -0.087015
    10  C    0.046477
    11  C    0.104928
    12  C    0.053436
    13  C   -0.071741
    14  H    0.036722
    15  N   -0.432998
    16  C    0.168468
    17  C   -0.177320
    18  C   -0.004269
    19  C    0.148717
    20  C    0.110302
    21  C    0.012097
    22  O   -0.250159
    23  C    0.062541
    24  N   -0.341168
    25  C    0.041146
    26  C   -0.028021
    27  C   -0.023954
    28  C    0.074996
    29  C    0.076319
    30  C    0.035212
    31  C   -0.004459
    32  N   -0.310665
    33  C    0.080896
    34  C   -0.169379
    35  C    0.008544
    36  C    0.083704
    37  C    0.127162
    38  C    0.046831
    39  O   -0.188076
    40  C   -0.005618
    41  C    0.212495
    42  O   -0.254906
    43  O   -0.305373
    44  C    0.157487
    45  H   -0.018015
    46  H   -0.017347
    47  H   -0.041716
    48  H    0.000735
    49  H   -0.004212
    50  H    0.025337
    51  H    0.016193
    52  H    0.016233
    53  H    0.011468
    54  H    0.045624
    55  H    0.017259
    56  H    0.017451
    57  H    0.005715
    58  H    0.026328
    59  H    0.039278
    60  H    0.037151
    61  H    0.035090
    62  H    0.031500
    63  H    0.016165
    64  H    0.009208
    65  H    0.022765
    66  H    0.012477
    67  H    0.004484
    68  H    0.005816
    69  H    0.004706
    70  H    0.008265
    71  H    0.017792
    72  H    0.029862
    73  H    0.048191
    74  H    0.008894
    75  H    0.045663
    76  H    0.034686
    77  H    0.042381
    78  H    0.045959
    79  H    0.055085
    80  Mg   0.837677
    81  C   -0.016795
    82  C   -0.087886
    83  C   -0.045588
    84  C   -0.064982
    85  N   -0.254476
    86  C   -0.049921
    87  C   -0.014991
    88  C   -0.090466
    89  C    0.045590
    90  C    0.114466
    91  C    0.062581
    92  C   -0.077753
    93  H    0.034937
    94  N   -0.423421
    95  C    0.162742
    96  C   -0.174848
    97  C   -0.007978
    98  C    0.151982
    99  C    0.099458
   100  C    0.015430
   101  O   -0.253396
   102  C    0.061253
   103  N   -0.350075
   104  C    0.037379
   105  C   -0.019744
   106  C   -0.034872
   107  C    0.089051
   108  C    0.073724
   109  C    0.034757
   110  C   -0.007650
   111  N   -0.324230
   112  C    0.078566
   113  C   -0.162983
   114  C    0.002740
   115  C    0.096204
   116  C    0.131584
   117  C    0.042516
   118  O   -0.185455
   119  C    0.000729
   120  C    0.211764
   121  O   -0.250845
   122  O   -0.305820
   123  C    0.151967
   124  H   -0.020009
   125  H   -0.015778
   126  H   -0.040280
   127  H   -0.000815
   128  H   -0.004521
   129  H    0.022257
   130  H    0.014347
   131  H    0.015878
   132  H    0.013880
   133  H    0.037927
   134  H    0.020505
   135  H    0.019385
   136  H    0.008539
   137  H    0.025838
   138  H    0.039590
   139  H    0.038100
   140  H    0.036188
   141  H    0.033847
   142  H    0.014291
   143  H    0.012404
   144  H    0.024956
   145  H    0.011514
   146  H    0.005592
   147  H    0.006080
   148  H    0.003738
   149  H    0.010805
   150  H    0.017979
   151  H    0.030234
   152  H    0.047463
   153  H    0.008243
   154  H    0.047118
   155  H    0.034759
   156  H    0.044106
   157  H    0.048919
   158  H    0.053995
 Sum of Mulliken charges =  -0.00000

 Dipole moment (field-independent basis, Debye):
    X=             -0.8642    Y=              0.9878    Z=              7.3955  Tot=              7.5110
 Quadrupole moment (field-independent basis, Debye-Ang):
   XX=           -458.1667   YY=           -491.1641   ZZ=           -498.8253
   XY=            -29.3950   XZ=              2.6652   YZ=             53.9499

 Normal termination of Gaussian 16 at Sun Sep 12 03:02:07 2021.
