 Gaussian 16, Revision A.03,
 Gaussian 16:  ES64L-G16RevA.03 25-Dec-2016

 -----------------------------------
 #p cam-b3lyp/Def2SVP td=(nstates=5)
 -----------------------------------

 --------------------------------
 TDDFT excited states in gaussian
 --------------------------------
 Symbolic Z-matrix:
 Charge =  0 Multiplicity = 1

                         Standard orientation:
 ---------------------------------------------------------------------
 Center     Atomic      Atomic             Coordinates (Angstroms)
 Number     Number       Type             X           Y           Z
 ---------------------------------------------------------------------
      1         12           0        4.565341    0.429319    1.231174
      2          6           0        5.244432   -2.525412   -0.671617
      3          6           0        6.125319    2.196824   -1.235698
      4          6           0        4.382048    2.986703    3.097403
      5          6           0        4.099070   -1.637765    3.998017
      6          7           0        5.520995   -0.197587   -0.664706
      7          6           0        5.661274   -1.353291   -1.306455
      8          6           0        6.224482   -1.193815   -2.750317
      9          6           0        6.968997    0.205347   -2.576991
     10          6           0        6.134685    0.786353   -1.449038
     11          6           0        8.412446    0.072724   -2.102260
     12          6           0        5.089197   -1.109357   -3.825364
     13          6           0        5.548997   -1.280828   -5.276066
     14          1           0        4.674659   -1.973302   -6.210605
     15          7           0        4.716014    2.349486    0.791739
     16          6           0        5.375637    2.890044   -0.260868
     17          6           0        5.193589    4.353200   -0.148117
     18          6           0        4.535529    4.630473    1.158853
     19          6           0        4.542021    3.318617    1.754142
     20          6           0        5.579953    5.316111   -1.228522
     21          6           0        3.997226    5.881460    1.778042
     22          8           0        3.677163    5.945293    3.014189
     23          6           0        3.936717    7.070959    0.909439
     24          7           0        4.497204    0.673230    3.303250
     25          6           0        4.359332    1.885555    3.851194
     26          6           0        4.051784    1.790810    5.316246
     27          6           0        3.766469    0.247254    5.609132
     28          6           0        4.056409   -0.318421    4.196965
     29          6           0        5.148166    2.295974    6.264279
     30          6           0        2.414911   -0.102927    6.280761
     31          6           0        1.277303    0.191230    5.328701
     32          7           0        4.474494   -1.709152    1.591364
     33          6           0        4.293666   -2.349288    2.825949
     34          6           0        4.411256   -3.798733    2.582332
     35          6           0        4.670474   -3.900914    1.216971
     36          6           0        4.738213   -2.596720    0.648833
     37          6           0        4.337215   -4.818752    3.571529
     38          6           0        4.930421   -4.807493    0.110445
     39          8           0        4.906338   -6.030819   -0.032335
     40          6           0        5.433120   -3.949138   -1.133078
     41          6           0        4.661500   -4.404738   -2.341523
     42          8           0        3.433755   -4.199896   -2.431234
     43          8           0        5.520121   -4.792375   -3.297060
     44          6           0        4.819890   -5.228805   -4.534541
     45          1           0        6.795277    2.824481   -1.826582
     46          1           0        4.204761    3.837255    3.758892
     47          1           0        3.881450   -2.347805    4.797977
     48          1           0        6.939290   -1.961678   -3.046727
     49          1           0        6.883689    0.825019   -3.469432
     50          1           0        8.651594   -0.957027   -1.837039
     51          1           0        8.491909    0.719266   -1.228096
     52          1           0        9.102290    0.481546   -2.841015
     53          1           0        4.711665   -0.087816   -3.869914
     54          1           0        4.299465   -1.829931   -3.609905
     55          1           0        6.560501   -1.684583   -5.328505
     56          1           0        5.628150   -0.292221   -5.728383
     57          1           0        6.188909    4.836261   -1.993677
     58          1           0        6.243271    6.052973   -0.776027
     59          1           0        4.713682    5.817454   -1.660452
     60          1           0        4.938349    7.303304    0.547089
     61          1           0        3.443013    7.845898    1.494738
     62          1           0        3.339122    6.834839    0.028486
     63          1           0        3.165639    2.371933    5.568181
     64          1           0        4.513883   -0.188078    6.272858
     65          1           0        4.812639    3.080146    6.943396
     66          1           0        5.987305    2.636215    5.658166
     67          1           0        5.618799    1.523372    6.871738
     68          1           0        2.260219    0.513600    7.165583
     69          1           0        2.344302   -1.146625    6.587287
     70          1           0        1.106727    1.257193    5.475193
     71          1           0        0.393728   -0.386681    5.601693
     72          1           0        1.579811    0.049227    4.291007
     73          1           0        3.719010   -5.610172    3.147919
     74          1           0        3.912904   -4.439145    4.500755
     75          1           0        5.390398   -5.081361    3.670013
     76          1           0        6.501242   -4.139105   -1.233827
     77          1           0        5.158152   -6.241417   -4.754607
     78          1           0        5.006046   -4.459119   -5.283763
     79          1           0        3.743901   -5.385097   -4.449927
     80         12           0       -4.143885    0.507241   -1.022493
     81          6           0       -6.676697   -1.609296    0.386130
     82          6           0       -6.510709    2.955408   -1.220601
     83          6           0       -2.065335    2.245268   -2.673641
     84          6           0       -2.338870   -2.380459   -1.763326
     85          7           0       -6.282012    0.547403   -0.457641
     86          6           0       -7.120374   -0.296014    0.125584
     87          6           0       -8.486797    0.325471    0.520829
     88          6           0       -8.512103    1.539081   -0.530537
     89          6           0       -7.008793    1.722776   -0.728013
     90          6           0       -9.127223    1.163576   -1.868429
     91          6           0       -8.500557    0.847057    2.000615
     92          6           0       -9.888275    1.183048    2.551177
     93          1           0      -10.160643    0.917811    3.961117
     94          7           0       -4.103585    2.457737   -1.386511
     95          6           0       -5.154586    3.304116   -1.404069
     96          6           0       -4.601830    4.624986   -1.741607
     97          6           0       -3.163114    4.457979   -2.083517
     98          6           0       -3.057686    3.012656   -2.081259
     99          6           0       -5.401859    5.891324   -1.642661
    100          6           0       -2.066988    5.436755   -2.377966
    101          8           0       -0.949688    5.064384   -2.883752
    102          6           0       -2.374394    6.855283   -2.143918
    103          7           0       -2.548372    0.001530   -2.255750
    104          6           0       -1.773579    0.951423   -2.808322
    105          6           0       -0.532123    0.352265   -3.424909
    106          6           0       -0.515645   -1.177150   -2.957770
    107          6           0       -1.856072   -1.222261   -2.191863
    108          6           0       -0.447833    0.419347   -4.949633
    109          6           0        0.765150   -1.678893   -2.236310
    110          6           0        0.898285   -1.002323   -0.890978
    111          7           0       -4.336286   -1.600962   -0.590578
    112          6           0       -3.482606   -2.640881   -1.019385
    113          6           0       -4.087085   -3.912602   -0.572423
    114          6           0       -5.271627   -3.522693    0.070489
    115          6           0       -5.406696   -2.109344    0.009608
    116          6           0       -3.565597   -5.213758   -0.819707
    117          6           0       -6.443803   -3.986180    0.777517
    118          8           0       -6.828080   -5.075043    1.202310
    119          6           0       -7.468999   -2.778014    0.902828
    120          6           0       -7.950642   -2.723334    2.326743
    121          8           0       -7.163904   -2.448969    3.249986
    122          8           0       -9.294486   -2.788692    2.340163
    123          6           0       -9.820214   -2.726942    3.729986
    124          1           0       -7.226256    3.714818   -1.537109
    125          1           0       -1.264183    2.805416   -3.161361
    126          1           0       -1.788359   -3.317625   -1.869725
    127          1           0       -9.342164   -0.320590    0.363577
    128          1           0       -8.951064    2.431842   -0.092748
    129          1           0       -9.339049    0.106584   -1.931984
    130          1           0       -8.400025    1.449384   -2.617125
    131          1           0      -10.013723    1.774746   -2.060553
    132          1           0       -8.039231    1.842464    2.033715
    133          1           0       -8.011136    0.151528    2.654320
    134          1           0      -10.690383    0.778361    1.922057
    135          1           0      -10.028695    2.265541    2.501139
    136          1           0       -6.472454    5.682660   -1.525729
    137          1           0       -5.327402    6.393262   -2.613413
    138          1           0       -5.030446    6.564686   -0.867217
    139          1           0       -3.231171    7.143614   -2.748288
    140          1           0       -1.440367    7.390525   -2.325486
    141          1           0       -2.671447    6.980714   -1.096711
    142          1           0        0.359362    0.842714   -3.053679
    143          1           0       -0.617525   -1.864690   -3.810253
    144          1           0        0.460400    0.935305   -5.314283
    145          1           0       -1.338307    0.910093   -5.319447
    146          1           0       -0.486763   -0.543029   -5.457093
    147          1           0        1.654363   -1.406455   -2.810084
    148          1           0        0.788981   -2.754506   -2.096753
    149          1           0        1.369006   -0.046761   -1.140820
    150          1           0        1.528072   -1.590853   -0.226875
    151          1           0       -0.086179   -0.782581   -0.461815
    152          1           0       -3.659772   -5.767800    0.104772
    153          1           0       -2.531303   -5.170513   -1.154595
    154          1           0       -4.240288   -5.546781   -1.612899
    155          1           0       -8.283478   -2.965473    0.202064
    156          1           0      -10.446141   -3.612964    3.874467
    157          1           0      -10.314318   -1.741203    3.818963
    158          1           0       -9.108858   -2.836131    4.540243
 ---------------------------------------------------------------------

 SCF Done:  E(RCAM-B3LYP) =  -4069.81609519     A.U. after   19 cycles

 Excitation energies and oscillator strengths:

 Excited State   1:      Singlet-A      1.6427 eV  754.75 nm  f=0.0044  <S**2>=0.000
     309 -> 315       -0.11150
     310 -> 316        0.12250
     311 -> 313       -0.46051
     312 -> 314        0.51096
 This state for optimization and/or second-order correction.
 Total Energy, E(TD-HF/TD-DFT) =  -4069.75572632
 Copying the excited state density for this state as the 1-particle RhoCI density.

 Excited State   2:      Singlet-A      1.7032 eV  727.95 nm  f=0.6916  <S**2>=0.000
     309 -> 315        0.13527
     310 -> 316        0.12058
     311 -> 313        0.50838
     312 -> 314        0.45804

 Excited State   3:      Singlet-A      2.1809 eV  568.51 nm  f=0.0758  <S**2>=0.000
     309 -> 313        0.18139
     310 -> 314        0.61823
     312 -> 316       -0.25799

 Excited State   4:      Singlet-A      2.1968 eV  564.39 nm  f=0.1169  <S**2>=0.000
     309 -> 313        0.61432
     310 -> 314       -0.17813
     311 -> 315       -0.26936

 Excited State   5:      Singlet-A      2.3783 eV  521.31 nm  f=0.0000  <S**2>=0.000
     312 -> 313        0.70648

 The electronic state is 1-A.
 Alpha  occ. eigenvalues --  -46.87752 -46.87355 -19.26638 -19.26169 -19.19530
 Alpha  occ. eigenvalues --  -19.18967 -19.18703 -19.18560 -19.18223 -19.17805
 Alpha  occ. eigenvalues --  -14.42435 -14.42207 -14.41400 -14.41012 -14.39345
 Alpha  occ. eigenvalues --  -14.39062 -14.38578 -14.38293 -10.39493 -10.38891
 Alpha  occ. eigenvalues --  -10.35330 -10.35245 -10.34460 -10.33981 -10.31981
 Alpha  occ. eigenvalues --  -10.31603 -10.31426 -10.31009 -10.30924 -10.30778
 Alpha  occ. eigenvalues --  -10.30557 -10.30471 -10.30110 -10.30085 -10.30041
 Alpha  occ. eigenvalues --  -10.29886 -10.29748 -10.29589 -10.29528 -10.29179
 Alpha  occ. eigenvalues --  -10.29143 -10.29102 -10.28864 -10.28746 -10.28503
 Alpha  occ. eigenvalues --  -10.28495 -10.28360 -10.28175 -10.28142 -10.27911
 Alpha  occ. eigenvalues --  -10.27748 -10.27718 -10.27696 -10.27521 -10.27435
 Alpha  occ. eigenvalues --  -10.27380 -10.27378 -10.27355 -10.27303 -10.27300
 Alpha  occ. eigenvalues --  -10.27257 -10.27200 -10.27188 -10.26969 -10.26919
 Alpha  occ. eigenvalues --  -10.26838 -10.26814 -10.26503 -10.26335 -10.26268
 Alpha  occ. eigenvalues --  -10.26208 -10.26001 -10.25951 -10.25818 -10.25773
 Alpha  occ. eigenvalues --  -10.25514 -10.25427 -10.25353 -10.25105 -10.24917
 Alpha  occ. eigenvalues --  -10.24818 -10.24748 -10.24594 -10.24454 -10.24386
 Alpha  occ. eigenvalues --  -10.23991  -3.16477  -3.16105  -1.91357  -1.90988
 Alpha  occ. eigenvalues --   -1.90947  -1.90789  -1.90575  -1.90413  -1.16997
 Alpha  occ. eigenvalues --   -1.16459  -1.08711  -1.08415  -1.07101  -1.07074
 Alpha  occ. eigenvalues --   -1.06823  -1.06751  -1.04578  -1.04213  -1.03719
 Alpha  occ. eigenvalues --   -1.03354  -1.03194  -1.02707  -1.02377  -1.01796
 Alpha  occ. eigenvalues --   -0.92012  -0.91705  -0.89447  -0.89263  -0.89044
 Alpha  occ. eigenvalues --   -0.88880  -0.88208  -0.87835  -0.87703  -0.87666
 Alpha  occ. eigenvalues --   -0.87468  -0.87374  -0.87166  -0.86888  -0.85039
 Alpha  occ. eigenvalues --   -0.84747  -0.83866  -0.83373  -0.82852  -0.82680
 Alpha  occ. eigenvalues --   -0.82663  -0.82356  -0.81694  -0.81323  -0.80618
 Alpha  occ. eigenvalues --   -0.80173  -0.78720  -0.78359  -0.77200  -0.76992
 Alpha  occ. eigenvalues --   -0.76856  -0.76561  -0.75972  -0.75575  -0.74851
 Alpha  occ. eigenvalues --   -0.74439  -0.72737  -0.72368  -0.71670  -0.71287
 Alpha  occ. eigenvalues --   -0.69785  -0.69127  -0.68904  -0.68551  -0.67641
 Alpha  occ. eigenvalues --   -0.67317  -0.67267  -0.66988  -0.65359  -0.65018
 Alpha  occ. eigenvalues --   -0.64897  -0.64639  -0.64452  -0.64344  -0.64203
 Alpha  occ. eigenvalues --   -0.63675  -0.62437  -0.61975  -0.60353  -0.60054
 Alpha  occ. eigenvalues --   -0.59841  -0.59539  -0.58985  -0.58669  -0.58514
 Alpha  occ. eigenvalues --   -0.58102  -0.57743  -0.57303  -0.57271  -0.56869
 Alpha  occ. eigenvalues --   -0.56341  -0.56116  -0.55902  -0.55643  -0.55496
 Alpha  occ. eigenvalues --   -0.55363  -0.55228  -0.54881  -0.54597  -0.54078
 Alpha  occ. eigenvalues --   -0.53980  -0.53678  -0.53280  -0.53226  -0.53031
 Alpha  occ. eigenvalues --   -0.52965  -0.52846  -0.52674  -0.52621  -0.52482
 Alpha  occ. eigenvalues --   -0.52306  -0.51897  -0.51697  -0.51626  -0.51492
 Alpha  occ. eigenvalues --   -0.51438  -0.51211  -0.50835  -0.50414  -0.50260
 Alpha  occ. eigenvalues --   -0.49963  -0.49852  -0.49739  -0.49559  -0.49395
 Alpha  occ. eigenvalues --   -0.49267  -0.49208  -0.49138  -0.48963  -0.48830
 Alpha  occ. eigenvalues --   -0.48654  -0.48461  -0.48358  -0.48314  -0.48150
 Alpha  occ. eigenvalues --   -0.48015  -0.47680  -0.47305  -0.47254  -0.46848
 Alpha  occ. eigenvalues --   -0.46780  -0.46623  -0.46386  -0.46358  -0.46264
 Alpha  occ. eigenvalues --   -0.46154  -0.45936  -0.45888  -0.45745  -0.45528
 Alpha  occ. eigenvalues --   -0.45139  -0.44857  -0.44627  -0.44477  -0.44291
 Alpha  occ. eigenvalues --   -0.44161  -0.44156  -0.44063  -0.43989  -0.43898
 Alpha  occ. eigenvalues --   -0.43720  -0.43655  -0.43583  -0.43401  -0.43240
 Alpha  occ. eigenvalues --   -0.43097  -0.43028  -0.42917  -0.42689  -0.42595
 Alpha  occ. eigenvalues --   -0.42564  -0.42124  -0.41982  -0.41726  -0.41565
 Alpha  occ. eigenvalues --   -0.41504  -0.41368  -0.41139  -0.41097  -0.40890
 Alpha  occ. eigenvalues --   -0.40774  -0.40709  -0.40550  -0.40499  -0.40405
 Alpha  occ. eigenvalues --   -0.40325  -0.40039  -0.39836  -0.39304  -0.38815
 Alpha  occ. eigenvalues --   -0.38412  -0.37883  -0.37859  -0.37411  -0.37309
 Alpha  occ. eigenvalues --   -0.37266  -0.36988  -0.36948  -0.36784  -0.36510
 Alpha  occ. eigenvalues --   -0.36237  -0.35809  -0.34293  -0.34140  -0.33936
 Alpha  occ. eigenvalues --   -0.33647  -0.33175  -0.32863  -0.31245  -0.31120
 Alpha  occ. eigenvalues --   -0.31025  -0.30674  -0.30096  -0.29706  -0.29391
 Alpha  occ. eigenvalues --   -0.29283  -0.29065  -0.28922  -0.24066  -0.23726
 Alpha  occ. eigenvalues --   -0.21093  -0.20805
 Alpha virt. eigenvalues --   -0.08731  -0.08503  -0.01708  -0.01377  -0.00006
 Alpha virt. eigenvalues --    0.00192   0.02197   0.02492   0.03085   0.03892
 Alpha virt. eigenvalues --    0.04666   0.04701   0.05014   0.05372   0.06003

 Mulliken charges:
               1
     1  Mg   0.829819
     2  C   -0.005828
     3  C   -0.092742
     4  C   -0.045051
     5  C   -0.062919
     6  N   -0.255832
     7  C   -0.056336
     8  C   -0.010878
     9  C   -0.087283
    10  C    0.045550
    11  C    0.104730
    12  C    0.036464
    13  C   -0.071195
    14  H    0.034729
    15  N   -0.432313
    16  C    0.168716
    17  C   -0.174553
    18  C   -0.002322
    19  C    0.149393
    20  C    0.109416
    21  C    0.013885
    22  O   -0.249945
    23  C    0.060471
    24  N   -0.340188
    25  C    0.042025
    26  C   -0.028258
    27  C   -0.023881
    28  C    0.074432
    29  C    0.076207
    30  C    0.034936
    31  C   -0.005398
    32  N   -0.310769
    33  C    0.080915
    34  C   -0.169931
    35  C    0.007425
    36  C    0.078485
    37  C    0.127302
    38  C    0.044117
    39  O   -0.189061
    40  C   -0.005733
    41  C    0.216691
    42  O   -0.260313
    43  O   -0.303365
    44  C    0.157178
    45  H   -0.017727
    46  H   -0.016566
    47  H   -0.041077
    48  H    0.000296
    49  H   -0.003470
    50  H    0.025460
    51  H    0.017181
    52  H    0.016952
    53  H    0.012651
    54  H    0.054658
    55  H    0.018931
    56  H    0.019597
    57  H    0.005545
    58  H    0.026208
    59  H    0.044980
    60  H    0.036687
    61  H    0.034605
    62  H    0.037011
    63  H    0.017055
    64  H    0.009332
    65  H    0.023268
    66  H    0.012270
    67  H    0.004869
    68  H    0.006314
    69  H    0.005342
    70  H    0.008309
    71  H    0.020903
    72  H    0.029548
    73  H    0.047230
    74  H    0.010233
    75  H    0.045827
    76  H    0.036012
    77  H    0.044543
    78  H    0.047319
    79  H    0.052169
    80  Mg   0.837145
    81  C   -0.017729
    82  C   -0.088486
    83  C   -0.046094
    84  C   -0.065055
    85  N   -0.254655
    86  C   -0.049823
    87  C   -0.015071
    88  C   -0.090382
    89  C    0.045462
    90  C    0.114625
    91  C    0.062626
    92  C   -0.077499
    93  H    0.034117
    94  N   -0.423174
    95  C    0.162474
    96  C   -0.175316
    97  C   -0.008720
    98  C    0.152061
    99  C    0.099522
   100  C    0.015040
   101  O   -0.256448
   102  C    0.061786
   103  N   -0.350230
   104  C    0.037554
   105  C   -0.019232
   106  C   -0.039592
   107  C    0.088298
   108  C    0.075361
   109  C    0.040611
   110  C   -0.038675
   111  N   -0.324292
   112  C    0.079028
   113  C   -0.161798
   114  C    0.001765
   115  C    0.096640
   116  C    0.130249
   117  C    0.042383
   118  O   -0.188206
   119  C    0.000965
   120  C    0.211193
   121  O   -0.251378
   122  O   -0.305637
   123  C    0.152239
   124  H   -0.020765
   125  H   -0.017534
   126  H   -0.034107
   127  H   -0.001094
   128  H   -0.004944
   129  H    0.022120
   130  H    0.014310
   131  H    0.015477
   132  H    0.013960
   133  H    0.037468
   134  H    0.020560
   135  H    0.019337
   136  H    0.008344
   137  H    0.024843
   138  H    0.039049
   139  H    0.038204
   140  H    0.032825
   141  H    0.034786
   142  H    0.012848
   143  H    0.013039
   144  H    0.020967
   145  H    0.009941
   146  H    0.005407
   147  H    0.007367
   148  H    0.022144
   149  H    0.012783
   150  H    0.046806
   151  H    0.024239
   152  H    0.045961
   153  H    0.014241
   154  H    0.046003
   155  H    0.034480
   156  H    0.043560
   157  H    0.049256
   158  H    0.053209
 Sum of Mulliken charges =  -0.00000

 Dipole moment (field-independent basis, Debye):
    X=              0.9715    Y=              6.6079    Z=             -3.3160  Tot=              7.4568
 Quadrupole moment (field-independent basis, Debye-Ang):
   XX=           -449.7858   YY=           -539.2749   ZZ=           -484.1837
   XY=            -25.1483   XZ=            -12.2126   YZ=             -0.8072

 Normal termination of Gaussian 16 at Thu Sep  9 14:31:03 2021.
