 Gaussian 16, Revision A.03,
 Gaussian 16:  ES64L-G16RevA.03 25-Dec-2016

 -----------------------------------
 #p cam-b3lyp/Def2SVP td=(nstates=5)
 -----------------------------------

 --------------------------------
 TDDFT excited states in gaussian
 --------------------------------
 Symbolic Z-matrix:
 Charge =  0 Multiplicity = 1

                         Standard orientation:
 ---------------------------------------------------------------------
 Center     Atomic      Atomic             Coordinates (Angstroms)
 Number     Number       Type             X           Y           Z
 ---------------------------------------------------------------------
      1         12           0        4.075457   -1.277413    0.353884
      2          6           0        4.845546    1.776809   -1.346383
      3          6           0        4.976257    0.282533    3.251848
      4          6           0        3.838839   -4.084196    1.810799
      5          6           0        4.332243   -2.885205   -2.727467
      6          7           0        4.800162    0.772292    0.771208
      7          6           0        4.994732    1.864944    0.039482
      8          6           0        5.298877    3.133199    0.891772
      9          6           0        5.863733    2.425202    2.203899
     10          6           0        5.144249    1.092814    2.089843
     11          6           0        7.367995    2.176264    2.162328
     12          6           0        4.009055    3.965682    1.200095
     13          6           0        4.256038    5.376762    1.741581
     14          1           0        3.349232    6.445516    1.350666
     15          7           0        3.892832   -1.713943    2.271940
     16          6           0        4.300412   -0.955119    3.317574
     17          6           0        3.940618   -1.712570    4.535563
     18          6           0        3.462849   -3.057590    4.110412
     19          6           0        3.740688   -3.014506    2.697497
     20          6           0        4.019002   -1.136391    5.916006
     21          6           0        2.862383   -4.204315    4.860474
     22          8           0        2.733312   -5.364763    4.339632
     23          6           0        2.505742   -3.953532    6.268649
     24          7           0        4.298675   -3.244428   -0.308431
     25          6           0        4.084122   -4.277762    0.513257
     26          6           0        4.024586   -5.572510   -0.241742
     27          6           0        4.001343   -5.180973   -1.789615
     28          6           0        4.141844   -3.645358   -1.646734
     29          6           0        5.176241   -6.553076    0.019392
     30          6           0        2.831487   -5.738776   -2.638562
     31          6           0        1.530010   -5.108522   -2.195804
     32          7           0        4.333986   -0.669338   -1.713591
     33          6           0        4.436767   -1.508293   -2.832638
     34          6           0        4.711225   -0.644990   -3.996016
     35          6           0        4.765843    0.642956   -3.466813
     36          6           0        4.565903    0.584989   -2.057928
     37          6           0        4.931953   -1.089010   -5.329643
     38          6           0        4.971087    2.052086   -3.760213
     39          8           0        5.091871    2.714413   -4.791828
     40          6           0        5.152091    2.829600   -2.382339
     41          6           0        4.270806    4.047995   -2.428811
     42          8           0        3.027775    3.938272   -2.442961
     43          8           0        5.014620    5.143251   -2.210417
     44          6           0        4.196039    6.385050   -2.214140
     45          1           0        5.454082    0.590765    4.183844
     46          1           0        3.652700   -5.063708    2.256160
     47          1           0        4.340777   -3.307520   -3.733961
     48          1           0        6.056557    3.793564    0.469558
     49          1           0        5.556720    2.945201    3.111129
     50          1           0        7.783562    2.410017    1.182234
     51          1           0        7.493990    1.116831    2.386429
     52          1           0        7.872021    2.714434    2.965514
     53          1           0        3.493630    3.526739    2.054335
     54          1           0        3.368167    4.024428    0.319677
     55          1           0        5.292439    5.683299    1.597299
     56          1           0        4.128306    5.354472    2.823888
     57          1           0        4.560807   -0.191455    5.925410
     58          1           0        4.638151   -1.810407    6.507670
     59          1           0        3.035870   -1.040372    6.377054
     60          1           0        3.397529   -3.649404    6.817076
     61          1           0        2.008460   -4.857511    6.618480
     62          1           0        1.815887   -3.110296    6.313384
     63          1           0        3.117780   -6.125152    0.000574
     64          1           0        4.895348   -5.523096   -2.311518
     65          1           0        4.847079   -7.532165    0.368310
     66          1           0        5.856350   -6.091360    0.734627
     67          1           0        5.836621   -6.719510   -0.831263
     68          1           0        2.734150   -6.813690   -2.490133
     69          1           0        2.952348   -5.561148   -3.707249
     70          1           0        1.240795   -5.721040   -1.342570
     71          1           0        0.786853   -5.171491   -2.991395
     72          1           0        1.683496   -4.092837   -1.830686
     73          1           0        4.368874   -0.413238   -5.973259
     74          1           0        4.610029   -2.121760   -5.461535
     75          1           0        6.013439   -0.976048   -5.403690
     76          1           0        6.207233    3.090234   -2.305744
     77          1           0        4.630568    7.053701   -2.957326
     78          1           0        4.156511    6.733229   -1.181854
     79          1           0        3.177842    6.290070   -2.593077
     80         12           0       -4.808388    0.014009   -0.297788
     81          6           0       -2.032375    2.200343    0.328953
     82          6           0       -6.760020    2.257108    1.373795
     83          6           0       -7.177062   -2.092393   -0.438599
     84          6           0       -2.496041   -2.526052   -0.886720
     85          7           0       -4.341105    1.942742    0.678888
     86          6           0       -3.263235    2.702938    0.799927
     87          6           0       -3.533508    4.112747    1.390645
     88          6           0       -4.890129    3.784652    2.184868
     89          6           0       -5.387150    2.609919    1.344847
     90          6           0       -4.653237    3.291583    3.602652
     91          6           0       -3.766936    5.192866    0.276699
     92          6           0       -3.729560    6.641696    0.767874
     93          1           0       -3.167285    7.661177   -0.113596
     94          7           0       -6.764436    0.264187   -0.074549
     95          6           0       -7.385980    1.241822    0.617685
     96          6           0       -8.826340    0.969985    0.492672
     97          6           0       -8.998755   -0.340302   -0.191534
     98          6           0       -7.623214   -0.793315   -0.243977
     99          6           0       -9.879601    1.947486    0.926929
    100          6           0      -10.203799   -1.071188   -0.701328
    101          8           0      -10.146881   -2.303739   -1.048319
    102          6           0      -11.472609   -0.328518   -0.694239
    103          7           0       -4.844585   -2.061762   -0.408167
    104          6           0       -6.007673   -2.728372   -0.511969
    105          6           0       -5.775341   -4.180767   -0.853982
    106          6           0       -4.217819   -4.297377   -1.197662
    107          6           0       -3.782614   -2.846702   -0.895114
    108          6           0       -6.131560   -5.187036    0.240064
    109          6           0       -3.845130   -4.908643   -2.576110
    110          6           0       -4.280203   -3.980204   -3.687010
    111          7           0       -2.659113   -0.123410   -0.470421
    112          6           0       -1.894139   -1.289143   -0.693944
    113          6           0       -0.471675   -0.897625   -0.618148
    114          6           0       -0.508037    0.475156   -0.330682
    115          6           0       -1.857709    0.904471   -0.214154
    116          6           0        0.641005   -1.774381   -0.757261
    117          6           0        0.288568    1.656528   -0.088805
    118          8           0        1.488918    1.920957   -0.143149
    119          6           0       -0.661240    2.799951    0.474096
    120          6           0       -0.365690    4.064652   -0.284648
    121          8           0       -0.612314    4.144273   -1.500973
    122          8           0       -0.046286    5.037646    0.588051
    123          6           0        0.244608    6.314877   -0.116132
    124          1           0       -7.415028    2.778344    2.072487
    125          1           0       -7.957228   -2.839116   -0.603646
    126          1           0       -1.714705   -3.240041   -1.155811
    127          1           0       -2.776731    4.469599    2.078912
    128          1           0       -5.589787    4.614694    2.131322
    129          1           0       -3.604479    3.130181    3.803127
    130          1           0       -5.201812    2.362554    3.686525
    131          1           0       -5.110385    3.977474    4.321614
    132          1           0       -4.808896    5.136723   -0.063757
    133          1           0       -3.069940    5.066281   -0.528771
    134          1           0       -3.301083    6.724898    1.774068
    135          1           0       -4.756916    6.995369    0.883962
    136          1           0       -9.454787    2.748796    1.544039
    137          1           0      -10.553578    1.411537    1.603966
    138          1           0      -10.459580    2.341392    0.089596
    139          1           0      -11.698253   -0.008801    0.320322
    140          1           0      -12.198519   -0.985592   -1.177119
    141          1           0      -11.348309    0.582089   -1.290856
    142          1           0       -6.350083   -4.469589   -1.725390
    143          1           0       -3.689009   -4.940493   -0.478920
    144          1           0       -6.867067   -5.945840   -0.087544
    145          1           0       -6.503826   -4.641826    1.097210
    146          1           0       -5.287013   -5.730156    0.660711
    147          1           0       -4.379793   -5.849124   -2.730365
    148          1           0       -2.786212   -5.118869   -2.683304
    149          1           0       -5.336609   -4.232178   -3.819686
    150          1           0       -3.711112   -4.174807   -4.593825
    151          1           0       -4.228742   -2.932888   -3.367451
    152          1           0        1.360637   -1.266839   -1.385775
    153          1           0        0.343336   -2.729909   -1.184014
    154          1           0        0.946584   -1.869086    0.288173
    155          1           0       -0.453053    2.903683    1.539681
    156          1           0        1.244177    6.631894    0.196998
    157          1           0       -0.597418    6.989365    0.128449
    158          1           0        0.362016    6.278098   -1.192843
 ---------------------------------------------------------------------

 SCF Done:  E(RCAM-B3LYP) =  -4069.81516748     A.U. after   18 cycles

 Excitation energies and oscillator strengths:

 Excited State   1:      Singlet-A      1.6554 eV  748.96 nm  f=0.3787  <S**2>=0.000
     309 -> 315        0.14038
     311 -> 313        0.57065
     312 -> 314       -0.38171
 This state for optimization and/or second-order correction.
 Total Energy, E(TD-HF/TD-DFT) =  -4069.75433174
 Copying the excited state density for this state as the 1-particle RhoCI density.

 Excited State   2:      Singlet-A      1.6833 eV  736.56 nm  f=0.4332  <S**2>=0.000
     310 -> 316        0.14347
     311 -> 313        0.38008
     312 -> 314        0.56694

 Excited State   3:      Singlet-A      2.1085 eV  588.02 nm  f=0.0006  <S**2>=0.000
     312 -> 313        0.69673

 Excited State   4:      Singlet-A      2.1627 eV  573.27 nm  f=0.0030  <S**2>=0.000
     309 -> 313       -0.39722
     310 -> 314        0.50732
     311 -> 315        0.15895
     312 -> 316       -0.19979

 Excited State   5:      Singlet-A      2.1874 eV  566.80 nm  f=0.1650  <S**2>=0.000
     309 -> 313        0.50660
     310 -> 314        0.38930
     311 -> 315       -0.21594
     312 -> 316       -0.16966

 The electronic state is 1-A.
 Alpha  occ. eigenvalues --  -46.87670 -46.86912 -19.26155 -19.25535 -19.18741
 Alpha  occ. eigenvalues --  -19.18736 -19.18527 -19.18265 -19.18021 -19.17448
 Alpha  occ. eigenvalues --  -14.42516 -14.41525 -14.41358 -14.40681 -14.39372
 Alpha  occ. eigenvalues --  -14.38623 -14.38611 -14.37728 -10.38755 -10.38086
 Alpha  occ. eigenvalues --  -10.35412 -10.34912 -10.34388 -10.33643 -10.31612
 Alpha  occ. eigenvalues --  -10.31346 -10.31291 -10.31021 -10.30518 -10.30434
 Alpha  occ. eigenvalues --  -10.30406 -10.30121 -10.29975 -10.29914 -10.29777
 Alpha  occ. eigenvalues --  -10.29750 -10.29629 -10.29473 -10.29448 -10.29241
 Alpha  occ. eigenvalues --  -10.28902 -10.28726 -10.28638 -10.28585 -10.28426
 Alpha  occ. eigenvalues --  -10.28171 -10.28088 -10.27962 -10.27820 -10.27700
 Alpha  occ. eigenvalues --  -10.27516 -10.27504 -10.27496 -10.27492 -10.27469
 Alpha  occ. eigenvalues --  -10.27347 -10.27288 -10.27137 -10.27082 -10.27073
 Alpha  occ. eigenvalues --  -10.27039 -10.26963 -10.26934 -10.26869 -10.26649
 Alpha  occ. eigenvalues --  -10.26544 -10.26428 -10.26330 -10.26189 -10.26095
 Alpha  occ. eigenvalues --  -10.26094 -10.26079 -10.25993 -10.25915 -10.25546
 Alpha  occ. eigenvalues --  -10.25462 -10.25369 -10.25349 -10.25283 -10.25056
 Alpha  occ. eigenvalues --  -10.24971 -10.24828 -10.24703 -10.24686 -10.24103
 Alpha  occ. eigenvalues --  -10.24069  -3.16419  -3.15596  -1.91300  -1.90889
 Alpha  occ. eigenvalues --   -1.90727  -1.90477  -1.90065  -1.89914  -1.16374
 Alpha  occ. eigenvalues --   -1.15841  -1.08919  -1.07888  -1.06987  -1.06683
 Alpha  occ. eigenvalues --   -1.06562  -1.05654  -1.04514  -1.03689  -1.03681
 Alpha  occ. eigenvalues --   -1.03053  -1.02979  -1.02473  -1.02131  -1.01632
 Alpha  occ. eigenvalues --   -0.92002  -0.91154  -0.89484  -0.89170  -0.89051
 Alpha  occ. eigenvalues --   -0.88308  -0.88204  -0.87994  -0.87764  -0.87696
 Alpha  occ. eigenvalues --   -0.87180  -0.87152  -0.86891  -0.86637  -0.85013
 Alpha  occ. eigenvalues --   -0.84207  -0.83845  -0.83560  -0.82938  -0.82652
 Alpha  occ. eigenvalues --   -0.82464  -0.81966  -0.81575  -0.80929  -0.80436
 Alpha  occ. eigenvalues --   -0.79886  -0.78714  -0.78124  -0.77203  -0.76878
 Alpha  occ. eigenvalues --   -0.76682  -0.76246  -0.75852  -0.75235  -0.74787
 Alpha  occ. eigenvalues --   -0.74381  -0.72791  -0.72087  -0.71590  -0.70984
 Alpha  occ. eigenvalues --   -0.69738  -0.69626  -0.68846  -0.68157  -0.67629
 Alpha  occ. eigenvalues --   -0.67209  -0.66963  -0.66403  -0.65278  -0.64772
 Alpha  occ. eigenvalues --   -0.64624  -0.64513  -0.64184  -0.64164  -0.63986
 Alpha  occ. eigenvalues --   -0.63650  -0.62188  -0.61634  -0.60360  -0.59859
 Alpha  occ. eigenvalues --   -0.59811  -0.59011  -0.58951  -0.58430  -0.58284
 Alpha  occ. eigenvalues --   -0.57811  -0.57548  -0.57226  -0.56842  -0.56647
 Alpha  occ. eigenvalues --   -0.56305  -0.55822  -0.55632  -0.55518  -0.55300
 Alpha  occ. eigenvalues --   -0.55213  -0.54928  -0.54801  -0.54416  -0.53944
 Alpha  occ. eigenvalues --   -0.53899  -0.53330  -0.53147  -0.53038  -0.52831
 Alpha  occ. eigenvalues --   -0.52719  -0.52685  -0.52576  -0.52399  -0.52314
 Alpha  occ. eigenvalues --   -0.52250  -0.52083  -0.51972  -0.51662  -0.51305
 Alpha  occ. eigenvalues --   -0.51258  -0.50854  -0.50539  -0.50492  -0.50066
 Alpha  occ. eigenvalues --   -0.50009  -0.49907  -0.49666  -0.49483  -0.49318
 Alpha  occ. eigenvalues --   -0.49281  -0.49178  -0.48781  -0.48638  -0.48488
 Alpha  occ. eigenvalues --   -0.48421  -0.48389  -0.48341  -0.48005  -0.47846
 Alpha  occ. eigenvalues --   -0.47805  -0.47599  -0.47222  -0.47048  -0.46744
 Alpha  occ. eigenvalues --   -0.46659  -0.46586  -0.46417  -0.46243  -0.46050
 Alpha  occ. eigenvalues --   -0.45970  -0.45743  -0.45620  -0.45483  -0.45198
 Alpha  occ. eigenvalues --   -0.45142  -0.44729  -0.44611  -0.44502  -0.44209
 Alpha  occ. eigenvalues --   -0.44126  -0.43988  -0.43921  -0.43863  -0.43616
 Alpha  occ. eigenvalues --   -0.43475  -0.43406  -0.43371  -0.43298  -0.42939
 Alpha  occ. eigenvalues --   -0.42867  -0.42766  -0.42635  -0.42546  -0.42415
 Alpha  occ. eigenvalues --   -0.42187  -0.42001  -0.41928  -0.41707  -0.41506
 Alpha  occ. eigenvalues --   -0.41370  -0.41002  -0.40966  -0.40780  -0.40735
 Alpha  occ. eigenvalues --   -0.40708  -0.40494  -0.40434  -0.40264  -0.40233
 Alpha  occ. eigenvalues --   -0.40220  -0.39921  -0.39394  -0.39339  -0.39110
 Alpha  occ. eigenvalues --   -0.38332  -0.37931  -0.37648  -0.37247  -0.37215
 Alpha  occ. eigenvalues --   -0.37000  -0.36701  -0.36567  -0.36413  -0.36054
 Alpha  occ. eigenvalues --   -0.35959  -0.35408  -0.34274  -0.33543  -0.33474
 Alpha  occ. eigenvalues --   -0.33129  -0.32774  -0.32403  -0.31289  -0.30975
 Alpha  occ. eigenvalues --   -0.30797  -0.30318  -0.30095  -0.29386  -0.29294
 Alpha  occ. eigenvalues --   -0.29273  -0.28741  -0.28564  -0.24039  -0.23221
 Alpha  occ. eigenvalues --   -0.21144  -0.20381
 Alpha virt. eigenvalues --   -0.08835  -0.08017  -0.01694  -0.01040  -0.00072
 Alpha virt. eigenvalues --    0.00665   0.02082   0.02902   0.03271   0.04665
 Alpha virt. eigenvalues --    0.04870   0.05442   0.05738   0.06068   0.06187

 Mulliken charges:
               1
     1  Mg   0.775250
     2  C    0.023332
     3  C   -0.093798
     4  C   -0.050012
     5  C   -0.066140
     6  N   -0.251232
     7  C   -0.031638
     8  C   -0.024379
     9  C   -0.088728
    10  C    0.051761
    11  C    0.105746
    12  C    0.066037
    13  C   -0.071077
    14  H    0.026361
    15  N   -0.427636
    16  C    0.169063
    17  C   -0.179512
    18  C   -0.005866
    19  C    0.145154
    20  C    0.111149
    21  C    0.010186
    22  O   -0.252634
    23  C    0.063355
    24  N   -0.335667
    25  C    0.040391
    26  C   -0.027264
    27  C   -0.023595
    28  C    0.071487
    29  C    0.077082
    30  C    0.049770
    31  C   -0.037854
    32  N   -0.311533
    33  C    0.075348
    34  C   -0.171770
    35  C    0.006160
    36  C    0.089432
    37  C    0.127643
    38  C    0.050314
    39  O   -0.189917
    40  C   -0.013854
    41  C    0.209617
    42  O   -0.241565
    43  O   -0.306607
    44  C    0.157650
    45  H   -0.020617
    46  H   -0.020987
    47  H   -0.046234
    48  H   -0.003280
    49  H   -0.006764
    50  H    0.024346
    51  H    0.015293
    52  H    0.013749
    53  H    0.009740
    54  H    0.053124
    55  H    0.015032
    56  H    0.015673
    57  H    0.004951
    58  H    0.024724
    59  H    0.036678
    60  H    0.036807
    61  H    0.033266
    62  H    0.030136
    63  H    0.012932
    64  H    0.008898
    65  H    0.021149
    66  H    0.013391
    67  H    0.003507
    68  H    0.004252
    69  H    0.003932
    70  H    0.008196
    71  H    0.016839
    72  H    0.047964
    73  H    0.047113
    74  H    0.006741
    75  H    0.044684
    76  H    0.032379
    77  H    0.041236
    78  H    0.041236
    79  H    0.052614
    80  Mg   0.839557
    81  C   -0.018243
    82  C   -0.087838
    83  C   -0.045620
    84  C   -0.068652
    85  N   -0.254584
    86  C   -0.050335
    87  C   -0.014922
    88  C   -0.090516
    89  C    0.046095
    90  C    0.114548
    91  C    0.062695
    92  C   -0.077553
    93  H    0.035275
    94  N   -0.423542
    95  C    0.163419
    96  C   -0.174453
    97  C   -0.007574
    98  C    0.152493
    99  C    0.099359
   100  C    0.015792
   101  O   -0.252820
   102  C    0.061099
   103  N   -0.350067
   104  C    0.038234
   105  C   -0.020108
   106  C   -0.034187
   107  C    0.087950
   108  C    0.073356
   109  C    0.033293
   110  C   -0.007403
   111  N   -0.324535
   112  C    0.081500
   113  C   -0.147624
   114  C    0.006100
   115  C    0.100064
   116  C    0.058339
   117  C    0.059858
   118  O   -0.172277
   119  C   -0.003577
   120  C    0.222790
   121  O   -0.241040
   122  O   -0.310956
   123  C    0.159094
   124  H   -0.019780
   125  H   -0.015311
   126  H   -0.037224
   127  H   -0.001529
   128  H   -0.004232
   129  H    0.021511
   130  H    0.014441
   131  H    0.015967
   132  H    0.013856
   133  H    0.039653
   134  H    0.019709
   135  H    0.019258
   136  H    0.008782
   137  H    0.026229
   138  H    0.040136
   139  H    0.038192
   140  H    0.036590
   141  H    0.034086
   142  H    0.014438
   143  H    0.014123
   144  H    0.025071
   145  H    0.011507
   146  H    0.006897
   147  H    0.006051
   148  H    0.004730
   149  H    0.010830
   150  H    0.017516
   151  H    0.030514
   152  H    0.090292
   153  H    0.017335
   154  H    0.081262
   155  H    0.032566
   156  H    0.025624
   157  H    0.046471
   158  H    0.059255
 Sum of Mulliken charges =  -0.00000

 Dipole moment (field-independent basis, Debye):
    X=             -2.3525    Y=              2.5908    Z=              6.1080  Tot=              7.0395
 Quadrupole moment (field-independent basis, Debye-Ang):
   XX=           -492.7537   YY=           -481.6680   ZZ=           -510.5774
   XY=            -27.7385   XZ=              5.9669   YZ=             46.1028

 Normal termination of Gaussian 16 at Thu Sep  9 23:35:51 2021.
