 Gaussian 16, Revision A.03,
 Gaussian 16:  ES64L-G16RevA.03 25-Dec-2016

 -----------------------------------
 #p cam-b3lyp/Def2SVP td=(nstates=5)
 -----------------------------------

 --------------------------------
 TDDFT excited states in gaussian
 --------------------------------
 Symbolic Z-matrix:
 Charge =  0 Multiplicity = 1

                         Standard orientation:
 ---------------------------------------------------------------------
 Center     Atomic      Atomic             Coordinates (Angstroms)
 Number     Number       Type             X           Y           Z
 ---------------------------------------------------------------------
      1         12           0        5.070203    1.180927    0.325096
      2          6           0        6.078354   -2.116231   -0.636463
      3          6           0        5.781992    2.167308   -2.862924
      4          6           0        4.621616    4.175507    1.267370
      5          6           0        5.524895    0.194586    3.636598
      6          7           0        5.826166    0.072930   -1.436014
      7          6           0        6.116337   -1.199386   -1.689362
      8          6           0        6.391711   -1.481974   -3.196574
      9          6           0        6.823249   -0.016466   -3.652709
     10          6           0        6.071537    0.793352   -2.611052
     11          6           0        8.316727    0.253789   -3.501086
     12          6           0        5.109419   -1.963739   -3.955099
     13          6           0        5.358080   -2.569540   -5.339485
     14          1           0        4.522469   -3.676399   -5.779900
     15          7           0        4.716587    2.815581   -0.726432
     16          6           0        5.062174    3.038774   -2.017184
     17          6           0        4.578752    4.398650   -2.339247
     18          6           0        4.092878    5.019919   -1.075900
     19          6           0        4.486835    4.025524   -0.110834
     20          6           0        4.562915    4.958761   -3.728410
     21          6           0        3.395099    6.310535   -0.783416
     22          8           0        3.270547    6.762022    0.406214
     23          6           0        2.932828    7.086162   -1.948642
     24          7           0        5.281277    2.136068    2.169218
     25          6           0        4.965807    3.427360    2.317634
     26          6           0        4.925228    3.816579    3.765667
     27          6           0        5.041953    2.455627    4.592672
     28          6           0        5.221360    1.474328    3.408132
     29          6           0        6.018301    4.789991    4.227915
     30          6           0        3.927659    2.164813    5.629105
     31          6           0        2.616003    1.919813    4.917324
     32          7           0        5.517386   -0.673905    1.359828
     33          6           0        5.683504   -0.849889    2.741171
     34          6           0        6.080976   -2.253877    2.953071
     35          6           0        6.134931   -2.796277    1.670599
     36          6           0        5.818401   -1.787780    0.716117
     37          6           0        6.395320   -2.851032    4.205679
     38          6           0        6.410361   -3.986889    0.882920
     39          8           0        6.637269   -5.168402    1.147559
     40          6           0        6.503661   -3.563467   -0.649345
     41          6           0        5.670234   -4.534264   -1.440712
     42          8           0        4.429578   -4.567044   -1.310076
     43          8           0        6.429730   -5.100572   -2.390976
     44          6           0        5.656038   -6.053085   -3.231378
     45          1           0        6.191848    2.637435   -3.758994
     46          1           0        4.367078    5.168115    1.644699
     47          1           0        5.601795   -0.206884    4.648706
     48          1           0        7.203019   -2.184958   -3.386354
     49          1           0        6.460428    0.221975   -4.652323
     50          1           0        8.818760   -0.562926   -2.982569
     51          1           0        8.388566    1.174150   -2.921200
     52          1           0        8.770896    0.472546   -4.467860
     53          1           0        4.511393   -1.097016   -4.236553
     54          1           0        4.545140   -2.672177   -3.347620
     55          1           0        6.412455   -2.804156   -5.488347
     56          1           0        5.141424   -1.808533   -6.089238
     57          1           0        5.133310    4.337095   -4.417414
     58          1           0        5.108700    5.901572   -3.697816
     59          1           0        3.549059    5.132445   -4.089327
     60          1           0        3.786314    7.325074   -2.583489
     61          1           0        2.378710    7.933078   -1.545482
     62          1           0        2.270107    6.461474   -2.548236
     63          1           0        3.983709    4.305236    4.013018
     64          1           0        5.963818    2.407304    5.172761
     65          1           0        5.629217    5.703358    4.678560
     66          1           0        6.652522    5.016043    3.371204
     67          1           0        6.740249    4.368214    4.926709
     68          1           0        3.782726    3.025225    6.281510
     69          1           0        4.141531    1.302246    6.260364
     70          1           0        2.237601    2.927690    4.750507
     71          1           0        1.938851    1.348873    5.553487
     72          1           0        2.772813    1.464589    3.939230
     73          1           0        5.909701   -3.826805    4.208844
     74          1           0        6.051055   -2.234541    5.035753
     75          1           0        7.482399   -2.895246    4.141165
     76          1           0        7.557075   -3.609717   -0.923756
     77          1           0        6.172038   -7.012271   -3.187337
     78          1           0        5.543682   -5.583387   -4.208703
     79          1           0        4.669717   -6.332737   -2.859485
     80         12           0       -5.232247   -1.269103    0.178904
     81          6           0       -5.779955    2.003210   -1.188963
     82          6           0       -4.734482    0.239211    3.197482
     83          6           0       -4.304345   -4.080925    1.319106
     84          6           0       -4.645174   -2.378180   -3.072403
     85          7           0       -5.278696    0.853903    0.797719
     86          6           0       -5.558374    2.004393    0.203996
     87          6           0       -5.682283    3.213217    1.169903
     88          6           0       -4.784732    2.649856    2.376513
     89          6           0       -4.966789    1.152301    2.138051
     90          6           0       -3.308346    2.980266    2.233524
     91          6           0       -7.162674    3.465757    1.624530
     92          6           0       -7.402389    4.809013    2.317315
     93          1           0       -8.673654    5.491324    2.091912
     94          7           0       -5.090024   -1.912210    2.051005
     95          6           0       -4.912345   -1.161205    3.158109
     96          6           0       -4.851813   -2.108874    4.281684
     97          6           0       -4.843103   -3.490895    3.729714
     98          6           0       -4.721843   -3.208371    2.313536
     99          6           0       -4.888919   -1.672173    5.717419
    100          6           0       -4.917099   -4.843299    4.371364
    101          8           0       -4.653233   -5.913937    3.717972
    102          6           0       -5.216407   -4.870626    5.810525
    103          7           0       -4.364269   -2.934981   -0.712042
    104          6           0       -4.110179   -4.046508    0.000611
    105          6           0       -3.745211   -5.201285   -0.901441
    106          6           0       -4.043662   -4.695479   -2.388941
    107          6           0       -4.463537   -3.241157   -2.082237
    108          6           0       -2.298382   -5.685692   -0.809575
    109          6           0       -4.991088   -5.571663   -3.253424
    110          6           0       -6.392032   -5.530831   -2.686782
    111          7           0       -5.388085   -0.425699   -1.804139
    112          6           0       -5.068053   -1.055879   -3.026648
    113          6           0       -5.227198   -0.045121   -4.092227
    114          6           0       -5.609539    1.118414   -3.407762
    115          6           0       -5.663881    0.856953   -2.011982
    116          6           0       -4.977553   -0.251244   -5.478342
    117          6           0       -5.969219    2.511173   -3.547595
    118          8           0       -6.177564    3.263288   -4.498726
    119          6           0       -5.972814    3.179423   -2.105445
    120          6           0       -7.241119    3.975923   -1.965742
    121          8           0       -8.346817    3.406795   -1.953970
    122          8           0       -6.930874    5.247091   -1.652275
    123          6           0       -8.156574    6.074059   -1.492295
    124          1           0       -4.337983    0.624788    4.137169
    125          1           0       -4.079136   -5.097981    1.648288
    126          1           0       -4.575866   -2.671148   -4.122183
    127          1           0       -5.262577    4.139033    0.795107
    128          1           0       -5.196021    2.935098    3.341319
    129          1           0       -3.088601    3.439142    1.281003
    130          1           0       -2.785369    2.037701    2.329022
    131          1           0       -2.976573    3.595590    3.074739
    132          1           0       -7.405416    2.783139    2.449060
    133          1           0       -7.838361    3.359685    0.798191
    134          1           0       -6.563961    5.501632    2.174967
    135          1           0       -7.431998    4.642296    3.396826
    136          1           0       -4.728375   -0.591244    5.813359
    137          1           0       -4.019773   -2.120698    6.210626
    138          1           0       -5.794888   -1.997372    6.233310
    139          1           0       -4.460109   -4.303070    6.347510
    140          1           0       -5.315808   -5.926817    6.068328
    141          1           0       -6.171374   -4.360466    5.978999
    142          1           0       -4.364253   -6.065303   -0.693213
    143          1           0       -3.125254   -4.636999   -2.991386
    144          1           0       -2.212802   -6.759436   -0.556915
    145          1           0       -1.781595   -5.080268   -0.076824
    146          1           0       -1.700061   -5.525649   -1.704898
    147          1           0       -4.673949   -6.616935   -3.222029
    148          1           0       -5.021235   -5.275472   -4.296663
    149          1           0       -6.359466   -6.283772   -1.893633
    150          1           0       -7.121809   -5.792990   -3.450156
    151          1           0       -6.597473   -4.563170   -2.214465
    152          1           0       -5.791996    0.217536   -6.014457
    153          1           0       -4.901941   -1.310408   -5.715493
    154          1           0       -4.017916    0.262164   -5.582147
    155          1           0       -5.084516    3.808182   -2.033520
    156          1           0       -8.057895    6.926321   -2.171708
    157          1           0       -8.227315    6.297326   -0.411140
    158          1           0       -9.095969    5.647168   -1.823570
 ---------------------------------------------------------------------

 SCF Done:  E(RCAM-B3LYP) =  -4069.81189367     A.U. after   19 cycles

 Excitation energies and oscillator strengths:

 Excited State   1:      Singlet-A      1.6607 eV  746.59 nm  f=0.0734  <S**2>=0.000
     309 -> 315       -0.10871
     310 -> 316       -0.13116
     311 -> 313       -0.43839
     312 -> 314        0.52884
 This state for optimization and/or second-order correction.
 Total Energy, E(TD-HF/TD-DFT) =  -4069.75086494
 Copying the excited state density for this state as the 1-particle RhoCI density.

 Excited State   2:      Singlet-A      1.6921 eV  732.74 nm  f=0.6409  <S**2>=0.000
     309 -> 315        0.13746
     310 -> 316       -0.11350
     311 -> 313        0.52722
     312 -> 314        0.43708

 Excited State   3:      Singlet-A      2.1834 eV  567.86 nm  f=0.0442  <S**2>=0.000
     309 -> 313        0.24550
     310 -> 314        0.59531
     311 -> 315       -0.10266
     312 -> 316        0.24998

 Excited State   4:      Singlet-A      2.1948 eV  564.91 nm  f=0.1423  <S**2>=0.000
     309 -> 313        0.59162
     310 -> 314       -0.24293
     311 -> 315       -0.25897
     312 -> 316       -0.10732

 Excited State   5:      Singlet-A      2.4861 eV  498.71 nm  f=0.0000  <S**2>=0.000
     312 -> 313        0.70709

 The electronic state is 1-A.
 Alpha  occ. eigenvalues --  -46.87883 -46.87493 -19.26361 -19.26268 -19.19100
 Alpha  occ. eigenvalues --  -19.19070 -19.18892 -19.18544 -19.18237 -19.17943
 Alpha  occ. eigenvalues --  -14.42532 -14.42332 -14.41546 -14.41177 -14.39486
 Alpha  occ. eigenvalues --  -14.39187 -14.38670 -14.38444 -10.39159 -10.38997
 Alpha  occ. eigenvalues --  -10.35521 -10.35221 -10.34458 -10.34121 -10.31759
 Alpha  occ. eigenvalues --  -10.31689 -10.31483 -10.31162 -10.30984 -10.30860
 Alpha  occ. eigenvalues --  -10.30650 -10.30597 -10.30308 -10.30237 -10.30220
 Alpha  occ. eigenvalues --  -10.30026 -10.29946 -10.29710 -10.29704 -10.29335
 Alpha  occ. eigenvalues --  -10.29266 -10.29257 -10.28817 -10.28606 -10.28572
 Alpha  occ. eigenvalues --  -10.28542 -10.28441 -10.28250 -10.28180 -10.27984
 Alpha  occ. eigenvalues --  -10.27867 -10.27855 -10.27805 -10.27659 -10.27649
 Alpha  occ. eigenvalues --  -10.27593 -10.27510 -10.27510 -10.27486 -10.27337
 Alpha  occ. eigenvalues --  -10.27325 -10.27317 -10.27283 -10.27232 -10.27096
 Alpha  occ. eigenvalues --  -10.26939 -10.26775 -10.26567 -10.26444 -10.26391
 Alpha  occ. eigenvalues --  -10.26290 -10.26259 -10.26117 -10.25952 -10.25918
 Alpha  occ. eigenvalues --  -10.25839 -10.25775 -10.25764 -10.25565 -10.24960
 Alpha  occ. eigenvalues --  -10.24950 -10.24907 -10.24884 -10.24732 -10.24566
 Alpha  occ. eigenvalues --  -10.24502  -3.16626  -3.16243  -1.91508  -1.91125
 Alpha  occ. eigenvalues --   -1.91095  -1.90936  -1.90713  -1.90551  -1.16710
 Alpha  occ. eigenvalues --   -1.16559  -1.08694  -1.08558  -1.07294  -1.06855
 Alpha  occ. eigenvalues --   -1.06793  -1.06721  -1.04661  -1.04335  -1.03853
 Alpha  occ. eigenvalues --   -1.03495  -1.03320  -1.02865  -1.02498  -1.01943
 Alpha  occ. eigenvalues --   -0.92052  -0.91842  -0.89649  -0.89313  -0.89258
 Alpha  occ. eigenvalues --   -0.88997  -0.88415  -0.88003  -0.87947  -0.87755
 Alpha  occ. eigenvalues --   -0.87667  -0.87518  -0.87336  -0.86970  -0.85058
 Alpha  occ. eigenvalues --   -0.84845  -0.84081  -0.83660  -0.83045  -0.82758
 Alpha  occ. eigenvalues --   -0.82725  -0.82498  -0.81669  -0.81474  -0.80678
 Alpha  occ. eigenvalues --   -0.80301  -0.78865  -0.78491  -0.77316  -0.77023
 Alpha  occ. eigenvalues --   -0.76990  -0.76735  -0.76000  -0.75697  -0.75013
 Alpha  occ. eigenvalues --   -0.74562  -0.72862  -0.72544  -0.71760  -0.71388
 Alpha  occ. eigenvalues --   -0.70071  -0.69550  -0.68949  -0.68676  -0.67723
 Alpha  occ. eigenvalues --   -0.67442  -0.67289  -0.67058  -0.65366  -0.65127
 Alpha  occ. eigenvalues --   -0.64945  -0.64717  -0.64616  -0.64504  -0.64389
 Alpha  occ. eigenvalues --   -0.64010  -0.62386  -0.62151  -0.60523  -0.60169
 Alpha  occ. eigenvalues --   -0.59877  -0.59646  -0.59079  -0.58825  -0.58592
 Alpha  occ. eigenvalues --   -0.58269  -0.57663  -0.57440  -0.57407  -0.57062
 Alpha  occ. eigenvalues --   -0.56385  -0.56067  -0.56058  -0.55766  -0.55595
 Alpha  occ. eigenvalues --   -0.55459  -0.55316  -0.55068  -0.54636  -0.54314
 Alpha  occ. eigenvalues --   -0.53966  -0.53761  -0.53386  -0.53291  -0.53071
 Alpha  occ. eigenvalues --   -0.53007  -0.52997  -0.52820  -0.52761  -0.52606
 Alpha  occ. eigenvalues --   -0.52517  -0.52221  -0.51992  -0.51781  -0.51683
 Alpha  occ. eigenvalues --   -0.51519  -0.51290  -0.51062  -0.50628  -0.50317
 Alpha  occ. eigenvalues --   -0.50160  -0.49987  -0.49817  -0.49641  -0.49585
 Alpha  occ. eigenvalues --   -0.49336  -0.49288  -0.49167  -0.49066  -0.48959
 Alpha  occ. eigenvalues --   -0.48676  -0.48566  -0.48517  -0.48422  -0.48195
 Alpha  occ. eigenvalues --   -0.48144  -0.47779  -0.47436  -0.47376  -0.46940
 Alpha  occ. eigenvalues --   -0.46898  -0.46628  -0.46544  -0.46451  -0.46397
 Alpha  occ. eigenvalues --   -0.46258  -0.46111  -0.45907  -0.45903  -0.45690
 Alpha  occ. eigenvalues --   -0.45321  -0.44955  -0.44661  -0.44591  -0.44374
 Alpha  occ. eigenvalues --   -0.44321  -0.44254  -0.44163  -0.44090  -0.43980
 Alpha  occ. eigenvalues --   -0.43907  -0.43799  -0.43581  -0.43476  -0.43425
 Alpha  occ. eigenvalues --   -0.43217  -0.43118  -0.42826  -0.42818  -0.42763
 Alpha  occ. eigenvalues --   -0.42740  -0.42360  -0.42133  -0.41798  -0.41790
 Alpha  occ. eigenvalues --   -0.41614  -0.41516  -0.41300  -0.41226  -0.40970
 Alpha  occ. eigenvalues --   -0.40898  -0.40807  -0.40691  -0.40563  -0.40537
 Alpha  occ. eigenvalues --   -0.40305  -0.40286  -0.40085  -0.39621  -0.39226
 Alpha  occ. eigenvalues --   -0.38594  -0.38129  -0.37826  -0.37511  -0.37435
 Alpha  occ. eigenvalues --   -0.37338  -0.37085  -0.37044  -0.36807  -0.36651
 Alpha  occ. eigenvalues --   -0.36292  -0.36034  -0.34372  -0.34091  -0.33852
 Alpha  occ. eigenvalues --   -0.33757  -0.33273  -0.33013  -0.31423  -0.31123
 Alpha  occ. eigenvalues --   -0.31100  -0.30806  -0.30097  -0.29851  -0.29524
 Alpha  occ. eigenvalues --   -0.29398  -0.29176  -0.29071  -0.24167  -0.23871
 Alpha  occ. eigenvalues --   -0.21213  -0.20952
 Alpha virt. eigenvalues --   -0.08854  -0.08635  -0.01840  -0.01507  -0.00130
 Alpha virt. eigenvalues --    0.00126   0.02120   0.02344   0.03011   0.03385
 Alpha virt. eigenvalues --    0.04634   0.04893   0.05020   0.05263   0.06099

 Mulliken charges:
               1
     1  Mg   0.838636
     2  C   -0.002906
     3  C   -0.093617
     4  C   -0.046320
     5  C   -0.064147
     6  N   -0.256721
     7  C   -0.052478
     8  C   -0.014010
     9  C   -0.087066
    10  C    0.046252
    11  C    0.104733
    12  C    0.053389
    13  C   -0.071738
    14  H    0.035544
    15  N   -0.433190
    16  C    0.168424
    17  C   -0.176641
    18  C   -0.003938
    19  C    0.148638
    20  C    0.109954
    21  C    0.011991
    22  O   -0.250390
    23  C    0.062392
    24  N   -0.341014
    25  C    0.041205
    26  C   -0.028134
    27  C   -0.023781
    28  C    0.074419
    29  C    0.076160
    30  C    0.035335
    31  C   -0.004319
    32  N   -0.310481
    33  C    0.080251
    34  C   -0.169670
    35  C    0.008547
    36  C    0.082937
    37  C    0.127303
    38  C    0.046236
    39  O   -0.188130
    40  C   -0.005404
    41  C    0.213052
    42  O   -0.257389
    43  O   -0.304647
    44  C    0.157757
    45  H   -0.017153
    46  H   -0.017229
    47  H   -0.041818
    48  H    0.001064
    49  H   -0.003676
    50  H    0.025519
    51  H    0.016468
    52  H    0.016978
    53  H    0.011464
    54  H    0.043724
    55  H    0.018098
    56  H    0.018364
    57  H    0.006166
    58  H    0.027034
    59  H    0.040725
    60  H    0.037702
    61  H    0.035624
    62  H    0.032470
    63  H    0.015572
    64  H    0.009684
    65  H    0.022927
    66  H    0.013020
    67  H    0.004878
    68  H    0.005863
    69  H    0.004878
    70  H    0.007533
    71  H    0.016251
    72  H    0.029927
    73  H    0.047898
    74  H    0.008699
    75  H    0.046115
    76  H    0.035344
    77  H    0.043221
    78  H    0.046402
    79  H    0.053238
    80  Mg   0.838031
    81  C   -0.017189
    82  C   -0.087976
    83  C   -0.044650
    84  C   -0.064540
    85  N   -0.254693
    86  C   -0.049956
    87  C   -0.015100
    88  C   -0.090534
    89  C    0.046040
    90  C    0.114484
    91  C    0.062544
    92  C   -0.077734
    93  H    0.034252
    94  N   -0.423686
    95  C    0.163417
    96  C   -0.174505
    97  C   -0.007198
    98  C    0.152283
    99  C    0.099370
   100  C    0.015827
   101  O   -0.252246
   102  C    0.061209
   103  N   -0.350023
   104  C    0.038500
   105  C   -0.020548
   106  C   -0.034267
   107  C    0.088963
   108  C    0.072523
   109  C    0.034697
   110  C   -0.007535
   111  N   -0.323893
   112  C    0.078263
   113  C   -0.163704
   114  C    0.001676
   115  C    0.096146
   116  C    0.131666
   117  C    0.041625
   118  O   -0.189305
   119  C    0.001189
   120  C    0.211141
   121  O   -0.251118
   122  O   -0.305683
   123  C    0.152186
   124  H   -0.019928
   125  H   -0.014466
   126  H   -0.041075
   127  H   -0.000709
   128  H   -0.004700
   129  H    0.022714
   130  H    0.014694
   131  H    0.016728
   132  H    0.013772
   133  H    0.037411
   134  H    0.021051
   135  H    0.019467
   136  H    0.008408
   137  H    0.026164
   138  H    0.039550
   139  H    0.038225
   140  H    0.036482
   141  H    0.033428
   142  H    0.013842
   143  H    0.012843
   144  H    0.025311
   145  H    0.015436
   146  H    0.008085
   147  H    0.006385
   148  H    0.002738
   149  H    0.011046
   150  H    0.017185
   151  H    0.029862
   152  H    0.045405
   153  H    0.008334
   154  H    0.045617
   155  H    0.034321
   156  H    0.043380
   157  H    0.049674
   158  H    0.053370
 Sum of Mulliken charges =  -0.00000

 Dipole moment (field-independent basis, Debye):
    X=              3.4814    Y=              3.3046    Z=              0.7774  Tot=              4.8626
 Quadrupole moment (field-independent basis, Debye-Ang):
   XX=           -523.8746   YY=           -536.7701   ZZ=           -459.1842
   XY=             17.3113   XZ=            -51.9227   YZ=             32.3668

 Normal termination of Gaussian 16 at Fri Sep 10 15:32:38 2021.
