 Gaussian 16, Revision A.03,
 Gaussian 16:  ES64L-G16RevA.03 25-Dec-2016

 -----------------------------------
 #p cam-b3lyp/Def2SVP td=(nstates=5)
 -----------------------------------

 --------------------------------
 TDDFT excited states in gaussian
 --------------------------------
 Symbolic Z-matrix:
 Charge =  0 Multiplicity = 1

                         Standard orientation:
 ---------------------------------------------------------------------
 Center     Atomic      Atomic             Coordinates (Angstroms)
 Number     Number       Type             X           Y           Z
 ---------------------------------------------------------------------
      1         12           0        6.290486   -1.128157    0.404869
      2          6           0        6.784685    2.171123   -0.892331
      3          6           0        7.074436    0.124548    3.480453
      4          6           0        6.304941   -4.106407    1.494108
      5          6           0        6.662681   -2.305712   -2.854042
      6          7           0        6.840003    0.906917    1.080998
      7          6           0        6.935322    2.095899    0.494137
      8          6           0        7.135693    3.267664    1.501209
      9          6           0        7.768080    2.450607    2.715500
     10          6           0        7.164474    1.086562    2.430952
     11          6           0        9.287803    2.338831    2.648804
     12          6           0        5.781522    3.940821    1.907181
     13          6           0        5.910580    5.288107    2.623783
     14          1           0        4.912979    6.315963    2.367557
     15          7           0        6.159096   -1.817594    2.251559
     16          6           0        6.507441   -1.164847    3.386399
     17          6           0        6.222174   -2.098172    4.497349
     18          6           0        5.858330   -3.414662    3.903577
     19          6           0        6.121728   -3.169722    2.508584
     20          6           0        6.260473   -1.696463    5.939886
     21          6           0        5.363368   -4.694206    4.500160
     22          8           0        5.330483   -5.786297    3.836210
     23          6           0        4.996281   -4.654884    5.927305
     24          7           0        6.676632   -2.969270   -0.500023
     25          6           0        6.556947   -4.112712    0.183498
     26          6           0        6.603219   -5.301977   -0.729435
     27          6           0        6.535902   -4.721436   -2.215434
     28          6           0        6.545470   -3.209838   -1.878908
     29          6           0        7.836325   -6.205285   -0.589812
     30          6           0        5.412248   -5.265738   -3.132797
     31          6           0        4.064694   -4.810425   -2.619097
     32          7           0        6.481794   -0.243799   -1.568037
     33          6           0        6.648277   -0.922697   -2.783789
     34          6           0        6.839841    0.101020   -3.827521
     35          6           0        6.787696    1.311673   -3.139448
     36          6           0        6.603155    1.059214   -1.750023
     37          6           0        7.088564   -0.150347   -5.205703
     38          6           0        6.869587    2.758950   -3.251434
     39          8           0        6.926148    3.554220   -4.190497
     40          6           0        6.992881    3.368756   -1.785569
     41          6           0        6.010275    4.503163   -1.681091
     42          8           0        4.781124    4.289926   -1.713986
     43          8           0        6.659130    5.621759   -1.322939
     44          6           0        5.737288    6.779271   -1.172844
     45          1           0        7.530541    0.352371    4.445858
     46          1           0        6.206370   -5.146668    1.811250
     47          1           0        6.700389   -2.595161   -3.905826
     48          1           0        7.831163    4.038605    1.168952
     49          1           0        7.423952    2.823542    3.679978
     50          1           0        9.675086    2.729322    1.707821
     51          1           0        9.505529    1.274311    2.737606
     52          1           0        9.749449    2.812418    3.515623
     53          1           0        5.311440    3.354886    2.696968
     54          1           0        5.131910    4.055171    1.038703
     55          1           0        6.915932    5.698151    2.523586
     56          1           0        5.792680    5.118365    3.694057
     57          1           0        6.719487   -0.717338    6.070905
     58          1           0        6.939084   -2.384244    6.444021
     59          1           0        5.275929   -1.744132    6.405432
     60          1           0        5.862529   -4.347152    6.513364
     61          1           0        4.580594   -5.635107    6.157991
     62          1           0        4.237127   -3.886346    6.075572
     63          1           0        5.748718   -5.956515   -0.562601
     64          1           0        7.452287   -4.916937   -2.772831
     65          1           0        7.594559   -7.245205   -0.368857
     66          1           0        8.479341   -5.781042    0.180798
     67          1           0        8.502652   -6.205651   -1.452033
     68          1           0        5.408269   -6.355147   -3.121911
     69          1           0        5.510104   -4.944789   -4.169941
     70          1           0        3.834834   -5.548374   -1.851355
     71          1           0        3.324190   -4.835849   -3.419233
     72          1           0        4.133220   -3.839627   -2.127830
     73          1           0        6.465308    0.550543   -5.760927
     74          1           0        6.855289   -1.181923   -5.468451
     75          1           0        8.155883    0.063384   -5.260533
     76          1           0        8.022354    3.707134   -1.672395
     77          1           0        6.107882    7.571249   -1.823740
     78          1           0        5.675222    6.989537   -0.104977
     79          1           0        4.728368    6.645977   -1.564828
     80         12           0       -6.895196   -0.255435   -0.354189
     81          6           0       -4.502619    2.418720   -0.294561
     82          6           0       -8.454047    1.280645    2.262113
     83          6           0       -8.751135   -2.814956   -0.086234
     84          6           0       -4.559198   -2.119809   -2.146655
     85          7           0       -6.441908    1.605199    0.752524
     86          6           0       -5.542437    2.571615    0.646103
     87          6           0       -5.815773    3.806625    1.545881
     88          6           0       -6.709538    3.090785    2.671769
     89          6           0       -7.269623    1.937117    1.842282
     90          6           0       -5.889291    2.506596    3.809859
     91          6           0       -6.622571    4.924859    0.797104
     92          6           0       -6.657663    6.278830    1.509343
     93          1           0       -6.641190    7.492787    0.697862
     94          7           0       -8.645560   -0.483298    0.552947
     95          6           0       -9.128756    0.242362    1.583090
     96          6           0      -10.445173   -0.333638    1.898426
     97          6           0      -10.628034   -1.562355    1.078963
     98          6           0       -9.311255   -1.681980    0.485783
     99          6           0      -11.417608    0.323114    2.834640
    100          6           0      -11.791128   -2.485141    0.874314
    101          8           0      -11.654206   -3.624890    0.304173
    102          6           0      -13.076670   -2.055944    1.444106
    103          7           0       -6.611918   -2.258785   -0.832388
    104          6           0       -7.599115   -3.156012   -0.664036
    105          6           0       -7.262143   -4.469088   -1.329369
    106          6           0       -5.943319   -4.188905   -2.189479
    107          6           0       -5.683890   -2.721330   -1.784155
    108          6           0       -7.014636   -5.647606   -0.387978
    109          6           0       -6.001828   -4.538786   -3.701707
    110          6           0       -6.965859   -3.613429   -4.408622
    111          7           0       -4.968976    0.119639   -1.258076
    112          6           0       -4.150742   -0.808624   -1.938456
    113          6           0       -2.889278   -0.115345   -2.270873
    114          6           0       -3.053280    1.171466   -1.736363
    115          6           0       -4.318881    1.266774   -1.097066
    116          6           0       -1.771799   -0.694689   -2.935483
    117          6           0       -2.439233    2.467591   -1.558303
    118          8           0       -1.406694    3.002272   -1.960434
    119          6           0       -3.298485    3.293713   -0.506830
    120          6           0       -3.523212    4.670297   -1.069884
    121          8           0       -4.207570    4.829492   -2.095999
    122          8           0       -3.078943    5.584769   -0.188557
    123          6           0       -3.290114    6.966222   -0.697311
    124          1           0       -8.887044    1.556545    3.224032
    125          1           0       -9.396749   -3.695684   -0.117497
    126          1           0       -3.820323   -2.602258   -2.790058
    127          1           0       -4.933066    4.245516    1.995306
    128          1           0       -7.511726    3.740698    3.011561
    129          1           0       -4.828960    2.566015    3.614122
    130          1           0       -6.200658    1.473878    3.896961
    131          1           0       -6.162189    2.984411    4.755143
    132          1           0       -7.690510    4.672478    0.820573
    133          1           0       -6.258080    5.052335   -0.203652
    134          1           0       -5.911860    6.342310    2.311021
    135          1           0       -7.615619    6.374265    2.026293
    136          1           0      -10.940957    1.124539    3.412504
    137          1           0      -11.694171   -0.425329    3.585107
    138          1           0      -12.322192    0.667466    2.328866
    139          1           0      -12.966736   -1.913290    2.516498
    140          1           0      -13.804391   -2.801536    1.117894
    141          1           0      -13.337837   -1.079176    1.021820
    142          1           0       -8.057058   -4.779998   -1.996102
    143          1           0       -5.086087   -4.772442   -1.822760
    144          1           0       -7.676810   -6.511413   -0.586577
    145          1           0       -7.135155   -5.302279    0.630238
    146          1           0       -5.994900   -6.028812   -0.383470
    147          1           0       -6.385638   -5.552362   -3.841345
    148          1           0       -5.036398   -4.489318   -4.194150
    149          1           0       -7.937327   -4.082106   -4.225040
    150          1           0       -6.743758   -3.569285   -5.472938
    151          1           0       -6.981858   -2.625093   -3.934710
    152          1           0       -1.430842    0.031129   -3.661722
    153          1           0       -2.035979   -1.638019   -3.408895
    154          1           0       -1.093455   -0.835659   -2.089758
    155          1           0       -2.735956    3.320258    0.427213
    156          1           0       -2.315777    7.464373   -0.683039
    157          1           0       -4.086678    7.399447   -0.063637
    158          1           0       -3.570419    7.079681   -1.737996
 ---------------------------------------------------------------------

 SCF Done:  E(RCAM-B3LYP) =  -4069.81052347     A.U. after   19 cycles

 Excitation energies and oscillator strengths:

 Excited State   1:      Singlet-A      1.6676 eV  743.50 nm  f=0.2020  <S**2>=0.000
     309 -> 316        0.13201
     310 -> 315       -0.11010
     311 -> 313        0.52782
     312 -> 314       -0.43888
 This state for optimization and/or second-order correction.
 Total Energy, E(TD-HF/TD-DFT) =  -4069.74924162
 Copying the excited state density for this state as the 1-particle RhoCI density.

 Excited State   2:      Singlet-A      1.6879 eV  734.54 nm  f=0.5688  <S**2>=0.000
     309 -> 316        0.11266
     310 -> 315        0.13605
     311 -> 313        0.43824
     312 -> 314        0.52684

 Excited State   3:      Singlet-A      2.1852 eV  567.38 nm  f=0.0146  <S**2>=0.000
     309 -> 313        0.55948
     310 -> 314       -0.31704
     311 -> 316       -0.23723
     312 -> 315        0.13398

 Excited State   4:      Singlet-A      2.1928 eV  565.43 nm  f=0.1716  <S**2>=0.000
     309 -> 313        0.31503
     310 -> 314        0.55691
     311 -> 316       -0.13725
     312 -> 315       -0.24313

 Excited State   5:      Singlet-A      2.6540 eV  467.15 nm  f=0.0000  <S**2>=0.000
     312 -> 313        0.70662

 The electronic state is 1-A.
 Alpha  occ. eigenvalues --  -46.87600 -46.87518 -19.26156 -19.25929 -19.18959
 Alpha  occ. eigenvalues --  -19.18669 -19.18615 -19.18587 -19.17917 -19.17775
 Alpha  occ. eigenvalues --  -14.42363 -14.42254 -14.41266 -14.41217 -14.39213
 Alpha  occ. eigenvalues --  -14.39208 -14.38444 -14.38378 -10.38893 -10.38696
 Alpha  occ. eigenvalues --  -10.35306 -10.35267 -10.34133 -10.33960 -10.31583
 Alpha  occ. eigenvalues --  -10.31337 -10.31195 -10.31158 -10.30894 -10.30709
 Alpha  occ. eigenvalues --  -10.30362 -10.30313 -10.30240 -10.30197 -10.30049
 Alpha  occ. eigenvalues --  -10.30018 -10.29742 -10.29736 -10.29436 -10.29300
 Alpha  occ. eigenvalues --  -10.29242 -10.29076 -10.28606 -10.28565 -10.28531
 Alpha  occ. eigenvalues --  -10.28313 -10.28251 -10.28158 -10.28032 -10.27918
 Alpha  occ. eigenvalues --  -10.27829 -10.27593 -10.27539 -10.27533 -10.27401
 Alpha  occ. eigenvalues --  -10.27398 -10.27376 -10.27351 -10.27336 -10.27336
 Alpha  occ. eigenvalues --  -10.27319 -10.27314 -10.27254 -10.27193 -10.26888
 Alpha  occ. eigenvalues --  -10.26846 -10.26583 -10.26448 -10.26313 -10.26300
 Alpha  occ. eigenvalues --  -10.26092 -10.26059 -10.26031 -10.25945 -10.25842
 Alpha  occ. eigenvalues --  -10.25794 -10.25637 -10.25614 -10.25318 -10.25287
 Alpha  occ. eigenvalues --  -10.24695 -10.24623 -10.24621 -10.24619 -10.24604
 Alpha  occ. eigenvalues --  -10.24544  -3.16342  -3.16268  -1.91223  -1.91150
 Alpha  occ. eigenvalues --   -1.90810  -1.90739  -1.90652  -1.90575  -1.16447
 Alpha  occ. eigenvalues --   -1.16272  -1.08378  -1.08362  -1.07074  -1.06842
 Alpha  occ. eigenvalues --   -1.06740  -1.06250  -1.04381  -1.04356  -1.03575
 Alpha  occ. eigenvalues --   -1.03519  -1.03040  -1.02892  -1.02217  -1.01962
 Alpha  occ. eigenvalues --   -0.91820  -0.91749  -0.89362  -0.89357  -0.89037
 Alpha  occ. eigenvalues --   -0.88980  -0.88134  -0.88091  -0.87666  -0.87609
 Alpha  occ. eigenvalues --   -0.87545  -0.87479  -0.87107  -0.86985  -0.84875
 Alpha  occ. eigenvalues --   -0.84778  -0.83788  -0.83746  -0.82825  -0.82809
 Alpha  occ. eigenvalues --   -0.82525  -0.82448  -0.81429  -0.81334  -0.80380
 Alpha  occ. eigenvalues --   -0.80290  -0.78618  -0.78486  -0.77041  -0.77013
 Alpha  occ. eigenvalues --   -0.76764  -0.76725  -0.75704  -0.75696  -0.74732
 Alpha  occ. eigenvalues --   -0.74669  -0.72585  -0.72544  -0.71481  -0.71443
 Alpha  occ. eigenvalues --   -0.69780  -0.69638  -0.68697  -0.68675  -0.67448
 Alpha  occ. eigenvalues --   -0.67445  -0.67078  -0.67015  -0.65137  -0.65073
 Alpha  occ. eigenvalues --   -0.64646  -0.64625  -0.64509  -0.64412  -0.64104
 Alpha  occ. eigenvalues --   -0.64068  -0.62110  -0.62027  -0.60276  -0.60202
 Alpha  occ. eigenvalues --   -0.59666  -0.59600  -0.58842  -0.58790  -0.58299
 Alpha  occ. eigenvalues --   -0.58268  -0.57359  -0.57326  -0.57103  -0.57085
 Alpha  occ. eigenvalues --   -0.56115  -0.56048  -0.55726  -0.55700  -0.55337
 Alpha  occ. eigenvalues --   -0.55304  -0.55146  -0.55097  -0.54335  -0.54290
 Alpha  occ. eigenvalues --   -0.53793  -0.53683  -0.53120  -0.53082  -0.53021
 Alpha  occ. eigenvalues --   -0.52999  -0.52753  -0.52681  -0.52582  -0.52550
 Alpha  occ. eigenvalues --   -0.52296  -0.52274  -0.51700  -0.51678  -0.51530
 Alpha  occ. eigenvalues --   -0.51408  -0.51025  -0.50987  -0.50433  -0.50358
 Alpha  occ. eigenvalues --   -0.49894  -0.49858  -0.49750  -0.49737  -0.49357
 Alpha  occ. eigenvalues --   -0.49320  -0.49053  -0.49000  -0.48940  -0.48892
 Alpha  occ. eigenvalues --   -0.48397  -0.48371  -0.48295  -0.48241  -0.48233
 Alpha  occ. eigenvalues --   -0.48170  -0.47507  -0.47455  -0.47111  -0.46983
 Alpha  occ. eigenvalues --   -0.46615  -0.46571  -0.46432  -0.46345  -0.46172
 Alpha  occ. eigenvalues --   -0.46125  -0.45948  -0.45928  -0.45643  -0.45584
 Alpha  occ. eigenvalues --   -0.45077  -0.45045  -0.44375  -0.44354  -0.44339
 Alpha  occ. eigenvalues --   -0.44317  -0.43982  -0.43981  -0.43939  -0.43896
 Alpha  occ. eigenvalues --   -0.43799  -0.43774  -0.43397  -0.43253  -0.43240
 Alpha  occ. eigenvalues --   -0.43200  -0.42827  -0.42771  -0.42719  -0.42539
 Alpha  occ. eigenvalues --   -0.42426  -0.42354  -0.41834  -0.41834  -0.41495
 Alpha  occ. eigenvalues --   -0.41484  -0.41336  -0.41335  -0.40951  -0.40850
 Alpha  occ. eigenvalues --   -0.40692  -0.40666  -0.40603  -0.40582  -0.40405
 Alpha  occ. eigenvalues --   -0.40363  -0.40118  -0.40015  -0.39324  -0.39308
 Alpha  occ. eigenvalues --   -0.38314  -0.38229  -0.37535  -0.37533  -0.37154
 Alpha  occ. eigenvalues --   -0.37135  -0.37064  -0.37048  -0.36593  -0.36433
 Alpha  occ. eigenvalues --   -0.36070  -0.35931  -0.34103  -0.34086  -0.33670
 Alpha  occ. eigenvalues --   -0.33406  -0.33026  -0.32967  -0.31198  -0.31147
 Alpha  occ. eigenvalues --   -0.30835  -0.30829  -0.29772  -0.29678  -0.29263
 Alpha  occ. eigenvalues --   -0.29176  -0.29109  -0.29029  -0.23890  -0.23881
 Alpha  occ. eigenvalues --   -0.20971  -0.20937
 Alpha virt. eigenvalues --   -0.08637  -0.08581  -0.01566  -0.01545   0.00116
 Alpha virt. eigenvalues --    0.00124   0.02407   0.02419   0.03347   0.03365
 Alpha virt. eigenvalues --    0.04855   0.04916   0.05368   0.05454   0.06291

 Mulliken charges:
               1
     1  Mg   0.839452
     2  C   -0.001485
     3  C   -0.094173
     4  C   -0.046314
     5  C   -0.064417
     6  N   -0.256646
     7  C   -0.052108
     8  C   -0.014123
     9  C   -0.086984
    10  C    0.046360
    11  C    0.104953
    12  C    0.053392
    13  C   -0.071513
    14  H    0.036514
    15  N   -0.432967
    16  C    0.168235
    17  C   -0.177532
    18  C   -0.004469
    19  C    0.148547
    20  C    0.110350
    21  C    0.011880
    22  O   -0.250332
    23  C    0.062650
    24  N   -0.341130
    25  C    0.040963
    26  C   -0.027949
    27  C   -0.023969
    28  C    0.074932
    29  C    0.076326
    30  C    0.035290
    31  C   -0.004436
    32  N   -0.310864
    33  C    0.081091
    34  C   -0.169129
    35  C    0.008901
    36  C    0.084224
    37  C    0.127003
    38  C    0.047776
    39  O   -0.187525
    40  C   -0.005936
    41  C    0.211959
    42  O   -0.252434
    43  O   -0.305831
    44  C    0.157304
    45  H   -0.018132
    46  H   -0.017519
    47  H   -0.041807
    48  H    0.000811
    49  H   -0.004449
    50  H    0.025381
    51  H    0.016148
    52  H    0.016109
    53  H    0.010956
    54  H    0.046728
    55  H    0.017252
    56  H    0.016999
    57  H    0.005607
    58  H    0.026281
    59  H    0.038855
    60  H    0.037185
    61  H    0.035000
    62  H    0.031188
    63  H    0.015891
    64  H    0.009299
    65  H    0.022688
    66  H    0.012570
    67  H    0.004478
    68  H    0.005805
    69  H    0.004784
    70  H    0.008150
    71  H    0.016994
    72  H    0.029849
    73  H    0.048740
    74  H    0.008664
    75  H    0.045636
    76  H    0.034464
    77  H    0.042045
    78  H    0.045338
    79  H    0.056170
    80  Mg   0.837453
    81  C   -0.016782
    82  C   -0.087977
    83  C   -0.045651
    84  C   -0.065053
    85  N   -0.254401
    86  C   -0.049986
    87  C   -0.014917
    88  C   -0.090439
    89  C    0.045474
    90  C    0.114521
    91  C    0.062633
    92  C   -0.077600
    93  H    0.034801
    94  N   -0.423386
    95  C    0.162560
    96  C   -0.175017
    97  C   -0.008145
    98  C    0.151852
    99  C    0.099540
   100  C    0.015324
   101  O   -0.253587
   102  C    0.061296
   103  N   -0.350079
   104  C    0.037256
   105  C   -0.019691
   106  C   -0.034845
   107  C    0.089148
   108  C    0.073745
   109  C    0.034792
   110  C   -0.007616
   111  N   -0.324316
   112  C    0.078675
   113  C   -0.163348
   114  C    0.003385
   115  C    0.096054
   116  C    0.132080
   117  C    0.042422
   118  O   -0.182186
   119  C    0.000640
   120  C    0.212184
   121  O   -0.251105
   122  O   -0.305733
   123  C    0.152150
   124  H   -0.020269
   125  H   -0.015936
   126  H   -0.040409
   127  H   -0.000890
   128  H   -0.004690
   129  H    0.022144
   130  H    0.014296
   131  H    0.015537
   132  H    0.013835
   133  H    0.038004
   134  H    0.020329
   135  H    0.019254
   136  H    0.008355
   137  H    0.025623
   138  H    0.039398
   139  H    0.038008
   140  H    0.036032
   141  H    0.033770
   142  H    0.014156
   143  H    0.012389
   144  H    0.024815
   145  H    0.011511
   146  H    0.005607
   147  H    0.005957
   148  H    0.003554
   149  H    0.010779
   150  H    0.017822
   151  H    0.030334
   152  H    0.048096
   153  H    0.007548
   154  H    0.047465
   155  H    0.035023
   156  H    0.044002
   157  H    0.048520
   158  H    0.053908
 Sum of Mulliken charges =  -0.00000

 Dipole moment (field-independent basis, Debye):
    X=             -0.2668    Y=              0.5077    Z=              7.6844  Tot=              7.7057
 Quadrupole moment (field-independent basis, Debye-Ang):
   XX=           -478.4148   YY=           -501.0521   ZZ=           -490.6163
   XY=            -26.7891   XZ=             -0.0198   YZ=             57.5650

 Normal termination of Gaussian 16 at Sat Sep 11 12:42:07 2021.
