 Gaussian 16, Revision A.03,
 Gaussian 16:  ES64L-G16RevA.03 25-Dec-2016

 -----------------------------------
 #p cam-b3lyp/Def2SVP td=(nstates=5)
 -----------------------------------

 --------------------------------
 TDDFT excited states in gaussian
 --------------------------------
 Symbolic Z-matrix:
 Charge =  0 Multiplicity = 1

                         Standard orientation:
 ---------------------------------------------------------------------
 Center     Atomic      Atomic             Coordinates (Angstroms)
 Number     Number       Type             X           Y           Z
 ---------------------------------------------------------------------
      1         12           0        8.094772   -0.582162    0.585108
      2          6           0        8.398754    2.393559   -1.380825
      3          6           0        8.770003    1.337000    3.324441
      4          6           0        8.280856   -3.257029    2.278353
      5          6           0        8.570669   -2.395019   -2.353043
      6          7           0        8.511863    1.579776    0.814686
      7          6           0        8.539975    2.621854   -0.010211
      8          6           0        8.658201    3.989733    0.726201
      9          6           0        9.327393    3.487880    2.083524
     10          6           0        8.811331    2.059781    2.095249
     11          6           0       10.851696    3.458952    2.036979
     12          6           0        7.261381    4.648114    0.985352
     13          6           0        7.300557    6.121558    1.401026
     14          1           0        6.244451    7.008436    0.936876
     15          7           0        7.987576   -0.873501    2.536128
     16          6           0        8.284020    0.024161    3.506494
     17          6           0        8.045474   -0.669774    4.790328
     18          6           0        7.768861   -2.101824    4.488981
     19          6           0        8.030565   -2.140692    3.072867
     20          6           0        8.044799    0.028654    6.115450
     21          6           0        7.347327   -3.254965    5.343795
     22          8           0        7.387984   -4.462391    4.925412
     23          6           0        6.964402   -2.938432    6.731677
     24          7           0        8.601923   -2.545133    0.087939
     25          6           0        8.545746   -3.523911    0.997786
     26          6           0        8.673827   -4.873729    0.356283
     27          6           0        8.585796   -4.624884   -1.218544
     28          6           0        8.499411   -3.078692   -1.208673
     29          6           0        9.958509   -5.649096    0.679403
     30          6           0        7.506739   -5.418943   -1.996699
     31          6           0        6.128801   -4.949953   -1.586290
     32          7           0        8.251079   -0.123566   -1.530620
     33          6           0        8.470874   -1.031897   -2.576230
     34          6           0        8.609695   -0.241414   -3.813135
     35          6           0        8.476670    1.081493   -3.395920
     36          6           0        8.294187    1.116737   -1.983918
     37          6           0        8.886991   -0.761818   -5.108017
     38          6           0        8.470852    2.474847   -3.811115
     39          8           0        8.487889    3.056173   -4.897054
     40          6           0        8.542032    3.386470   -2.507388
     41          6           0        7.490791    4.454279   -2.641499
     42          8           0        6.277397    4.163148   -2.624648
     43          8           0        8.066322    5.661254   -2.529621
     44          6           0        7.073861    6.764987   -2.624218
     45          1           0        9.201708    1.791079    4.218524
     46          1           0        8.243059   -4.211094    2.808230
     47          1           0        8.636456   -2.896829   -3.320159
     48          1           0        9.308394    4.714866    0.236451
     49          1           0        8.951528    4.033737    2.948676
     50          1           0       11.223632    3.665486    1.033521
     51          1           0       11.133334    2.452676    2.347752
     52          1           0       11.274853    4.132343    2.782808
     53          1           0        6.820275    4.213905    1.882542
     54          1           0        6.614619    4.536290    0.114421
     55          1           0        8.279845    6.562752    1.213271
     56          1           0        7.182679    6.174332    2.483393
     57          1           0        8.441650    1.039911    6.035367
     58          1           0        8.759242   -0.493958    6.751184
     59          1           0        7.060461    0.019301    6.583770
     60          1           0        7.804322   -2.460968    7.236762
     61          1           0        6.607278   -3.871809    7.165406
     62          1           0        6.158161   -2.204466    6.716863
     63          1           0        7.859416   -5.530040    0.660285
     64          1           0        9.517912   -4.876347   -1.725100
     65          1           0        9.778726   -6.631984    1.115654
     66          1           0       10.566663   -5.032890    1.341016
     67          1           0       10.632115   -5.789964   -0.165480
     68          1           0        7.569397   -6.479668   -1.756113
     69          1           0        7.595020   -5.318463   -3.078532
     70          1           0        5.936985   -5.522222   -0.679347
     71          1           0        5.399208   -5.189359   -2.360623
     72          1           0        6.132857   -3.895058   -1.311215
     73          1           0        8.227499   -0.233760   -5.796635
     74          1           0        8.719963   -1.838031   -5.146359
     75          1           0        9.939702   -0.498731   -5.210194
     76          1           0        9.547670    3.804234   -2.471533
     77          1           0        7.401671    7.423323   -3.428809
     78          1           0        6.988454    7.191431   -1.624590
     79          1           0        6.078933    6.489778   -2.975954
     80         12           0       -7.738560   -0.736042   -0.464256
     81          6           0      -10.156915    1.631249    0.730125
     82          6           0       -5.993725    1.908997   -1.726766
     83          6           0       -5.829890   -2.814861   -1.914408
     84          6           0      -10.185788   -3.194757   -0.130378
     85          7           0       -8.126956    1.441262   -0.437008
     86          6           0       -9.046083    2.229616    0.099696
     87          6           0       -8.718154    3.744904    0.022816
     88          6           0       -7.725095    3.712318   -1.238794
     89          6           0       -7.217916    2.277130   -1.113627
     90          6           0       -8.441055    3.851323   -2.571989
     91          6           0       -7.991572    4.265411    1.312447
     92          6           0       -7.918114    5.788701    1.438693
     93          1           0       -8.018477    6.382513    2.769027
     94          7           0       -5.916824   -0.499715   -1.215258
     95          6           0       -5.361698    0.647997   -1.657847
     96          6           0       -4.015686    0.288001   -2.129877
     97          6           0       -3.882513   -1.193449   -2.082207
     98          6           0       -5.241468   -1.569653   -1.747832
     99          6           0       -2.979695    1.312002   -2.492606
    100          6           0       -2.726717   -2.119114   -2.313474
    101          8           0       -2.893162   -3.382343   -2.452740
    102          6           0       -1.405313   -1.492736   -2.465210
    103          7           0       -8.030782   -2.675622   -1.153451
    104          6           0       -7.020177   -3.375207   -1.698595
    105          6           0       -7.391232   -4.829437   -1.865686
    106          6           0       -8.779832   -5.010009   -1.093184
    107          6           0       -9.026617   -3.545149   -0.670481
    108          6           0       -7.543847   -5.315714   -3.306734
    109          6           0       -8.839963   -6.114213   -0.002406
    110          6           0       -7.950446   -5.739345    1.161051
    111          7           0       -9.737430   -0.840693    0.349136
    112          6           0      -10.594910   -1.962569    0.363308
    113          6           0      -11.889260   -1.514289    0.916589
    114          6           0      -11.700881   -0.146608    1.166486
    115          6           0      -10.388823    0.235244    0.776368
    116          6           0      -13.048746   -2.323442    1.080856
    117          6           0      -12.317123    1.063228    1.661719
    118          8           0      -13.386729    1.333090    2.206561
    119          6           0      -11.386970    2.295419    1.283705
    120          6           0      -11.229031    3.151633    2.510279
    121          8           0      -10.633160    2.717395    3.511770
    122          8           0      -11.613090    4.408666    2.222612
    123          6           0      -11.464295    5.298381    3.405019
    124          1           0       -5.487670    2.641715   -2.355985
    125          1           0       -5.176251   -3.596257   -2.308935
    126          1           0      -10.967653   -3.922573    0.096873
    127          1           0       -9.567496    4.383315   -0.188935
    128          1           0       -6.907375    4.417766   -1.116127
    129          1           0       -9.514582    3.830412   -2.456893
    130          1           0       -8.108630    3.015078   -3.173011
    131          1           0       -8.098841    4.750861   -3.091665
    132          1           0       -6.921717    4.031085    1.239909
    133          1           0       -8.438403    3.850791    2.195098
    134          1           0       -8.596791    6.293382    0.740379
    135          1           0       -6.922635    6.115056    1.128009
    136          1           0       -3.419155    2.312620   -2.587673
    137          1           0       -2.631899    1.070991   -3.502959
    138          1           0       -2.124548    1.304910   -1.813393
    139          1           0       -1.429361   -0.796695   -3.300316
    140          1           0       -0.695910   -2.319798   -2.532914
    141          1           0       -1.193757   -0.900535   -1.567909
    142          1           0       -6.648984   -5.472828   -1.409362
    143          1           0       -9.595668   -5.280745   -1.779445
    144          1           0       -6.887617   -6.172578   -3.550046
    145          1           0       -7.345593   -4.484479   -3.970279
    146          1           0       -8.554155   -5.603533   -3.592450
    147          1           0       -8.454127   -7.057493   -0.396745
    148          1           0       -9.843000   -6.304776    0.364462
    149          1           0       -6.960522   -6.068069    0.830767
    150          1           0       -8.259363   -6.262764    2.063627
    151          1           0       -7.910174   -4.651646    1.291182
    152          1           0      -13.458402   -2.086592    2.053788
    153          1           0      -12.810408   -3.381618    0.995864
    154          1           0      -13.653613   -1.970189    0.241440
    155          1           0      -11.871649    2.833736    0.468307
    156          1           0      -12.441351    5.757646    3.584246
    157          1           0      -10.625022    5.977588    3.164091
    158          1           0      -11.271610    4.830394    4.363304
 ---------------------------------------------------------------------

 SCF Done:  E(RCAM-B3LYP) =  -4069.81204434     A.U. after   19 cycles

 Excitation energies and oscillator strengths:

 Excited State   1:      Singlet-A      1.6721 eV  741.49 nm  f=0.2398  <S**2>=0.000
     309 -> 315        0.10004
     310 -> 316        0.14158
     311 -> 313        0.39451
     312 -> 314        0.56147
 This state for optimization and/or second-order correction.
 Total Energy, E(TD-HF/TD-DFT) =  -4069.75059578
 Copying the excited state density for this state as the 1-particle RhoCI density.

 Excited State   2:      Singlet-A      1.6834 eV  736.53 nm  f=0.5389  <S**2>=0.000
     309 -> 315        0.14451
     310 -> 316       -0.10098
     311 -> 313        0.56087
     312 -> 314       -0.39423

 Excited State   3:      Singlet-A      2.1871 eV  566.89 nm  f=0.0530  <S**2>=0.000
     309 -> 313       -0.15723
     310 -> 314        0.62306
     312 -> 316       -0.26524

 Excited State   4:      Singlet-A      2.1936 eV  565.20 nm  f=0.1396  <S**2>=0.000
     309 -> 313        0.62120
     310 -> 314        0.15622
     311 -> 315       -0.27045

 Excited State   5:      Singlet-A      2.7513 eV  450.64 nm  f=0.0000  <S**2>=0.000
     312 -> 313        0.70702

 The electronic state is 1-A.
 Alpha  occ. eigenvalues --  -46.87870 -46.87570 -19.26428 -19.26299 -19.19168
 Alpha  occ. eigenvalues --  -19.19106 -19.18857 -19.18578 -19.18262 -19.17971
 Alpha  occ. eigenvalues --  -14.42525 -14.42407 -14.41514 -14.41270 -14.39472
 Alpha  occ. eigenvalues --  -14.39256 -14.38663 -14.38510 -10.39221 -10.39034
 Alpha  occ. eigenvalues --  -10.35489 -10.35248 -10.34484 -10.34150 -10.31837
 Alpha  occ. eigenvalues --  -10.31718 -10.31486 -10.31224 -10.30986 -10.30926
 Alpha  occ. eigenvalues --  -10.30646 -10.30576 -10.30307 -10.30270 -10.30260
 Alpha  occ. eigenvalues --  -10.30043 -10.29983 -10.29814 -10.29699 -10.29333
 Alpha  occ. eigenvalues --  -10.29318 -10.29297 -10.28845 -10.28666 -10.28641
 Alpha  occ. eigenvalues --  -10.28601 -10.28441 -10.28308 -10.28202 -10.28057
 Alpha  occ. eigenvalues --  -10.27903 -10.27865 -10.27798 -10.27650 -10.27573
 Alpha  occ. eigenvalues --  -10.27534 -10.27531 -10.27482 -10.27482 -10.27440
 Alpha  occ. eigenvalues --  -10.27394 -10.27356 -10.27299 -10.27277 -10.27260
 Alpha  occ. eigenvalues --  -10.26977 -10.26826 -10.26627 -10.26435 -10.26309
 Alpha  occ. eigenvalues --  -10.26210 -10.26192 -10.26081 -10.26070 -10.25940
 Alpha  occ. eigenvalues --  -10.25914 -10.25845 -10.25778 -10.25461 -10.25324
 Alpha  occ. eigenvalues --  -10.24909 -10.24851 -10.24779 -10.24684 -10.24665
 Alpha  occ. eigenvalues --  -10.24600  -3.16613  -3.16320  -1.91495  -1.91202
 Alpha  occ. eigenvalues --   -1.91081  -1.90923  -1.90790  -1.90627  -1.16777
 Alpha  occ. eigenvalues --   -1.16592  -1.08724  -1.08582  -1.07256  -1.06890
 Alpha  occ. eigenvalues --   -1.06829  -1.06788  -1.04657  -1.04404  -1.03827
 Alpha  occ. eigenvalues --   -1.03571  -1.03304  -1.02947  -1.02481  -1.02020
 Alpha  occ. eigenvalues --   -0.92055  -0.91901  -0.89569  -0.89410  -0.89277
 Alpha  occ. eigenvalues --   -0.89070  -0.88332  -0.88139  -0.87944  -0.87747
 Alpha  occ. eigenvalues --   -0.87708  -0.87594  -0.87331  -0.86981  -0.85067
 Alpha  occ. eigenvalues --   -0.84915  -0.83980  -0.83799  -0.83009  -0.82796
 Alpha  occ. eigenvalues --   -0.82727  -0.82548  -0.81687  -0.81524  -0.80678
 Alpha  occ. eigenvalues --   -0.80355  -0.78860  -0.78517  -0.77285  -0.77052
 Alpha  occ. eigenvalues --   -0.77020  -0.76824  -0.76011  -0.75753  -0.74951
 Alpha  occ. eigenvalues --   -0.74721  -0.72842  -0.72608  -0.71742  -0.71495
 Alpha  occ. eigenvalues --   -0.69938  -0.69681  -0.68953  -0.68738  -0.67713
 Alpha  occ. eigenvalues --   -0.67509  -0.67306  -0.67102  -0.65375  -0.65191
 Alpha  occ. eigenvalues --   -0.64934  -0.64698  -0.64686  -0.64573  -0.64321
 Alpha  occ. eigenvalues --   -0.64122  -0.62402  -0.62209  -0.60497  -0.60220
 Alpha  occ. eigenvalues --   -0.59887  -0.59710  -0.59059  -0.58906  -0.58578
 Alpha  occ. eigenvalues --   -0.58338  -0.57687  -0.57481  -0.57373  -0.57141
 Alpha  occ. eigenvalues --   -0.56384  -0.56106  -0.56092  -0.55813  -0.55586
 Alpha  occ. eigenvalues --   -0.55406  -0.55343  -0.55172  -0.54603  -0.54417
 Alpha  occ. eigenvalues --   -0.53985  -0.53831  -0.53363  -0.53300  -0.53132
 Alpha  occ. eigenvalues --   -0.53042  -0.53004  -0.52819  -0.52818  -0.52526
 Alpha  occ. eigenvalues --   -0.52467  -0.52325  -0.51990  -0.51806  -0.51702
 Alpha  occ. eigenvalues --   -0.51559  -0.51272  -0.51120  -0.50617  -0.50320
 Alpha  occ. eigenvalues --   -0.50074  -0.49977  -0.49872  -0.49772  -0.49589
 Alpha  occ. eigenvalues --   -0.49375  -0.49293  -0.49180  -0.49101  -0.49022
 Alpha  occ. eigenvalues --   -0.48682  -0.48521  -0.48504  -0.48476  -0.48297
 Alpha  occ. eigenvalues --   -0.48212  -0.47764  -0.47494  -0.47362  -0.47008
 Alpha  occ. eigenvalues --   -0.46863  -0.46644  -0.46624  -0.46466  -0.46428
 Alpha  occ. eigenvalues --   -0.46235  -0.46174  -0.46005  -0.45914  -0.45750
 Alpha  occ. eigenvalues --   -0.45249  -0.45125  -0.44664  -0.44568  -0.44432
 Alpha  occ. eigenvalues --   -0.44386  -0.44207  -0.44163  -0.44094  -0.44039
 Alpha  occ. eigenvalues --   -0.43985  -0.43818  -0.43590  -0.43485  -0.43457
 Alpha  occ. eigenvalues --   -0.43301  -0.43100  -0.42861  -0.42820  -0.42816
 Alpha  occ. eigenvalues --   -0.42702  -0.42463  -0.42070  -0.41888  -0.41779
 Alpha  occ. eigenvalues --   -0.41616  -0.41585  -0.41377  -0.41212  -0.40942
 Alpha  occ. eigenvalues --   -0.40903  -0.40877  -0.40632  -0.40621  -0.40585
 Alpha  occ. eigenvalues --   -0.40415  -0.40334  -0.40139  -0.39466  -0.39350
 Alpha  occ. eigenvalues --   -0.38520  -0.38272  -0.37847  -0.37579  -0.37375
 Alpha  occ. eigenvalues --   -0.37352  -0.37183  -0.37112  -0.36827  -0.36711
 Alpha  occ. eigenvalues --   -0.36276  -0.36141  -0.34359  -0.34165  -0.33906
 Alpha  occ. eigenvalues --   -0.33800  -0.33261  -0.33085  -0.31388  -0.31141
 Alpha  occ. eigenvalues --   -0.31107  -0.30880  -0.30123  -0.29878  -0.29516
 Alpha  occ. eigenvalues --   -0.29397  -0.29220  -0.29117  -0.24153  -0.23947
 Alpha  occ. eigenvalues --   -0.21197  -0.21023
 Alpha virt. eigenvalues --   -0.08843  -0.08693  -0.01815  -0.01590  -0.00122
 Alpha virt. eigenvalues --    0.00086   0.02123   0.02294   0.03022   0.03306
 Alpha virt. eigenvalues --    0.04636   0.04811   0.04964   0.05225   0.06069

 Mulliken charges:
               1
     1  Mg   0.838112
     2  C   -0.003420
     3  C   -0.094236
     4  C   -0.045620
     5  C   -0.063757
     6  N   -0.256813
     7  C   -0.052660
     8  C   -0.013970
     9  C   -0.086986
    10  C    0.046227
    11  C    0.104763
    12  C    0.053509
    13  C   -0.071631
    14  H    0.035279
    15  N   -0.433216
    16  C    0.168435
    17  C   -0.177090
    18  C   -0.003799
    19  C    0.148707
    20  C    0.110137
    21  C    0.012476
    22  O   -0.249161
    23  C    0.062403
    24  N   -0.341130
    25  C    0.041301
    26  C   -0.028269
    27  C   -0.024023
    28  C    0.074814
    29  C    0.076100
    30  C    0.035040
    31  C   -0.004616
    32  N   -0.310345
    33  C    0.080100
    34  C   -0.169880
    35  C    0.008182
    36  C    0.082614
    37  C    0.127385
    38  C    0.045728
    39  O   -0.188833
    40  C   -0.005177
    41  C    0.212976
    42  O   -0.258159
    43  O   -0.304485
    44  C    0.157916
    45  H   -0.017452
    46  H   -0.016425
    47  H   -0.041267
    48  H    0.000934
    49  H   -0.004038
    50  H    0.025507
    51  H    0.016648
    52  H    0.016802
    53  H    0.011106
    54  H    0.043369
    55  H    0.018174
    56  H    0.018180
    57  H    0.005859
    58  H    0.027105
    59  H    0.039755
    60  H    0.037379
    61  H    0.036122
    62  H    0.031563
    63  H    0.017001
    64  H    0.009537
    65  H    0.023544
    66  H    0.012476
    67  H    0.004867
    68  H    0.006805
    69  H    0.004759
    70  H    0.009307
    71  H    0.018976
    72  H    0.028151
    73  H    0.047178
    74  H    0.009369
    75  H    0.046117
    76  H    0.035307
    77  H    0.043064
    78  H    0.046494
    79  H    0.052797
    80  Mg   0.837530
    81  C   -0.016859
    82  C   -0.087674
    83  C   -0.045458
    84  C   -0.064940
    85  N   -0.254560
    86  C   -0.050068
    87  C   -0.015085
    88  C   -0.090480
    89  C    0.045683
    90  C    0.114332
    91  C    0.062512
    92  C   -0.077725
    93  H    0.034319
    94  N   -0.423580
    95  C    0.162884
    96  C   -0.174331
    97  C   -0.007572
    98  C    0.152104
    99  C    0.099196
   100  C    0.015512
   101  O   -0.253524
   102  C    0.061411
   103  N   -0.350015
   104  C    0.037574
   105  C   -0.019855
   106  C   -0.034711
   107  C    0.088734
   108  C    0.073696
   109  C    0.034799
   110  C   -0.007640
   111  N   -0.324003
   112  C    0.078160
   113  C   -0.163404
   114  C    0.002103
   115  C    0.095974
   116  C    0.131543
   117  C    0.042169
   118  O   -0.188370
   119  C    0.000959
   120  C    0.211214
   121  O   -0.251183
   122  O   -0.305607
   123  C    0.152135
   124  H   -0.019143
   125  H   -0.015546
   126  H   -0.040742
   127  H   -0.000828
   128  H   -0.004186
   129  H    0.022306
   130  H    0.014595
   131  H    0.016404
   132  H    0.013974
   133  H    0.037489
   134  H    0.020770
   135  H    0.019672
   136  H    0.008948
   137  H    0.027318
   138  H    0.041169
   139  H    0.039548
   140  H    0.036493
   141  H    0.034307
   142  H    0.014363
   143  H    0.012240
   144  H    0.025046
   145  H    0.011779
   146  H    0.005532
   147  H    0.006098
   148  H    0.003472
   149  H    0.010958
   150  H    0.017703
   151  H    0.030167
   152  H    0.045710
   153  H    0.008323
   154  H    0.046727
   155  H    0.034888
   156  H    0.043729
   157  H    0.049441
   158  H    0.053379
 Sum of Mulliken charges =  -0.00000

 Dipole moment (field-independent basis, Debye):
    X=              4.5741    Y=              2.9579    Z=              1.2861  Tot=              5.5969
 Quadrupole moment (field-independent basis, Debye-Ang):
   XX=           -542.5888   YY=           -467.1637   ZZ=           -519.8297
   XY=             12.8085   XZ=             66.7745   YZ=             28.2785

 Normal termination of Gaussian 16 at Sat Sep 11 19:30:16 2021.
