 Gaussian 16, Revision A.03,
 Gaussian 16:  ES64L-G16RevA.03 25-Dec-2016

 -----------------------------------
 #p cam-b3lyp/Def2SVP td=(nstates=5)
 -----------------------------------

 --------------------------------
 TDDFT excited states in gaussian
 --------------------------------
 Symbolic Z-matrix:
 Charge =  0 Multiplicity = 1

                         Standard orientation:
 ---------------------------------------------------------------------
 Center     Atomic      Atomic             Coordinates (Angstroms)
 Number     Number       Type             X           Y           Z
 ---------------------------------------------------------------------
      1         12           0       -3.189276   -2.213169    0.214886
      2          6           0       -5.402828    0.592615    0.014938
      3          6           0       -3.946727   -2.854211   -3.049835
      4          6           0       -1.602508   -4.944405    0.496205
      5          6           0       -3.496630   -2.021058    3.681049
      6          7           0       -4.518546   -1.187471   -1.227900
      7          6           0       -5.264783   -0.087770   -1.196947
      8          6           0       -5.826439    0.317220   -2.592619
      9          6           0       -5.780358   -1.108029   -3.305741
     10          6           0       -4.657965   -1.744191   -2.504832
     11          6           0       -7.050651   -1.929097   -3.109006
     12          6           0       -4.909291    1.353966   -3.324553
     13          6           0       -5.541537    2.044484   -4.536495
     14          1           0       -5.211982    3.437099   -4.799866
     15          7           0       -2.438403   -3.406995   -1.168523
     16          6           0       -2.859534   -3.526359   -2.450586
     17          6           0       -1.983066   -4.540724   -3.074724
     18          6           0       -1.142146   -5.138365   -2.000585
     19          6           0       -1.719872   -4.531280   -0.828809
     20          6           0       -1.965492   -4.819551   -4.546354
     21          6           0       -0.006107   -6.111471   -2.025278
     22          8           0        0.430523   -6.674349   -0.963629
     23          6           0        0.531322   -6.460320   -3.352876
     24          7           0       -2.798554   -3.467902    1.836804
     25          6           0       -2.036743   -4.558449    1.697755
     26          6           0       -1.663963   -5.137609    3.030252
     27          6           0       -2.131008   -4.070428    4.122381
     28          6           0       -2.801927   -3.043533    3.177064
     29          6           0       -2.275664   -6.506250    3.359883
     30          6           0       -1.055537   -3.564946    5.116499
     31          6           0       -0.022424   -2.741829    4.380120
     32          7           0       -4.105761   -0.849407    1.633072
     33          6           0       -4.130305   -0.976160    3.029498
     34          6           0       -4.957595    0.128258    3.549036
     35          6           0       -5.373158    0.815546    2.410271
     36          6           0       -4.860882    0.165364    1.251337
     37          6           0       -5.283745    0.353734    4.915499
     38          6           0       -6.151091    1.933606    1.901723
     39          8           0       -6.735597    2.888376    2.415787
     40          6           0       -6.301992    1.763305    0.325635
     41          6           0       -5.975625    3.088187   -0.307989
     42          8           0       -4.818326    3.552617   -0.259723
     43          8           0       -7.008000    3.483566   -1.068528
     44          6           0       -6.737450    4.777812   -1.749617
     45          1           0       -4.287169   -3.288048   -3.992079
     46          1           0       -0.969406   -5.821503    0.645599
     47          1           0       -3.567756   -1.847982    4.756427
     48          1           0       -6.849387    0.693808   -2.579040
     49          1           0       -5.498981   -1.028853   -4.355636
     50          1           0       -7.728508   -1.451057   -2.401964
     51          1           0       -6.717396   -2.893242   -2.724483
     52          1           0       -7.529307   -2.137493   -4.066208
     53          1           0       -4.092302    0.826493   -3.816855
     54          1           0       -4.548279    2.110090   -2.626503
     55          1           0       -6.621507    1.896277   -4.561188
     56          1           0       -5.179634    1.550549   -5.438301
     57          1           0       -2.805655   -4.346910   -5.053583
     58          1           0       -2.139824   -5.888203   -4.670047
     59          1           0       -1.014645   -4.546749   -5.004395
     60          1           0       -0.264861   -6.888396   -3.962295
     61          1           0        1.395209   -7.098207   -3.169437
     62          1           0        0.846115   -5.546491   -3.857624
     63          1           0       -0.586785   -5.279601    3.107390
     64          1           0       -2.922718   -4.460176    4.762667
     65          1           0       -1.535193   -7.273407    3.587648
     66          1           0       -2.903583   -6.805556    2.521179
     67          1           0       -2.995352   -6.500158    4.178069
     68          1           0       -0.532058   -4.406468    5.569000
     69          1           0       -1.466508   -2.957560    5.922995
     70          1           0        0.655750   -3.498043    3.986352
     71          1           0        0.495015   -2.074812    5.070450
     72          1           0       -0.461070   -2.222118    3.528078
     73          1           0       -5.172008    1.424910    5.083025
     74          1           0       -4.635632   -0.220423    5.577236
     75          1           0       -6.316236    0.005360    4.936803
     76          1           0       -7.332943    1.463630    0.140009
     77          1           0       -7.543267    5.459053   -1.476116
     78          1           0       -6.604928    4.549595   -2.807332
     79          1           0       -5.868523    5.335171   -1.397967
     80         12           0        3.324335    2.328119   -0.051373
     81          6           0        5.161912   -0.700075   -0.627945
     82          6           0        3.059678    1.369920    3.211506
     83          6           0        1.325742    4.751744    0.394833
     84          6           0        2.753787    2.471941   -3.486412
     85          7           0        4.058373    0.544407    1.031124
     86          6           0        4.798019   -0.509797    0.721431
     87          6           0        5.236206   -1.367980    1.938426
     88          6           0        4.064827   -0.956601    2.957000
     89          6           0        3.723445    0.421217    2.393282
     90          6           0        2.831933   -1.837807    2.843893
     91          6           0        6.646365   -0.951916    2.486473
     92          6           0        7.271256   -1.942255    3.471613
     93          1           0        8.719502   -2.127910    3.447515
     94          7           0        2.748103    3.226176    1.621952
     95          6           0        2.726534    2.697385    2.863398
     96          6           0        2.202170    3.754474    3.741902
     97          6           0        1.761304    4.894302    2.892711
     98          6           0        1.912022    4.313887    1.573436
     99          6           0        2.229301    3.655703    5.239542
    100          6           0        1.271397    6.273514    3.215165
    101          8           0        0.717443    7.015619    2.329018
    102          6           0        1.374567    6.694083    4.620144
    103          7           0        2.024287    3.336015   -1.322745
    104          6           0        1.308744    4.387957   -0.887620
    105          6           0        0.659332    5.119353   -2.038145
    106          6           0        1.287129    4.480042   -3.362811
    107          6           0        2.162855    3.380617   -2.722695
    108          6           0       -0.865311    5.033580   -2.105232
    109          6           0        1.949205    5.458732   -4.371027
    110          6           0        3.197013    6.058843   -3.764212
    111          7           0        3.997711    1.231889   -1.787144
    112          6           0        3.614715    1.441809   -3.130030
    113          6           0        4.246443    0.375991   -3.934624
    114          6           0        4.939936   -0.399692   -2.993422
    115          6           0        4.737111    0.132520   -1.691464
    116          6           0        4.099476    0.195967   -5.338950
    117          6           0        5.788795   -1.553917   -2.803942
    118          8           0        6.360233   -2.344451   -3.553775
    119          6           0        5.867201   -1.873749   -1.248968
    120          6           0        7.311991   -2.091997   -0.891930
    121          8           0        8.130802   -1.159448   -0.972534
    122          8           0        7.444838   -3.298036   -0.310388
    123          6           0        8.858773   -3.555887    0.071872
    124          1           0        2.723391    1.057082    4.200414
    125          1           0        0.714638    5.653394    0.478802
    126          1           0        2.704329    2.504488   -4.576908
    127          1           0        5.222330   -2.437873    1.768379
    128          1           0        4.438025   -0.870621    3.974199
    129          1           0        2.901748   -2.523553    2.012622
    130          1           0        1.998383   -1.161356    2.707350
    131          1           0        2.649281   -2.353874    3.790802
    132          1           0        6.532210   -0.080096    3.143464
    133          1           0        7.328629   -0.765224    1.680073
    134          1           0        6.759259   -2.912157    3.461656
    135          1           0        7.115625   -1.567445    4.486169
    136          1           0        2.457411    2.635261    5.571302
    137          1           0        1.206878    3.833165    5.590271
    138          1           0        2.893026    4.391716    5.698261
    139          1           0        0.816218    6.002122    5.246163
    140          1           0        1.058291    7.738877    4.636410
    141          1           0        2.423059    6.623342    4.930421
    142          1           0        0.899079    6.175199   -2.009845
    143          1           0        0.526062    3.963909   -3.966327
    144          1           0       -1.358657    6.023876   -2.103978
    145          1           0       -1.210524    4.435710   -1.272210
    146          1           0       -1.259961    4.487805   -2.960545
    147          1           0        1.276803    6.292795   -4.586389
    148          1           0        2.202506    4.996200   -5.319127
    149          1           0        2.806155    6.884926   -3.162633
    150          1           0        3.866198    6.419627   -4.542717
    151          1           0        3.680578    5.352440   -3.079508
    152          1           0        5.083387   -0.028819   -5.728672
    153          1           0        3.676516    1.080281   -5.811037
    154          1           0        3.406505   -0.649473   -5.355743
    155          1           0        5.261630   -2.762289   -1.066325
    156          1           0        9.150679   -4.498751   -0.400862
    157          1           0        8.880960   -3.518571    1.177256
    158          1           0        9.613717   -2.882128   -0.316150
 ---------------------------------------------------------------------

 SCF Done:  E(RCAM-B3LYP) =  -4069.81071497     A.U. after   19 cycles

 Excitation energies and oscillator strengths:

 Excited State   1:      Singlet-A      1.6385 eV  756.71 nm  f=0.0088  <S**2>=0.000
     309 -> 315        0.11063
     310 -> 316        0.12225
     311 -> 313        0.46204
     312 -> 314        0.51015
 This state for optimization and/or second-order correction.
 Total Energy, E(TD-HF/TD-DFT) =  -4069.75050288
 Copying the excited state density for this state as the 1-particle RhoCI density.

 Excited State   2:      Singlet-A      1.7110 eV  724.62 nm  f=0.6716  <S**2>=0.000
     309 -> 315        0.13616
     310 -> 316       -0.12296
     311 -> 313        0.50676
     312 -> 314       -0.45892

 Excited State   3:      Singlet-A      2.1788 eV  569.04 nm  f=0.0119  <S**2>=0.000
     309 -> 313        0.34078
     310 -> 314        0.54970
     311 -> 315       -0.13910
     312 -> 316       -0.22546

 Excited State   4:      Singlet-A      2.1996 eV  563.68 nm  f=0.1558  <S**2>=0.000
     309 -> 313        0.54250
     310 -> 314       -0.33479
     311 -> 315       -0.24163
     312 -> 316        0.15049

 Excited State   5:      Singlet-A      2.2312 eV  555.67 nm  f=0.0000  <S**2>=0.000
     312 -> 313        0.70703

 The electronic state is 1-A.
 Alpha  occ. eigenvalues --  -46.87932 -46.87379 -19.26378 -19.26134 -19.19136
 Alpha  occ. eigenvalues --  -19.18946 -19.18854 -19.18372 -19.18263 -19.17827
 Alpha  occ. eigenvalues --  -14.42586 -14.42211 -14.41611 -14.41062 -14.39525
 Alpha  occ. eigenvalues --  -14.39063 -14.38719 -14.38333 -10.39188 -10.38869
 Alpha  occ. eigenvalues --  -10.35477 -10.35046 -10.34486 -10.34005 -10.31758
 Alpha  occ. eigenvalues --  -10.31568 -10.31544 -10.31064 -10.31025 -10.30720
 Alpha  occ. eigenvalues --  -10.30705 -10.30646 -10.30373 -10.30126 -10.30115
 Alpha  occ. eigenvalues --  -10.30100 -10.29823 -10.29749 -10.29580 -10.29376
 Alpha  occ. eigenvalues --  -10.29146 -10.29136 -10.28883 -10.28709 -10.28476
 Alpha  occ. eigenvalues --  -10.28462 -10.28434 -10.28243 -10.28119 -10.27907
 Alpha  occ. eigenvalues --  -10.27859 -10.27834 -10.27775 -10.27737 -10.27702
 Alpha  occ. eigenvalues --  -10.27685 -10.27533 -10.27519 -10.27402 -10.27265
 Alpha  occ. eigenvalues --  -10.27220 -10.27196 -10.27195 -10.27194 -10.26941
 Alpha  occ. eigenvalues --  -10.26872 -10.26795 -10.26571 -10.26458 -10.26344
 Alpha  occ. eigenvalues --  -10.26314 -10.26193 -10.26082 -10.26006 -10.25907
 Alpha  occ. eigenvalues --  -10.25759 -10.25669 -10.25644 -10.25590 -10.25246
 Alpha  occ. eigenvalues --  -10.24946 -10.24939 -10.24679 -10.24616 -10.24514
 Alpha  occ. eigenvalues --  -10.24352  -3.16675  -3.16129  -1.91556  -1.91143
 Alpha  occ. eigenvalues --   -1.91012  -1.90985  -1.90600  -1.90437  -1.16729
 Alpha  occ. eigenvalues --   -1.16428  -1.08720  -1.08444  -1.07253  -1.06744
 Alpha  occ. eigenvalues --   -1.06731  -1.06612  -1.04712  -1.04213  -1.03913
 Alpha  occ. eigenvalues --   -1.03373  -1.03368  -1.02747  -1.02550  -1.01823
 Alpha  occ. eigenvalues --   -0.92097  -0.91716  -0.89764  -0.89325  -0.89207
 Alpha  occ. eigenvalues --   -0.88871  -0.88515  -0.88005  -0.87882  -0.87817
 Alpha  occ. eigenvalues --   -0.87584  -0.87400  -0.87340  -0.86837  -0.85122
 Alpha  occ. eigenvalues --   -0.84726  -0.84214  -0.83530  -0.83059  -0.82747
 Alpha  occ. eigenvalues --   -0.82611  -0.82366  -0.81710  -0.81358  -0.80715
 Alpha  occ. eigenvalues --   -0.80178  -0.78894  -0.78376  -0.77419  -0.77106
 Alpha  occ. eigenvalues --   -0.76872  -0.76610  -0.76053  -0.75587  -0.75089
 Alpha  occ. eigenvalues --   -0.74403  -0.72928  -0.72437  -0.71819  -0.71262
 Alpha  occ. eigenvalues --   -0.70245  -0.69448  -0.69004  -0.68546  -0.67762
 Alpha  occ. eigenvalues --   -0.67334  -0.67316  -0.66936  -0.65435  -0.65023
 Alpha  occ. eigenvalues --   -0.64995  -0.64790  -0.64510  -0.64477  -0.64370
 Alpha  occ. eigenvalues --   -0.63897  -0.62427  -0.62031  -0.60553  -0.60034
 Alpha  occ. eigenvalues --   -0.59933  -0.59525  -0.59141  -0.58702  -0.58647
 Alpha  occ. eigenvalues --   -0.58145  -0.57702  -0.57466  -0.57318  -0.56935
 Alpha  occ. eigenvalues --   -0.56428  -0.56092  -0.55961  -0.55656  -0.55637
 Alpha  occ. eigenvalues --   -0.55551  -0.55184  -0.54949  -0.54732  -0.54191
 Alpha  occ. eigenvalues --   -0.54032  -0.53655  -0.53455  -0.53305  -0.53086
 Alpha  occ. eigenvalues --   -0.52958  -0.52873  -0.52839  -0.52732  -0.52636
 Alpha  occ. eigenvalues --   -0.52373  -0.52143  -0.52057  -0.51729  -0.51721
 Alpha  occ. eigenvalues --   -0.51399  -0.51360  -0.50954  -0.50628  -0.50273
 Alpha  occ. eigenvalues --   -0.50176  -0.50001  -0.49695  -0.49608  -0.49500
 Alpha  occ. eigenvalues --   -0.49325  -0.49221  -0.49205  -0.48953  -0.48837
 Alpha  occ. eigenvalues --   -0.48743  -0.48637  -0.48508  -0.48303  -0.48057
 Alpha  occ. eigenvalues --   -0.47998  -0.47829  -0.47416  -0.47314  -0.47001
 Alpha  occ. eigenvalues --   -0.46811  -0.46686  -0.46542  -0.46431  -0.46324
 Alpha  occ. eigenvalues --   -0.46244  -0.46002  -0.45957  -0.45795  -0.45595
 Alpha  occ. eigenvalues --   -0.45373  -0.44788  -0.44741  -0.44640  -0.44380
 Alpha  occ. eigenvalues --   -0.44262  -0.44209  -0.44154  -0.44098  -0.43841
 Alpha  occ. eigenvalues --   -0.43785  -0.43665  -0.43632  -0.43535  -0.43308
 Alpha  occ. eigenvalues --   -0.43193  -0.43097  -0.42964  -0.42791  -0.42691
 Alpha  occ. eigenvalues --   -0.42624  -0.42258  -0.42223  -0.41841  -0.41702
 Alpha  occ. eigenvalues --   -0.41672  -0.41397  -0.41291  -0.41196  -0.41063
 Alpha  occ. eigenvalues --   -0.40887  -0.40779  -0.40721  -0.40480  -0.40390
 Alpha  occ. eigenvalues --   -0.40364  -0.40180  -0.39962  -0.39542  -0.39133
 Alpha  occ. eigenvalues --   -0.38692  -0.37995  -0.37900  -0.37528  -0.37395
 Alpha  occ. eigenvalues --   -0.37366  -0.36967  -0.36924  -0.36847  -0.36521
 Alpha  occ. eigenvalues --   -0.36348  -0.35897  -0.34426  -0.33972  -0.33878
 Alpha  occ. eigenvalues --   -0.33632  -0.33324  -0.32896  -0.31394  -0.31168
 Alpha  occ. eigenvalues --   -0.30928  -0.30670  -0.30125  -0.29736  -0.29549
 Alpha  occ. eigenvalues --   -0.29436  -0.29052  -0.28957  -0.24222  -0.23751
 Alpha  occ. eigenvalues --   -0.21267  -0.20832
 Alpha virt. eigenvalues --   -0.08895  -0.08512  -0.01891  -0.01379  -0.00139
 Alpha virt. eigenvalues --    0.00268   0.02072   0.02362   0.02583   0.03614
 Alpha virt. eigenvalues --    0.04558   0.04960   0.05032   0.05393   0.05926

 Mulliken charges:
               1
     1  Mg   0.838952
     2  C   -0.002648
     3  C   -0.093688
     4  C   -0.046925
     5  C   -0.064833
     6  N   -0.256545
     7  C   -0.052881
     8  C   -0.013950
     9  C   -0.087085
    10  C    0.046335
    11  C    0.104710
    12  C    0.052758
    13  C   -0.071665
    14  H    0.034929
    15  N   -0.433444
    16  C    0.168931
    17  C   -0.176362
    18  C   -0.003090
    19  C    0.149046
    20  C    0.110057
    21  C    0.012772
    22  O   -0.250154
    23  C    0.062050
    24  N   -0.340882
    25  C    0.041412
    26  C   -0.029220
    27  C   -0.024865
    28  C    0.073688
    29  C    0.076216
    30  C    0.052035
    31  C   -0.037880
    32  N   -0.310513
    33  C    0.079961
    34  C   -0.170354
    35  C    0.008784
    36  C    0.083146
    37  C    0.127367
    38  C    0.046653
    39  O   -0.187850
    40  C   -0.005755
    41  C    0.213447
    42  O   -0.256463
    43  O   -0.304785
    44  C    0.157039
    45  H   -0.017016
    46  H   -0.017082
    47  H   -0.042719
    48  H    0.001275
    49  H   -0.003870
    50  H    0.025658
    51  H    0.016615
    52  H    0.017068
    53  H    0.010959
    54  H    0.044038
    55  H    0.018654
    56  H    0.018099
    57  H    0.005747
    58  H    0.027462
    59  H    0.041194
    60  H    0.036956
    61  H    0.037769
    62  H    0.034028
    63  H    0.016069
    64  H    0.010015
    65  H    0.023153
    66  H    0.013503
    67  H    0.004989
    68  H    0.004770
    69  H    0.002213
    70  H    0.022714
    71  H    0.017199
    72  H    0.036678
    73  H    0.047359
    74  H    0.007650
    75  H    0.046340
    76  H    0.035385
    77  H    0.043619
    78  H    0.045873
    79  H    0.054623
    80  Mg   0.836665
    81  C   -0.017173
    82  C   -0.088657
    83  C   -0.041520
    84  C   -0.065642
    85  N   -0.255077
    86  C   -0.049971
    87  C   -0.015091
    88  C   -0.089335
    89  C    0.046078
    90  C    0.103962
    91  C    0.063162
    92  C   -0.077462
    93  H    0.033921
    94  N   -0.424217
    95  C    0.164035
    96  C   -0.173675
    97  C   -0.005324
    98  C    0.152034
    99  C    0.099131
   100  C    0.017098
   101  O   -0.251095
   102  C    0.061080
   103  N   -0.350240
   104  C    0.038860
   105  C   -0.020954
   106  C   -0.033396
   107  C    0.088503
   108  C    0.071158
   109  C    0.034919
   110  C   -0.007360
   111  N   -0.323749
   112  C    0.077972
   113  C   -0.164807
   114  C    0.001348
   115  C    0.095793
   116  C    0.131966
   117  C    0.040876
   118  O   -0.189997
   119  C    0.001103
   120  C    0.210860
   121  O   -0.251545
   122  O   -0.305055
   123  C    0.152400
   124  H   -0.020678
   125  H   -0.012675
   126  H   -0.042450
   127  H    0.000041
   128  H   -0.006370
   129  H    0.023963
   130  H    0.018868
   131  H    0.019330
   132  H    0.013415
   133  H    0.037299
   134  H    0.020881
   135  H    0.018839
   136  H    0.007305
   137  H    0.027404
   138  H    0.039351
   139  H    0.039136
   140  H    0.036489
   141  H    0.032550
   142  H    0.013155
   143  H    0.010307
   144  H    0.023162
   145  H    0.027444
   146  H    0.002482
   147  H    0.005435
   148  H    0.001808
   149  H    0.011095
   150  H    0.016704
   151  H    0.030246
   152  H    0.045323
   153  H    0.007797
   154  H    0.043126
   155  H    0.036316
   156  H    0.043517
   157  H    0.049403
   158  H    0.052957
 Sum of Mulliken charges =  -0.00000

 Dipole moment (field-independent basis, Debye):
    X=             -3.2461    Y=             -2.9309    Z=              0.3876  Tot=              4.3906
 Quadrupole moment (field-independent basis, Debye-Ang):
   XX=           -537.6099   YY=           -532.2505   ZZ=           -450.9123
   XY=             21.0805   XZ=             59.0767   YZ=            -21.9819

 Normal termination of Gaussian 16 at Wed Sep  8 19:20:24 2021.
