 Gaussian 16, Revision A.03,
 Gaussian 16:  ES64L-G16RevA.03 25-Dec-2016

 -----------------------------------
 #p cam-b3lyp/Def2SVP td=(nstates=5)
 -----------------------------------

 --------------------------------
 TDDFT excited states in gaussian
 --------------------------------
 Symbolic Z-matrix:
 Charge =  0 Multiplicity = 1

                         Standard orientation:
 ---------------------------------------------------------------------
 Center     Atomic      Atomic             Coordinates (Angstroms)
 Number     Number       Type             X           Y           Z
 ---------------------------------------------------------------------
      1         12           0        5.489231   -0.382252    0.183896
      2          6           0        5.528022    2.776008   -1.500178
      3          6           0        6.231306    1.307187    3.054120
      4          6           0        5.907901   -3.189137    1.599077
      5          6           0        5.877704   -1.884386   -2.936736
      6          7           0        5.812074    1.768447    0.597307
      7          6           0        5.739405    2.882880   -0.123755
      8          6           0        5.833741    4.180536    0.733313
      9          6           0        6.606752    3.591718    1.997332
     10          6           0        6.163428    2.142624    1.899794
     11          6           0        8.125121    3.650834    1.864807
     12          6           0        4.424101    4.734339    1.130740
     13          6           0        4.415260    6.162519    1.683531
     14          1           0        3.290836    7.029604    1.365441
     15          7           0        5.513254   -0.859706    2.100745
     16          6           0        5.822453   -0.041560    3.135307
     17          6           0        5.695546   -0.864224    4.357518
     18          6           0        5.472449   -2.274928    3.935338
     19          6           0        5.650713   -2.167161    2.509860
     20          6           0        5.739540   -0.293510    5.741750
     21          6           0        5.160148   -3.524122    4.696990
     22          8           0        5.235291   -4.683217    4.162738
     23          6           0        4.845637   -3.359862    6.127774
     24          7           0        6.062052   -2.259549   -0.526928
     25          6           0        6.108689   -3.320513    0.286191
     26          6           0        6.264696   -4.595567   -0.488302
     27          6           0        6.070597   -4.206140   -2.024670
     28          6           0        5.908747   -2.674674   -1.861307
     29          6           0        7.603084   -5.326117   -0.312159
     30          6           0        4.987503   -4.982104   -2.815370
     31          6           0        3.615070   -4.629652   -2.286878
     32          7           0        5.496081    0.279528   -1.883239
     33          6           0        5.697601   -0.513917   -3.021883
     34          6           0        5.723121    0.394888   -4.182698
     35          6           0        5.550118    1.663834   -3.633433
     36          6           0        5.450770    1.557190   -2.216730
     37          6           0        5.947936    0.013492   -5.534892
     38          6           0        5.450751    3.087414   -3.911644
     39          8           0        5.374191    3.767536   -4.935884
     40          6           0        5.554582    3.876006   -2.532090
     41          6           0        4.445788    4.892447   -2.505024
     42          8           0        3.251417    4.534958   -2.449844
     43          8           0        4.966699    6.113447   -2.309183
     44          6           0        3.917096    7.165138   -2.242607
     45          1           0        6.692698    1.698878    3.962765
     46          1           0        5.948952   -4.189091    2.035934
     47          1           0        5.910303   -2.289455   -3.949806
     48          1           0        6.416942    4.982718    0.280760
     49          1           0        6.256744    4.033092    2.930288
     50          1           0        8.425818    3.970119    0.867029
     51          1           0        8.474139    2.636913    2.061389
     52          1           0        8.558312    4.273908    2.647687
     53          1           0        4.059334    4.194834    2.004776
     54          1           0        3.732790    4.668949    0.289825
     55          1           0        5.358616    6.672301    1.485763
     56          1           0        4.359773    6.107584    2.770777
     57          1           0        6.080503    0.741030    5.737760
     58          1           0        6.515596   -0.833191    6.284143
     59          1           0        4.786592   -0.400426    6.260200
     60          1           0        5.689631   -2.886275    6.629708
     61          1           0        4.561558   -4.347782    6.488555
     62          1           0        4.004709   -2.673004    6.227852
     63          1           0        5.503282   -5.321009   -0.204737
     64          1           0        6.982071   -4.357806   -2.603363
     65          1           0        7.498405   -6.353774    0.036651
     66          1           0        8.218508   -4.741900    0.371387
     67          1           0        8.231160   -5.350451   -1.202296
     68          1           0        5.116695   -6.055608   -2.681791
     69          1           0        5.005951   -4.776486   -3.885712
     70          1           0        3.506239   -5.293655   -1.430089
     71          1           0        2.853242   -4.835422   -3.039532
     72          1           0        3.583476   -3.606378   -1.912183
     73          1           0        5.223238    0.566531   -6.132329
     74          1           0        5.832238   -1.061984   -5.667437
     75          1           0        6.978396    0.342253   -5.668773
     76          1           0        6.538720    4.343085   -2.511322
     77          1           0        4.163376    7.912611   -2.996838
     78          1           0        3.870597    7.491176   -1.203405
     79          1           0        2.917736    6.869823   -2.564179
     80         12           0       -5.073418   -0.996596    0.061789
     81          6           0       -7.628184    1.523154    0.117369
     82          6           0       -2.788757    1.527013    0.276980
     83          6           0       -2.796397   -3.149207   -0.437067
     84          6           0       -7.443414   -3.172922   -1.277035
     85          7           0       -5.301963    1.200399    0.176851
     86          6           0       -6.323041    2.040664    0.252361
     87          6           0       -5.926452    3.508275    0.566024
     88          6           0       -4.415609    3.470378    0.023102
     89          6           0       -4.129830    1.980429    0.199379
     90          6           0       -4.298255    3.807733   -1.453977
     91          6           0       -5.977152    3.825955    2.101767
     92          6           0       -5.903415    5.313422    2.453555
     93          1           0       -6.669227    5.796489    3.599269
     94          7           0       -3.123285   -0.909632    0.419526
     95          6           0       -2.358551    0.199753    0.495243
     96          6           0       -0.989881   -0.272127    0.756460
     97          6           0       -0.980343   -1.757471    0.664963
     98          6           0       -2.324599   -2.000413    0.181190
     99          6           0        0.131053    0.651833    1.134934
    100          6           0        0.069589   -2.787839    0.951650
    101          8           0       -0.062011   -4.006028    0.575459
    102          6           0        1.297471   -2.308954    1.603180
    103          7           0       -5.051922   -2.821269   -0.934434
    104          6           0       -3.944582   -3.583636   -0.956933
    105          6           0       -4.243745   -4.964512   -1.489889
    106          6           0       -5.837344   -5.048694   -1.594561
    107          6           0       -6.195316   -3.607577   -1.169793
    108          6           0       -3.626324   -5.302036   -2.846827
    109          6           0       -6.529491   -6.229322   -0.859903
    110          6           0       -6.382883   -6.063709    0.635573
    111          7           0       -7.199431   -0.938084   -0.318625
    112          6           0       -7.988374   -1.949259   -0.909520
    113          6           0       -9.352384   -1.403143   -1.063344
    114          6           0       -9.256061   -0.093824   -0.568483
    115          6           0       -7.921205    0.165032   -0.155392
    116          6           0      -10.459986   -2.082829   -1.644176
    117          6           0       -9.977632    1.131735   -0.311471
    118          8           0      -11.156951    1.475866   -0.378644
    119          6           0       -8.926903    2.275342    0.026919
    120          6           0       -9.405733    2.996952    1.256762
    121          8           0       -9.462141    2.410460    2.351958
    122          8           0       -9.509998    4.310463    0.984384
    123          6           0       -9.971154    5.070136    2.176875
    124          1           0       -1.987104    2.247841    0.113702
    125          1           0       -2.074882   -3.964040   -0.531573
    126          1           0       -8.262142   -3.821653   -1.595614
    127          1           0       -6.495848    4.257378    0.028988
    128          1           0       -3.755125    4.062247    0.651446
    129          1           0       -5.265987    3.902163   -1.923797
    130          1           0       -3.739850    2.994098   -1.898095
    131          1           0       -3.684677    4.703130   -1.588558
    132          1           0       -5.048614    3.475729    2.570696
    133          1           0       -6.847957    3.390813    2.552298
    134          1           0       -6.075440    5.952803    1.579167
    135          1           0       -4.880857    5.547348    2.759622
    136          1           0       -0.136394    1.701312    0.960405
    137          1           0        0.952554    0.461023    0.435950
    138          1           0        0.488005    0.485835    2.153606
    139          1           0        1.760517   -1.544635    0.983620
    140          1           0        1.888661   -3.203992    1.806307
    141          1           0        1.026339   -1.826047    2.548646
    142          1           0       -3.895811   -5.727411   -0.804301
    143          1           0       -6.171861   -5.161528   -2.636287
    144          1           0       -2.987509   -6.205045   -2.823212
    145          1           0       -3.060665   -4.444868   -3.187156
    146          1           0       -4.340111   -5.444057   -3.656489
    147          1           0       -6.042287   -7.173118   -1.116893
    148          1           0       -7.581419   -6.332937   -1.104257
    149          1           0       -5.388664   -6.475513    0.833175
    150          1           0       -7.153760   -6.624316    1.160478
    151          1           0       -6.361899   -5.003655    0.913973
    152          1           0      -11.313827   -1.885657   -1.009679
    153          1           0      -10.268718   -3.150086   -1.734347
    154          1           0      -10.502149   -1.589562   -2.618946
    155          1           0       -8.870948    2.935587   -0.839403
    156          1           0      -10.866855    5.622778    1.876882
    157          1           0       -9.099243    5.665285    2.507504
    158          1           0      -10.346096    4.501042    3.019493
 ---------------------------------------------------------------------

 SCF Done:  E(RCAM-B3LYP) =  -4069.81252661     A.U. after   19 cycles

 Excitation energies and oscillator strengths:

 Excited State   1:      Singlet-A      1.6658 eV  744.29 nm  f=0.3478  <S**2>=0.000
     309 -> 315        0.10943
     310 -> 316       -0.13123
     311 -> 313        0.43720
     312 -> 314        0.52948
 This state for optimization and/or second-order correction.
 Total Energy, E(TD-HF/TD-DFT) =  -4069.75130901
 Copying the excited state density for this state as the 1-particle RhoCI density.

 Excited State   2:      Singlet-A      1.6808 eV  737.65 nm  f=0.4423  <S**2>=0.000
     309 -> 315        0.13679
     310 -> 316        0.11079
     311 -> 313        0.52856
     312 -> 314       -0.43643

 Excited State   3:      Singlet-A      2.1829 eV  567.97 nm  f=0.0237  <S**2>=0.000
     309 -> 313       -0.26977
     310 -> 314        0.58496
     311 -> 315        0.11182
     312 -> 316        0.24536

 Excited State   4:      Singlet-A      2.1974 eV  564.22 nm  f=0.1546  <S**2>=0.000
     309 -> 313        0.58115
     310 -> 314        0.26632
     311 -> 315       -0.25588
     312 -> 316        0.11613

 Excited State   5:      Singlet-A      2.3956 eV  517.55 nm  f=0.0000  <S**2>=0.000
     312 -> 313        0.70653

 The electronic state is 1-A.
 Alpha  occ. eigenvalues --  -46.88124 -46.87480 -19.26656 -19.26235 -19.19417
 Alpha  occ. eigenvalues --  -19.19040 -19.19008 -19.18559 -19.18444 -19.17891
 Alpha  occ. eigenvalues --  -14.42740 -14.42308 -14.41682 -14.41181 -14.39694
 Alpha  occ. eigenvalues --  -14.39170 -14.38877 -14.38423 -10.39462 -10.38965
 Alpha  occ. eigenvalues --  -10.35636 -10.35223 -10.34669 -10.34070 -10.32056
 Alpha  occ. eigenvalues --  -10.31687 -10.31663 -10.31209 -10.31107 -10.30841
 Alpha  occ. eigenvalues --  -10.30829 -10.30767 -10.30400 -10.30229 -10.30174
 Alpha  occ. eigenvalues --  -10.30122 -10.29961 -10.29872 -10.29735 -10.29509
 Alpha  occ. eigenvalues --  -10.29246 -10.29229 -10.29089 -10.28953 -10.28652
 Alpha  occ. eigenvalues --  -10.28552 -10.28531 -10.28419 -10.28219 -10.28052
 Alpha  occ. eigenvalues --  -10.27992 -10.27909 -10.27839 -10.27817 -10.27723
 Alpha  occ. eigenvalues --  -10.27683 -10.27533 -10.27489 -10.27463 -10.27441
 Alpha  occ. eigenvalues --  -10.27378 -10.27307 -10.27284 -10.27241 -10.27223
 Alpha  occ. eigenvalues --  -10.27143 -10.26895 -10.26581 -10.26556 -10.26491
 Alpha  occ. eigenvalues --  -10.26273 -10.26228 -10.26043 -10.26040 -10.26019
 Alpha  occ. eigenvalues --  -10.25759 -10.25708 -10.25703 -10.25482 -10.25282
 Alpha  occ. eigenvalues --  -10.25099 -10.25024 -10.24695 -10.24618 -10.24517
 Alpha  occ. eigenvalues --  -10.24341  -3.16848  -3.16230  -1.91733  -1.91315
 Alpha  occ. eigenvalues --   -1.91157  -1.91112  -1.90701  -1.90538  -1.17008
 Alpha  occ. eigenvalues --   -1.16527  -1.08908  -1.08504  -1.07401  -1.07031
 Alpha  occ. eigenvalues --   -1.06824  -1.06799  -1.04868  -1.04305  -1.04004
 Alpha  occ. eigenvalues --   -1.03494  -1.03483  -1.02862  -1.02664  -1.01933
 Alpha  occ. eigenvalues --   -0.92250  -0.91812  -0.89653  -0.89495  -0.89335
 Alpha  occ. eigenvalues --   -0.88948  -0.88383  -0.88114  -0.88070  -0.87934
 Alpha  occ. eigenvalues --   -0.87626  -0.87512  -0.87496  -0.86933  -0.85279
 Alpha  occ. eigenvalues --   -0.84817  -0.84006  -0.83737  -0.83120  -0.82898
 Alpha  occ. eigenvalues --   -0.82762  -0.82473  -0.81875  -0.81449  -0.80859
 Alpha  occ. eigenvalues --   -0.80280  -0.79038  -0.78445  -0.77446  -0.77166
 Alpha  occ. eigenvalues --   -0.76966  -0.76739  -0.76194  -0.75649  -0.75021
 Alpha  occ. eigenvalues --   -0.74651  -0.73003  -0.72519  -0.71904  -0.71399
 Alpha  occ. eigenvalues --   -0.69886  -0.69617  -0.69144  -0.68647  -0.67892
 Alpha  occ. eigenvalues --   -0.67531  -0.67432  -0.67038  -0.65588  -0.65114
 Alpha  occ. eigenvalues --   -0.65094  -0.64857  -0.64599  -0.64487  -0.64374
 Alpha  occ. eigenvalues --   -0.64049  -0.62580  -0.62133  -0.60653  -0.60164
 Alpha  occ. eigenvalues --   -0.60102  -0.59602  -0.59222  -0.58819  -0.58741
 Alpha  occ. eigenvalues --   -0.58255  -0.57888  -0.57491  -0.57402  -0.57079
 Alpha  occ. eigenvalues --   -0.56560  -0.56297  -0.56025  -0.55760  -0.55739
 Alpha  occ. eigenvalues --   -0.55503  -0.55291  -0.55104  -0.54692  -0.54352
 Alpha  occ. eigenvalues --   -0.54213  -0.53723  -0.53517  -0.53497  -0.53183
 Alpha  occ. eigenvalues --   -0.53060  -0.53006  -0.52968  -0.52739  -0.52503
 Alpha  occ. eigenvalues --   -0.52381  -0.52270  -0.52131  -0.51918  -0.51729
 Alpha  occ. eigenvalues --   -0.51490  -0.51409  -0.51040  -0.50777  -0.50285
 Alpha  occ. eigenvalues --   -0.50210  -0.50041  -0.49798  -0.49768  -0.49706
 Alpha  occ. eigenvalues --   -0.49478  -0.49360  -0.49301  -0.49015  -0.48919
 Alpha  occ. eigenvalues --   -0.48873  -0.48675  -0.48593  -0.48382  -0.48229
 Alpha  occ. eigenvalues --   -0.48156  -0.47913  -0.47521  -0.47406  -0.47007
 Alpha  occ. eigenvalues --   -0.46934  -0.46850  -0.46585  -0.46535  -0.46370
 Alpha  occ. eigenvalues --   -0.46359  -0.46100  -0.46087  -0.45933  -0.45670
 Alpha  occ. eigenvalues --   -0.45317  -0.45057  -0.44837  -0.44718  -0.44379
 Alpha  occ. eigenvalues --   -0.44356  -0.44303  -0.44281  -0.44214  -0.43938
 Alpha  occ. eigenvalues --   -0.43917  -0.43761  -0.43748  -0.43611  -0.43411
 Alpha  occ. eigenvalues --   -0.43258  -0.43212  -0.43022  -0.42791  -0.42737
 Alpha  occ. eigenvalues --   -0.42721  -0.42394  -0.42119  -0.41943  -0.41814
 Alpha  occ. eigenvalues --   -0.41772  -0.41502  -0.41383  -0.41292  -0.41117
 Alpha  occ. eigenvalues --   -0.41047  -0.40799  -0.40646  -0.40583  -0.40563
 Alpha  occ. eigenvalues --   -0.40532  -0.40337  -0.40079  -0.39372  -0.39290
 Alpha  occ. eigenvalues --   -0.38599  -0.38200  -0.38085  -0.37578  -0.37501
 Alpha  occ. eigenvalues --   -0.37460  -0.37103  -0.37022  -0.37019  -0.36645
 Alpha  occ. eigenvalues --   -0.36408  -0.36063  -0.34550  -0.34145  -0.34078
 Alpha  occ. eigenvalues --   -0.33729  -0.33444  -0.32994  -0.31534  -0.31282
 Alpha  occ. eigenvalues --   -0.31102  -0.30793  -0.30307  -0.29798  -0.29713
 Alpha  occ. eigenvalues --   -0.29591  -0.29145  -0.29036  -0.24351  -0.23852
 Alpha  occ. eigenvalues --   -0.21375  -0.20934
 Alpha virt. eigenvalues --   -0.09029  -0.08609  -0.02000  -0.01514  -0.00310
 Alpha virt. eigenvalues --    0.00121   0.01923   0.02052   0.02472   0.03374
 Alpha virt. eigenvalues --    0.04426   0.04727   0.04911   0.05296   0.05740

 Mulliken charges:
               1
     1  Mg   0.821812
     2  C   -0.003466
     3  C   -0.094418
     4  C   -0.045531
     5  C   -0.061932
     6  N   -0.256348
     7  C   -0.054027
     8  C   -0.013191
     9  C   -0.086713
    10  C    0.045329
    11  C    0.104655
    12  C    0.053351
    13  C   -0.071569
    14  H    0.034528
    15  N   -0.433299
    16  C    0.166886
    17  C   -0.178591
    18  C   -0.004529
    19  C    0.146460
    20  C    0.110386
    21  C    0.011895
    22  O   -0.247405
    23  C    0.062772
    24  N   -0.339460
    25  C    0.042581
    26  C   -0.028090
    27  C   -0.024392
    28  C    0.075326
    29  C    0.075918
    30  C    0.034264
    31  C   -0.002335
    32  N   -0.310730
    33  C    0.080216
    34  C   -0.169108
    35  C    0.008610
    36  C    0.081841
    37  C    0.127272
    38  C    0.046029
    39  O   -0.188014
    40  C   -0.005727
    41  C    0.213499
    42  O   -0.259819
    43  O   -0.304073
    44  C    0.157722
    45  H   -0.017360
    46  H   -0.015420
    47  H   -0.040248
    48  H    0.001481
    49  H   -0.004265
    50  H    0.025779
    51  H    0.017157
    52  H    0.017173
    53  H    0.009561
    54  H    0.041520
    55  H    0.019331
    56  H    0.018426
    57  H    0.005851
    58  H    0.027773
    59  H    0.038774
    60  H    0.037660
    61  H    0.037376
    62  H    0.030069
    63  H    0.019778
    64  H    0.009307
    65  H    0.024261
    66  H    0.012034
    67  H    0.004913
    68  H    0.006824
    69  H    0.003444
    70  H    0.015918
    71  H    0.019814
    72  H    0.025525
    73  H    0.047726
    74  H    0.010227
    75  H    0.046444
    76  H    0.035822
    77  H    0.044039
    78  H    0.046299
    79  H    0.052330
    80  Mg   0.837695
    81  C   -0.016904
    82  C   -0.088136
    83  C   -0.045480
    84  C   -0.065020
    85  N   -0.254519
    86  C   -0.049891
    87  C   -0.015137
    88  C   -0.090161
    89  C    0.044898
    90  C    0.114004
    91  C    0.062694
    92  C   -0.077347
    93  H    0.033662
    94  N   -0.423722
    95  C    0.162414
    96  C   -0.174328
    97  C   -0.008175
    98  C    0.152787
    99  C    0.098645
   100  C    0.015698
   101  O   -0.252668
   102  C    0.051140
   103  N   -0.350011
   104  C    0.037774
   105  C   -0.019880
   106  C   -0.034678
   107  C    0.088769
   108  C    0.073678
   109  C    0.034860
   110  C   -0.007600
   111  N   -0.323971
   112  C    0.078162
   113  C   -0.163535
   114  C    0.002133
   115  C    0.095949
   116  C    0.131560
   117  C    0.042075
   118  O   -0.188578
   119  C    0.001023
   120  C    0.211175
   121  O   -0.251386
   122  O   -0.305493
   123  C    0.152225
   124  H   -0.014627
   125  H   -0.015991
   126  H   -0.040980
   127  H   -0.000805
   128  H   -0.004551
   129  H    0.021664
   130  H    0.016883
   131  H    0.017928
   132  H    0.013381
   133  H    0.037241
   134  H    0.021003
   135  H    0.019098
   136  H    0.012696
   137  H    0.030293
   138  H    0.038344
   139  H    0.039398
   140  H    0.047484
   141  H    0.033465
   142  H    0.014134
   143  H    0.012187
   144  H    0.024181
   145  H    0.012126
   146  H    0.005522
   147  H    0.005801
   148  H    0.003416
   149  H    0.010851
   150  H    0.017518
   151  H    0.030261
   152  H    0.045514
   153  H    0.008139
   154  H    0.046776
   155  H    0.035123
   156  H    0.043642
   157  H    0.049328
   158  H    0.053227
 Sum of Mulliken charges =  -0.00000

 Dipole moment (field-independent basis, Debye):
    X=              6.1156    Y=              2.3604    Z=              3.2071  Tot=              7.2978
 Quadrupole moment (field-independent basis, Debye-Ang):
   XX=           -554.8968   YY=           -478.3675   ZZ=           -506.2875
   XY=             16.7827   XZ=             30.8563   YZ=             47.6929

 Normal termination of Gaussian 16 at Sat Sep 11 01:55:05 2021.
