 Gaussian 16, Revision A.03,
 Gaussian 16:  ES64L-G16RevA.03 25-Dec-2016

 -----------------------------------
 #p cam-b3lyp/Def2SVP td=(nstates=5)
 -----------------------------------

 --------------------------------
 TDDFT excited states in gaussian
 --------------------------------
 Symbolic Z-matrix:
 Charge =  0 Multiplicity = 1

                         Standard orientation:
 ---------------------------------------------------------------------
 Center     Atomic      Atomic             Coordinates (Angstroms)
 Number     Number       Type             X           Y           Z
 ---------------------------------------------------------------------
      1         12           0        4.415468   -0.526753   -0.535118
      2          6           0        4.539557    2.946313    0.321988
      3          6           0        5.660041   -1.185421    2.572978
      4          6           0        4.742819   -3.552518   -1.426300
      5          6           0        4.274362    0.454375   -3.876246
      6          7           0        4.985444    0.797130    1.145093
      7          6           0        4.928255    2.106411    1.367991
      8          6           0        5.247921    2.496710    2.842052
      9          6           0        6.112937    1.223513    3.257641
     10          6           0        5.528158    0.207112    2.292817
     11          6           0        7.602200    1.377219    2.966138
     12          6           0        3.955774    2.621982    3.717491
     13          6           0        4.148077    3.311590    5.071306
     14          1           0        3.078517    4.152723    5.586947
     15          7           0        4.631440   -2.165041    0.547572
     16          6           0        5.140714   -2.246602    1.800279
     17          6           0        5.089719   -3.677833    2.168595
     18          6           0        4.686014   -4.445189    0.957694
     19          6           0        4.696183   -3.407704   -0.041756
     20          6           0        5.357133   -4.180996    3.553899
     21          6           0        4.355337   -5.887026    0.734336
     22          8           0        4.255849   -6.388406   -0.437541
     23          6           0        4.236507   -6.728039    1.939167
     24          7           0        4.719100   -1.436031   -2.389479
     25          6           0        4.766905   -2.767661   -2.505496
     26          6           0        4.706870   -3.193038   -3.942643
     27          6           0        4.361649   -1.877355   -4.779036
     28          6           0        4.364310   -0.852297   -3.618208
     29          6           0        5.982994   -3.834762   -4.504522
     30          6           0        3.121806   -1.938586   -5.706106
     31          6           0        1.863877   -2.050065   -4.874071
     32          7           0        4.228583    1.349468   -1.610252
     33          6           0        4.213341    1.526172   -3.001373
     34          6           0        4.179755    2.978804   -3.251973
     35          6           0        4.194627    3.550307   -1.981143
     36          6           0        4.261447    2.520628   -0.999518
     37          6           0        4.199479    3.604749   -4.529563
     38          6           0        4.194476    4.791991   -1.224785
     39          8           0        4.055634    5.981965   -1.511452
     40          6           0        4.540690    4.454514    0.292473
     41          6           0        3.543070    5.175483    1.157499
     42          8           0        2.336621    4.856613    1.144499
     43          8           0        4.195430    5.957794    2.030974
     44          6           0        3.264445    6.679277    2.939204
     45          1           0        6.264481   -1.497054    3.427073
     46          1           0        4.744329   -4.586857   -1.776412
     47          1           0        4.143843    0.832884   -4.891701
     48          1           0        5.842836    3.403416    2.953339
     49          1           0        5.923347    0.921229    4.287399
     50          1           0        7.805797    2.286857    2.401312
     51          1           0        7.877016    0.497758    2.383457
     52          1           0        8.184767    1.321201    3.886059
     53          1           0        3.653124    1.630898    4.055450
     54          1           0        3.162878    3.127252    3.164911
     55          1           0        5.103084    3.835550    5.119627
     56          1           0        4.222367    2.541626    5.839314
     57          1           0        5.789700   -3.405698    4.185045
     58          1           0        6.140642   -4.934212    3.473357
     59          1           0        4.469694   -4.620903    4.009164
     60          1           0        5.176359   -6.701099    2.490983
     61          1           0        3.908520   -7.706982    1.591394
     62          1           0        3.481903   -6.296912    2.597689
     63          1           0        3.922157   -3.932034   -4.099279
     64          1           0        5.176631   -1.589595   -5.443621
     65          1           0        5.827079   -4.832693   -4.915044
     66          1           0        6.729728   -3.850546   -3.711157
     67          1           0        6.491374   -3.247758   -5.268978
     68          1           0        3.166119   -2.823111   -6.340613
     69          1           0        3.027019   -1.068615   -6.356041
     70          1           0        1.800383   -3.118457   -4.670754
     71          1           0        0.999155   -1.709102   -5.444344
     72          1           0        1.974064   -1.541999   -3.915836
     73          1           0        3.461159    4.405470   -4.488357
     74          1           0        3.968808    2.893662   -5.322500
     75          1           0        5.231599    3.952751   -4.568011
     76          1           0        5.558997    4.800931    0.466159
     77          1           0        3.484159    7.742819    2.845201
     78          1           0        3.377109    6.224406    3.923483
     79          1           0        2.209936    6.661670    2.661645
     80         12           0       -4.526074   -0.962159    0.422825
     81          6           0       -4.626637    2.358237   -0.935082
     82          6           0       -3.401527    0.421841    3.330486
     83          6           0       -3.997709   -3.899327    1.500468
     84          6           0       -4.547075   -2.152719   -2.852511
     85          7           0       -4.108754    1.131722    1.000516
     86          6           0       -4.242684    2.315410    0.421455
     87          6           0       -4.026372    3.524144    1.371056
     88          6           0       -3.108487    2.802514    2.473604
     89          6           0       -3.588650    1.364547    2.288187
     90          6           0       -1.624671    2.856083    2.149923
     91          6           0       -5.370012    4.043583    1.992999
     92          6           0       -5.274970    5.406404    2.682538
     93          1           0       -6.417753    6.311409    2.596063
     94          7           0       -4.279746   -1.624819    2.277226
     95          6           0       -3.835895   -0.921872    3.340304
     96          6           0       -3.814984   -1.867127    4.467335
     97          6           0       -4.125583   -3.225884    3.945776
     98          6           0       -4.125924   -2.967192    2.519890
     99          6           0       -3.598666   -1.434391    5.888384
    100          6           0       -4.367919   -4.543106    4.618400
    101          8           0       -4.384807   -5.642489    3.959686
    102          6           0       -4.491877   -4.518264    6.083160
    103          7           0       -4.090921   -2.757193   -0.531570
    104          6           0       -3.960522   -3.898140    0.167821
    105          6           0       -3.924053   -5.098238   -0.748045
    106          6           0       -4.301689   -4.542709   -2.199381
    107          6           0       -4.408560   -3.036693   -1.873958
    108          6           0       -2.589846   -5.840696   -0.818900
    109          6           0       -5.490341   -5.227688   -2.927794
    110          6           0       -6.781697   -4.931203   -2.199870
    111          7           0       -4.762413   -0.099870   -1.544062
    112          6           0       -4.712411   -0.775316   -2.783159
    113          6           0       -4.811020    0.249947   -3.842183
    114          6           0       -4.889011    1.462363   -3.140420
    115          6           0       -4.821975    1.212103   -1.743150
    116          6           0       -4.771834    0.004651   -5.243764
    117          6           0       -5.002115    2.897826   -3.264214
    118          8           0       -5.182265    3.677648   -4.198648
    119          6           0       -4.709963    3.551990   -1.845364
    120          6           0       -5.785075    4.567834   -1.572016
    121          8           0       -6.966615    4.211748   -1.417854
    122          8           0       -5.212213    5.759517   -1.322862
    123          6           0       -6.237727    6.797447   -1.035043
    124          1           0       -2.831120    0.725728    4.208656
    125          1           0       -3.924347   -4.941215    1.820728
    126          1           0       -4.659276   -2.450992   -3.897076
    127          1           0       -3.492628    4.357853    0.930808
    128          1           0       -3.341610    3.156286    3.474530
    129          1           0       -1.440910    3.268932    1.169143
    130          1           0       -1.275251    1.833197    2.201386
    131          1           0       -1.087258    3.397927    2.933447
    132          1           0       -5.632533    3.415341    2.853897
    133          1           0       -6.148100    4.065523    1.254939
    134          1           0       -4.347338    5.933337    2.428005
    135          1           0       -5.204515    5.245463    3.761029
    136          1           0       -3.232809   -0.401648    5.943126
    137          1           0       -2.773283   -2.036266    6.283808
    138          1           0       -4.480082   -1.588615    6.514478
    139          1           0       -3.585548   -4.100741    6.515251
    140          1           0       -4.751000   -5.538751    6.371847
    141          1           0       -5.310138   -3.841560    6.353584
    142          1           0       -4.661049   -5.834141   -0.450744
    143          1           0       -3.467309   -4.652735   -2.907579
    144          1           0       -2.672304   -6.912439   -0.556909
    145          1           0       -1.886749   -5.342351   -0.164796
    146          1           0       -2.084443   -5.791348   -1.781883
    147          1           0       -5.368245   -6.313526   -2.913504
    148          1           0       -5.591059   -4.928573   -3.965756
    149          1           0       -6.792203   -5.679135   -1.401383
    150          1           0       -7.633533   -5.052896   -2.865907
    151          1           0       -6.748410   -3.943370   -1.725809
    152          1           0       -5.545284    0.616481   -5.688663
    153          1           0       -4.920254   -1.049786   -5.467138
    154          1           0       -3.754063    0.333057   -5.470854
    155          1           0       -3.719588    4.006471   -1.891842
    156          1           0       -6.067309    7.618596   -1.738150
    157          1           0       -6.135893    7.027393    0.042232
    158          1           0       -7.272254    6.551380   -1.243981
 ---------------------------------------------------------------------

 SCF Done:  E(RCAM-B3LYP) =  -4069.81227434     A.U. after   19 cycles

 Excitation energies and oscillator strengths:

 Excited State   1:      Singlet-A      1.6518 eV  750.58 nm  f=0.0607  <S**2>=0.000
     309 -> 315       -0.11078
     310 -> 316        0.12562
     311 -> 313       -0.45145
     312 -> 314        0.51840
 This state for optimization and/or second-order correction.
 Total Energy, E(TD-HF/TD-DFT) =  -4069.75157047
 Copying the excited state density for this state as the 1-particle RhoCI density.

 Excited State   2:      Singlet-A      1.6970 eV  730.59 nm  f=0.6319  <S**2>=0.000
     309 -> 315        0.13623
     310 -> 316        0.11644
     311 -> 313        0.51610
     312 -> 314        0.44947

 Excited State   3:      Singlet-A      2.1797 eV  568.80 nm  f=0.0411  <S**2>=0.000
     309 -> 313       -0.25768
     310 -> 314        0.59134
     311 -> 315        0.10612
     312 -> 316       -0.24425

 Excited State   4:      Singlet-A      2.1965 eV  564.45 nm  f=0.1399  <S**2>=0.000
     309 -> 313        0.58631
     310 -> 314        0.25362
     311 -> 315       -0.25856
     312 -> 316       -0.11279

 Excited State   5:      Singlet-A      2.3346 eV  531.07 nm  f=0.0000  <S**2>=0.000
     312 -> 313        0.70709

 The electronic state is 1-A.
 Alpha  occ. eigenvalues --  -46.87922 -46.87402 -19.26590 -19.26002 -19.19350
 Alpha  occ. eigenvalues --  -19.18889 -19.18843 -19.18566 -19.18308 -19.17777
 Alpha  occ. eigenvalues --  -14.42589 -14.42201 -14.41572 -14.41105 -14.39522
 Alpha  occ. eigenvalues --  -14.39108 -14.38711 -14.38344 -10.39386 -10.38765
 Alpha  occ. eigenvalues --  -10.35519 -10.35250 -10.34536 -10.33944 -10.32017
 Alpha  occ. eigenvalues --  -10.31553 -10.31429 -10.31065 -10.30985 -10.30720
 Alpha  occ. eigenvalues --  -10.30698 -10.30622 -10.30313 -10.30162 -10.30104
 Alpha  occ. eigenvalues --  -10.30037 -10.29916 -10.29741 -10.29649 -10.29362
 Alpha  occ. eigenvalues --  -10.29208 -10.29178 -10.28972 -10.28895 -10.28497
 Alpha  occ. eigenvalues --  -10.28329 -10.28306 -10.28272 -10.28141 -10.27903
 Alpha  occ. eigenvalues --  -10.27859 -10.27764 -10.27692 -10.27629 -10.27594
 Alpha  occ. eigenvalues --  -10.27578 -10.27550 -10.27549 -10.27387 -10.27349
 Alpha  occ. eigenvalues --  -10.27340 -10.27310 -10.27255 -10.27199 -10.27152
 Alpha  occ. eigenvalues --  -10.27025 -10.26703 -10.26434 -10.26396 -10.26344
 Alpha  occ. eigenvalues --  -10.26337 -10.26269 -10.26129 -10.25965 -10.25890
 Alpha  occ. eigenvalues --  -10.25699 -10.25676 -10.25522 -10.25182 -10.25146
 Alpha  occ. eigenvalues --  -10.24949 -10.24909 -10.24785 -10.24627 -10.24568
 Alpha  occ. eigenvalues --  -10.24445  -3.16665  -3.16152  -1.91547  -1.91134
 Alpha  occ. eigenvalues --   -1.91034  -1.90975  -1.90622  -1.90460  -1.16939
 Alpha  occ. eigenvalues --   -1.16304  -1.08776  -1.08376  -1.07288  -1.06954
 Alpha  occ. eigenvalues --   -1.06824  -1.06626  -1.04724  -1.04198  -1.03885
 Alpha  occ. eigenvalues --   -1.03400  -1.03353  -1.02794  -1.02534  -1.01856
 Alpha  occ. eigenvalues --   -0.92122  -0.91697  -0.89633  -0.89390  -0.89264
 Alpha  occ. eigenvalues --   -0.88710  -0.88399  -0.87989  -0.87971  -0.87821
 Alpha  occ. eigenvalues --   -0.87566  -0.87401  -0.87368  -0.86945  -0.85173
 Alpha  occ. eigenvalues --   -0.84644  -0.84053  -0.83651  -0.83051  -0.82816
 Alpha  occ. eigenvalues --   -0.82778  -0.82324  -0.81788  -0.81303  -0.80753
 Alpha  occ. eigenvalues --   -0.80170  -0.78900  -0.78427  -0.77363  -0.77127
 Alpha  occ. eigenvalues --   -0.76870  -0.76557  -0.76101  -0.75451  -0.75022
 Alpha  occ. eigenvalues --   -0.74536  -0.72892  -0.72443  -0.71813  -0.71251
 Alpha  occ. eigenvalues --   -0.70012  -0.69539  -0.69046  -0.68493  -0.67779
 Alpha  occ. eigenvalues --   -0.67413  -0.67357  -0.66919  -0.65479  -0.65014
 Alpha  occ. eigenvalues --   -0.64922  -0.64786  -0.64496  -0.64389  -0.64347
 Alpha  occ. eigenvalues --   -0.63962  -0.62513  -0.61984  -0.60542  -0.60139
 Alpha  occ. eigenvalues --   -0.59975  -0.59428  -0.59126  -0.58723  -0.58646
 Alpha  occ. eigenvalues --   -0.58157  -0.57781  -0.57436  -0.57254  -0.56998
 Alpha  occ. eigenvalues --   -0.56444  -0.56215  -0.55962  -0.55641  -0.55582
 Alpha  occ. eigenvalues --   -0.55491  -0.55208  -0.54994  -0.54706  -0.54220
 Alpha  occ. eigenvalues --   -0.54101  -0.53502  -0.53420  -0.53379  -0.53108
 Alpha  occ. eigenvalues --   -0.53000  -0.52874  -0.52862  -0.52630  -0.52545
 Alpha  occ. eigenvalues --   -0.52398  -0.52200  -0.52006  -0.51797  -0.51675
 Alpha  occ. eigenvalues --   -0.51345  -0.51339  -0.50927  -0.50650  -0.50319
 Alpha  occ. eigenvalues --   -0.50146  -0.50035  -0.49710  -0.49665  -0.49628
 Alpha  occ. eigenvalues --   -0.49361  -0.49266  -0.49191  -0.48924  -0.48768
 Alpha  occ. eigenvalues --   -0.48672  -0.48593  -0.48549  -0.48235  -0.48153
 Alpha  occ. eigenvalues --   -0.48105  -0.47841  -0.47425  -0.47306  -0.46937
 Alpha  occ. eigenvalues --   -0.46888  -0.46752  -0.46491  -0.46433  -0.46298
 Alpha  occ. eigenvalues --   -0.46185  -0.46034  -0.45987  -0.45832  -0.45523
 Alpha  occ. eigenvalues --   -0.45316  -0.44953  -0.44733  -0.44646  -0.44278
 Alpha  occ. eigenvalues --   -0.44252  -0.44250  -0.44178  -0.44154  -0.43863
 Alpha  occ. eigenvalues --   -0.43732  -0.43685  -0.43680  -0.43544  -0.43254
 Alpha  occ. eigenvalues --   -0.43168  -0.43063  -0.42945  -0.42777  -0.42633
 Alpha  occ. eigenvalues --   -0.42601  -0.42336  -0.42158  -0.41852  -0.41721
 Alpha  occ. eigenvalues --   -0.41704  -0.41375  -0.41286  -0.41136  -0.41047
 Alpha  occ. eigenvalues --   -0.40943  -0.40694  -0.40653  -0.40518  -0.40476
 Alpha  occ. eigenvalues --   -0.40384  -0.40184  -0.39885  -0.39548  -0.39220
 Alpha  occ. eigenvalues --   -0.38602  -0.38091  -0.37994  -0.37446  -0.37441
 Alpha  occ. eigenvalues --   -0.37342  -0.37007  -0.36966  -0.36874  -0.36468
 Alpha  occ. eigenvalues --   -0.36370  -0.35934  -0.34418  -0.34061  -0.33983
 Alpha  occ. eigenvalues --   -0.33556  -0.33322  -0.32919  -0.31424  -0.31170
 Alpha  occ. eigenvalues --   -0.31121  -0.30697  -0.30173  -0.29673  -0.29556
 Alpha  occ. eigenvalues --   -0.29435  -0.29117  -0.28970  -0.24213  -0.23770
 Alpha  occ. eigenvalues --   -0.21250  -0.20857
 Alpha virt. eigenvalues --   -0.08892  -0.08550  -0.01871  -0.01435  -0.00170
 Alpha virt. eigenvalues --    0.00200   0.02076   0.02449   0.02837   0.03521
 Alpha virt. eigenvalues --    0.04528   0.04789   0.05055   0.05488   0.05867

 Mulliken charges:
               1
     1  Mg   0.838730
     2  C   -0.003972
     3  C   -0.094694
     4  C   -0.045609
     5  C   -0.063298
     6  N   -0.256724
     7  C   -0.053008
     8  C   -0.013867
     9  C   -0.086921
    10  C    0.045991
    11  C    0.104737
    12  C    0.053427
    13  C   -0.070954
    14  H    0.032782
    15  N   -0.433236
    16  C    0.168536
    17  C   -0.176944
    18  C   -0.003384
    19  C    0.148779
    20  C    0.110083
    21  C    0.012788
    22  O   -0.249603
    23  C    0.062162
    24  N   -0.341042
    25  C    0.041342
    26  C   -0.028224
    27  C   -0.023977
    28  C    0.074611
    29  C    0.076087
    30  C    0.035034
    31  C   -0.004313
    32  N   -0.310494
    33  C    0.080269
    34  C   -0.168899
    35  C    0.008361
    36  C    0.082704
    37  C    0.127190
    38  C    0.045813
    39  O   -0.188162
    40  C   -0.005484
    41  C    0.213706
    42  O   -0.259755
    43  O   -0.303971
    44  C    0.157954
    45  H   -0.017582
    46  H   -0.016615
    47  H   -0.040746
    48  H    0.001076
    49  H   -0.004540
    50  H    0.025663
    51  H    0.016984
    52  H    0.016777
    53  H    0.010521
    54  H    0.042285
    55  H    0.019150
    56  H    0.018077
    57  H    0.005383
    58  H    0.027184
    59  H    0.040038
    60  H    0.037115
    61  H    0.036366
    62  H    0.032714
    63  H    0.016335
    64  H    0.009832
    65  H    0.023338
    66  H    0.012646
    67  H    0.005072
    68  H    0.006294
    69  H    0.005516
    70  H    0.007692
    71  H    0.018042
    72  H    0.029657
    73  H    0.048611
    74  H    0.009867
    75  H    0.046078
    76  H    0.035565
    77  H    0.044013
    78  H    0.046055
    79  H    0.051588
    80  Mg   0.837274
    81  C   -0.016584
    82  C   -0.087931
    83  C   -0.046499
    84  C   -0.065596
    85  N   -0.255093
    86  C   -0.047780
    87  C   -0.015412
    88  C   -0.091425
    89  C    0.046783
    90  C    0.116193
    91  C    0.062443
    92  C   -0.077329
    93  H    0.033134
    94  N   -0.423381
    95  C    0.162986
    96  C   -0.175632
    97  C   -0.008790
    98  C    0.152195
    99  C    0.100005
   100  C    0.014634
   101  O   -0.253928
   102  C    0.061511
   103  N   -0.350260
   104  C    0.037677
   105  C   -0.019823
   106  C   -0.034555
   107  C    0.089181
   108  C    0.073672
   109  C    0.034852
   110  C   -0.007532
   111  N   -0.324210
   112  C    0.078945
   113  C   -0.163718
   114  C    0.002779
   115  C    0.096084
   116  C    0.131427
   117  C    0.042423
   118  O   -0.187847
   119  C    0.000833
   120  C    0.210826
   121  O   -0.252063
   122  O   -0.304164
   123  C    0.152506
   124  H   -0.020363
   125  H   -0.016489
   126  H   -0.041440
   127  H    0.003324
   128  H   -0.006835
   129  H    0.033465
   130  H    0.010898
   131  H    0.017946
   132  H    0.012690
   133  H    0.036867
   134  H    0.022536
   135  H    0.018354
   136  H    0.008444
   137  H    0.023902
   138  H    0.039086
   139  H    0.036942
   140  H    0.035551
   141  H    0.033969
   142  H    0.013708
   143  H    0.012108
   144  H    0.024703
   145  H    0.011809
   146  H    0.006769
   147  H    0.005963
   148  H    0.003062
   149  H    0.010690
   150  H    0.017366
   151  H    0.030356
   152  H    0.045760
   153  H    0.007801
   154  H    0.046188
   155  H    0.039476
   156  H    0.043971
   157  H    0.049456
   158  H    0.052558
 Sum of Mulliken charges =  -0.00000

 Dipole moment (field-independent basis, Debye):
    X=              5.1789    Y=             -1.7831    Z=              6.5538  Tot=              8.5412
 Quadrupole moment (field-independent basis, Debye-Ang):
   XX=           -518.4005   YY=           -540.7365   ZZ=           -459.6265
   XY=             -1.9963   XZ=              1.3196   YZ=             39.6718

 Normal termination of Gaussian 16 at Fri Sep  3 23:48:32 2021.
