 Gaussian 16, Revision A.03,
 Gaussian 16:  ES64L-G16RevA.03 25-Dec-2016

 -----------------------------------
 #p cam-b3lyp/Def2SVP td=(nstates=5)
 -----------------------------------

 --------------------------------
 TDDFT excited states in gaussian
 --------------------------------
 Symbolic Z-matrix:
 Charge =  0 Multiplicity = 1

                         Standard orientation:
 ---------------------------------------------------------------------
 Center     Atomic      Atomic             Coordinates (Angstroms)
 Number     Number       Type             X           Y           Z
 ---------------------------------------------------------------------
      1         12           0       -3.632540   -1.482631   -0.051622
      2          6           0       -4.509439    1.978770    0.197310
      3          6           0       -4.446042   -1.297425   -3.360244
      4          6           0       -3.301351   -4.633121   -0.197732
      5          6           0       -3.981895   -1.668098    3.410922
      6          7           0       -4.370235    0.185530   -1.306092
      7          6           0       -4.607718    1.477569   -1.102607
      8          6           0       -4.897707    2.266524   -2.414411
      9          6           0       -5.402730    1.060643   -3.326991
     10          6           0       -4.669098   -0.082077   -2.647358
     11          6           0       -6.903786    0.808669   -3.227793
     12          6           0       -3.609226    2.931589   -3.005374
     13          6           0       -3.855809    3.981379   -4.092798
     14          1           0       -2.979665    5.141328   -4.157902
     15          7           0       -3.371804   -2.672707   -1.606803
     16          6           0       -3.750614   -2.430158   -2.884675
     17          6           0       -3.334563   -3.615316   -3.665048
     18          6           0       -2.853954   -4.646906   -2.704354
     19          6           0       -3.185244   -4.027421   -1.446633
     20          6           0       -3.369264   -3.668725   -5.161609
     21          6           0       -2.209443   -5.984099   -2.890502
     22          8           0       -2.083478   -6.818099   -1.929694
     23          6           0       -1.803786   -6.332304   -4.264269
     24          7           0       -3.852385   -3.000777    1.364193
     25          6           0       -3.592402   -4.275796    1.054807
     26          6           0       -3.542793   -5.136337    2.282385
     27          6           0       -3.583284   -4.135387    3.525852
     28          6           0       -3.740217   -2.803412    2.751588
     29          6           0       -4.669720   -6.169119    2.421701
     30          6           0       -2.438295   -4.255330    4.562689
     31          6           0       -1.130234   -3.829681    3.934281
     32          7           0       -3.977179   -0.076624    1.565602
     33          6           0       -4.109931   -0.376035    2.929202
     34          6           0       -4.440175    0.885020    3.618220
     35          6           0       -4.493252    1.833534    2.598735
     36          6           0       -4.239738    1.199973    1.348686
     37          6           0       -4.704472    1.030473    5.008696
     38          6           0       -4.729455    3.230364    2.271731
     39          8           0       -4.898333    4.258320    2.929210
     40          6           0       -4.869663    3.358050    0.690634
     41          6           0       -4.008220    4.509840    0.249496
     42          8           0       -2.765158    4.451604    0.343151
     43          8           0       -4.758860    5.392928   -0.426698
     44          6           0       -3.958798    6.546393   -0.918200
     45          1           0       -4.892879   -1.419047   -4.348923
     46          1           0       -3.084662   -5.703354   -0.188505
     47          1           0       -4.022194   -1.633053    4.501152
     48          1           0       -5.680053    3.020734   -2.327658
     49          1           0       -5.069314    1.164242   -4.359378
     50          1           0       -7.359159    1.417270   -2.446666
     51          1           0       -7.006147   -0.251002   -2.993031
     52          1           0       -7.384921    0.948884   -4.196104
     53          1           0       -3.055873    2.191781   -3.583773
     54          1           0       -3.002756    3.369893   -2.212021
     55          1           0       -4.901166    4.290350   -4.118798
     56          1           0       -3.687218    3.514148   -5.063092
     57          1           0       -3.923761   -2.829441   -5.579558
     58          1           0       -3.956077   -4.545305   -5.435408
     59          1           0       -2.370982   -3.745288   -5.592774
     60          1           0       -2.678597   -6.309801   -4.914462
     61          1           0       -1.280869   -7.285214   -4.190995
     62          1           0       -1.124840   -5.564893   -4.637179
     63          1           0       -2.619734   -5.713483    2.318327
     64          1           0       -4.491285   -4.254580    4.117462
     65          1           0       -4.313751   -7.194717    2.522393
     66          1           0       -5.329008   -6.066801    1.560213
     67          1           0       -5.359138   -5.985087    3.245262
     68          1           0       -2.320125   -5.291170    4.878946
     69          1           0       -2.601726   -3.652409    5.456013
     70          1           0       -0.800471   -4.733281    3.422818
     71          1           0       -0.416655   -3.534376    4.704224
     72          1           0       -1.284377   -3.063095    3.174629
     73          1           0       -4.175660    1.928677    5.327377
     74          1           0       -4.373025    0.156094    5.568346
     75          1           0       -5.789478    1.132999    4.998363
     76          1           0       -5.924796    3.532805    0.482603
     77          1           0       -4.430426    7.451024   -0.534216
     78          1           0       -3.885504    6.434126   -2.000063
     79          1           0       -2.954298    6.647002   -0.505650
     80         12           0        4.166490    0.013015    0.209875
     81          6           0        2.840241    3.343484    0.377659
     82          6           0        3.814839    0.203985   -3.177527
     83          6           0        4.904039   -3.069308    0.059166
     84          6           0        3.349341   -0.333064    3.580069
     85          7           0        3.413896    1.619311   -1.111375
     86          6           0        2.994570    2.863929   -0.939778
     87          6           0        2.802060    3.664918   -2.255425
     88          6           0        2.580279    2.430428   -3.258276
     89          6           0        3.345049    1.352865   -2.492341
     90          6           0        1.127600    1.998078   -3.368490
     91          6           0        4.075704    4.496390   -2.640797
     92          6           0        3.855166    5.538603   -3.739391
     93          1           0        4.588761    6.798805   -3.660656
     94          7           0        4.795011   -1.083788   -1.320007
     95          6           0        4.582100   -0.848522   -2.631721
     96          6           0        5.230959   -1.956508   -3.349695
     97          6           0        5.702404   -2.951815   -2.348784
     98          6           0        5.120986   -2.404992   -1.139234
     99          6           0        5.424357   -1.958988   -4.838326
    100          6           0        6.527820   -4.197499   -2.463432
    101          8           0        6.615878   -5.037965   -1.499744
    102          6           0        7.154382   -4.450926   -3.769064
    103          7           0        3.941217   -1.557955    1.552869
    104          6           0        4.394679   -2.789170    1.258917
    105          6           0        4.371592   -3.683792    2.475263
    106          6           0        4.034022   -2.723354    3.708628
    107          6           0        3.823223   -1.396884    2.946124
    108          6           0        3.365675   -4.834008    2.436077
    109          6           0        5.025028   -2.738998    4.904602
    110          6           0        6.352443   -2.151355    4.482660
    111          7           0        3.432916    1.310888    1.773681
    112          6           0        3.135244    0.955442    3.107524
    113          6           0        2.557465    2.149541    3.757706
    114          6           0        2.537637    3.117768    2.742496
    115          6           0        3.047048    2.560043    1.538778
    116          6           0        2.090811    2.221776    5.100505
    117          6           0        2.191748    4.481667    2.412600
    118          8           0        1.799926    5.457336    3.051571
    119          6           0        2.254722    4.651162    0.833454
    120          6           0        3.025440    5.907075    0.531479
    121          8           0        4.233072    5.991449    0.816278
    122          8           0        2.269882    6.714044   -0.235531
    123          6           0        2.995392    7.968251   -0.570823
    124          1           0        3.535007    0.072920   -4.223186
    125          1           0        5.245156   -4.106636    0.091702
    126          1           0        3.159922   -0.330771    4.655619
    127          1           0        1.935540    4.315100   -2.268747
    128          1           0        3.046243    2.616197   -4.222498
    129          1           0        0.497875    2.517630   -2.661640
    130          1           0        1.121436    0.934286   -3.170074
    131          1           0        0.776653    2.114697   -4.397846
    132          1           0        4.793174    3.838204   -3.147527
    133          1           0        4.499252    4.967739   -1.775315
    134          1           0        2.790015    5.724800   -3.923093
    135          1           0        4.222647    5.130218   -4.683959
    136          1           0        4.828390   -1.175664   -5.322700
    137          1           0        4.998901   -2.895667   -5.214478
    138          1           0        6.476521   -1.907901   -5.126468
    139          1           0        6.384087   -4.506379   -4.534603
    140          1           0        7.774464   -5.338377   -3.628307
    141          1           0        7.790290   -3.595751   -4.023843
    142          1           0        5.340742   -4.138765    2.639145
    143          1           0        3.068547   -2.977235    4.170412
    144          1           0        3.833189   -5.827515    2.571916
    145          1           0        2.833086   -4.789789    1.495372
    146          1           0        2.557648   -4.765801    3.162463
    147          1           0        5.225775   -3.766851    5.216665
    148          1           0        4.660237   -2.203653    5.774850
    149          1           0        6.856642   -2.997488    4.006295
    150          1           0        6.907686   -1.797948    5.349168
    151          1           0        6.215112   -1.377009    3.718997
    152          1           0        2.449541    3.158993    5.504793
    153          1           0        2.438917    1.375081    5.688480
    154          1           0        1.010821    2.189379    4.933682
    155          1           0        1.228278    4.702960    0.468350
    156          1           0        2.362245    8.799985   -0.246748
    157          1           0        3.224888    7.901009   -1.650895
    158          1           0        3.911523    8.176972   -0.030830
 ---------------------------------------------------------------------

 SCF Done:  E(RCAM-B3LYP) =  -4069.81134210     A.U. after   19 cycles

 Excitation energies and oscillator strengths:

 Excited State   1:      Singlet-A      1.6374 eV  757.19 nm  f=0.0097  <S**2>=0.000
     309 -> 315       -0.11433
     310 -> 316        0.11772
     311 -> 313       -0.47707
     312 -> 314        0.49613
 This state for optimization and/or second-order correction.
 Total Energy, E(TD-HF/TD-DFT) =  -4069.75116759
 Copying the excited state density for this state as the 1-particle RhoCI density.

 Excited State   2:      Singlet-A      1.7132 eV  723.72 nm  f=0.6689  <S**2>=0.000
     309 -> 315        0.13308
     310 -> 316        0.12661
     311 -> 313        0.49268
     312 -> 314        0.47381

 Excited State   3:      Singlet-A      2.1774 eV  569.41 nm  f=0.0084  <S**2>=0.000
     309 -> 313       -0.35053
     310 -> 314        0.54294
     311 -> 315        0.14321
     312 -> 316       -0.22389

 Excited State   4:      Singlet-A      2.1984 eV  563.98 nm  f=0.1582  <S**2>=0.000
     309 -> 313        0.53650
     310 -> 314        0.34411
     311 -> 315       -0.23886
     312 -> 316       -0.15487

 Excited State   5:      Singlet-A      2.2293 eV  556.15 nm  f=0.0000  <S**2>=0.000
     312 -> 313        0.70706

 The electronic state is 1-A.
 Alpha  occ. eigenvalues --  -46.87885 -46.87345 -19.26305 -19.25953 -19.19070
 Alpha  occ. eigenvalues --  -19.18871 -19.18753 -19.18441 -19.18172 -19.17528
 Alpha  occ. eigenvalues --  -14.42554 -14.42195 -14.41544 -14.41042 -14.39488
 Alpha  occ. eigenvalues --  -14.39036 -14.38663 -14.38255 -10.39125 -10.38662
 Alpha  occ. eigenvalues --  -10.35506 -10.35126 -10.34398 -10.33693 -10.31669
 Alpha  occ. eigenvalues --  -10.31506 -10.31465 -10.31020 -10.30972 -10.30710
 Alpha  occ. eigenvalues --  -10.30656 -10.30582 -10.30311 -10.30053 -10.30005
 Alpha  occ. eigenvalues --  -10.30003 -10.29882 -10.29708 -10.29557 -10.29342
 Alpha  occ. eigenvalues --  -10.29149 -10.29062 -10.28915 -10.28812 -10.28490
 Alpha  occ. eigenvalues --  -10.28443 -10.28419 -10.28261 -10.28045 -10.27879
 Alpha  occ. eigenvalues --  -10.27859 -10.27831 -10.27664 -10.27643 -10.27627
 Alpha  occ. eigenvalues --  -10.27609 -10.27553 -10.27493 -10.27383 -10.27291
 Alpha  occ. eigenvalues --  -10.27274 -10.27203 -10.27141 -10.27131 -10.27109
 Alpha  occ. eigenvalues --  -10.26971 -10.26475 -10.26457 -10.26442 -10.26365
 Alpha  occ. eigenvalues --  -10.26352 -10.26219 -10.26118 -10.25955 -10.25877
 Alpha  occ. eigenvalues --  -10.25782 -10.25640 -10.25518 -10.25462 -10.25113
 Alpha  occ. eigenvalues --  -10.24936 -10.24894 -10.24871 -10.24544 -10.24489
 Alpha  occ. eigenvalues --  -10.24356  -3.16627  -3.16096  -1.91508  -1.91096
 Alpha  occ. eigenvalues --   -1.90979  -1.90937  -1.90567  -1.90403  -1.16657
 Alpha  occ. eigenvalues --   -1.16243  -1.08623  -1.08112  -1.07269  -1.06698
 Alpha  occ. eigenvalues --   -1.06675  -1.06535  -1.04683  -1.04176  -1.03855
 Alpha  occ. eigenvalues --   -1.03344  -1.03316  -1.02717  -1.02497  -1.01779
 Alpha  occ. eigenvalues --   -0.92046  -0.91584  -0.89635  -0.89342  -0.89200
 Alpha  occ. eigenvalues --   -0.88877  -0.88398  -0.87940  -0.87935  -0.87789
 Alpha  occ. eigenvalues --   -0.87432  -0.87384  -0.87361  -0.86846  -0.85125
 Alpha  occ. eigenvalues --   -0.84721  -0.84056  -0.83596  -0.83056  -0.82763
 Alpha  occ. eigenvalues --   -0.82684  -0.82369  -0.81648  -0.81248  -0.80677
 Alpha  occ. eigenvalues --   -0.80118  -0.78883  -0.78332  -0.77340  -0.77055
 Alpha  occ. eigenvalues --   -0.76868  -0.76602  -0.76014  -0.75519  -0.74995
 Alpha  occ. eigenvalues --   -0.74501  -0.72863  -0.72374  -0.71765  -0.71263
 Alpha  occ. eigenvalues --   -0.70053  -0.69516  -0.69000  -0.68544  -0.67723
 Alpha  occ. eigenvalues --   -0.67375  -0.67273  -0.66941  -0.65418  -0.64964
 Alpha  occ. eigenvalues --   -0.64941  -0.64721  -0.64457  -0.64378  -0.64338
 Alpha  occ. eigenvalues --   -0.63916  -0.62349  -0.61925  -0.60531  -0.60051
 Alpha  occ. eigenvalues --   -0.59929  -0.59497  -0.59077  -0.58664  -0.58586
 Alpha  occ. eigenvalues --   -0.58078  -0.57635  -0.57391  -0.57103  -0.56889
 Alpha  occ. eigenvalues --   -0.56390  -0.56044  -0.55886  -0.55603  -0.55549
 Alpha  occ. eigenvalues --   -0.55431  -0.55152  -0.54930  -0.54606  -0.54169
 Alpha  occ. eigenvalues --   -0.54045  -0.53639  -0.53387  -0.53331  -0.53006
 Alpha  occ. eigenvalues --   -0.52932  -0.52864  -0.52843  -0.52594  -0.52581
 Alpha  occ. eigenvalues --   -0.52424  -0.52159  -0.51967  -0.51748  -0.51499
 Alpha  occ. eigenvalues --   -0.51386  -0.51278  -0.50848  -0.50674  -0.50247
 Alpha  occ. eigenvalues --   -0.50163  -0.50020  -0.49716  -0.49625  -0.49594
 Alpha  occ. eigenvalues --   -0.49294  -0.49211  -0.49203  -0.48873  -0.48768
 Alpha  occ. eigenvalues --   -0.48670  -0.48544  -0.48501  -0.48229  -0.48089
 Alpha  occ. eigenvalues --   -0.48008  -0.47797  -0.47385  -0.47309  -0.46910
 Alpha  occ. eigenvalues --   -0.46840  -0.46695  -0.46450  -0.46421  -0.46288
 Alpha  occ. eigenvalues --   -0.46238  -0.45975  -0.45882  -0.45745  -0.45460
 Alpha  occ. eigenvalues --   -0.45303  -0.44904  -0.44641  -0.44632  -0.44259
 Alpha  occ. eigenvalues --   -0.44231  -0.44208  -0.44151  -0.44081  -0.43829
 Alpha  occ. eigenvalues --   -0.43794  -0.43590  -0.43561  -0.43499  -0.43234
 Alpha  occ. eigenvalues --   -0.43113  -0.43073  -0.42811  -0.42709  -0.42593
 Alpha  occ. eigenvalues --   -0.42521  -0.42287  -0.42139  -0.41782  -0.41689
 Alpha  occ. eigenvalues --   -0.41674  -0.41274  -0.41236  -0.41186  -0.41016
 Alpha  occ. eigenvalues --   -0.40923  -0.40690  -0.40676  -0.40467  -0.40453
 Alpha  occ. eigenvalues --   -0.40419  -0.40206  -0.39982  -0.39606  -0.39193
 Alpha  occ. eigenvalues --   -0.38596  -0.38085  -0.37930  -0.37434  -0.37406
 Alpha  occ. eigenvalues --   -0.37389  -0.36980  -0.36902  -0.36772  -0.36415
 Alpha  occ. eigenvalues --   -0.36278  -0.35906  -0.34373  -0.33926  -0.33816
 Alpha  occ. eigenvalues --   -0.33462  -0.33270  -0.32848  -0.31403  -0.31125
 Alpha  occ. eigenvalues --   -0.31000  -0.30638  -0.30032  -0.29523  -0.29425
 Alpha  occ. eigenvalues --   -0.29382  -0.29012  -0.28820  -0.24171  -0.23697
 Alpha  occ. eigenvalues --   -0.21219  -0.20798
 Alpha virt. eigenvalues --   -0.08855  -0.08454  -0.01841  -0.01377  -0.00134
 Alpha virt. eigenvalues --    0.00283   0.02146   0.02439   0.02735   0.03647
 Alpha virt. eigenvalues --    0.04578   0.04979   0.05077   0.05592   0.05928

 Mulliken charges:
               1
     1  Mg   0.838722
     2  C   -0.003405
     3  C   -0.095117
     4  C   -0.045372
     5  C   -0.064141
     6  N   -0.256512
     7  C   -0.053435
     8  C   -0.013322
     9  C   -0.086876
    10  C    0.045890
    11  C    0.104799
    12  C    0.050620
    13  C   -0.071108
    14  H    0.034354
    15  N   -0.433257
    16  C    0.168258
    17  C   -0.177779
    18  C   -0.003748
    19  C    0.149013
    20  C    0.110348
    21  C    0.013126
    22  O   -0.248894
    23  C    0.062457
    24  N   -0.340922
    25  C    0.041037
    26  C   -0.028625
    27  C   -0.023998
    28  C    0.074796
    29  C    0.076054
    30  C    0.035701
    31  C   -0.009960
    32  N   -0.310705
    33  C    0.080704
    34  C   -0.169955
    35  C    0.009340
    36  C    0.083335
    37  C    0.126893
    38  C    0.047553
    39  O   -0.185700
    40  C   -0.006247
    41  C    0.214956
    42  O   -0.257568
    43  O   -0.305025
    44  C    0.156058
    45  H   -0.017895
    46  H   -0.016551
    47  H   -0.041618
    48  H    0.001620
    49  H   -0.004946
    50  H    0.025870
    51  H    0.016814
    52  H    0.016600
    53  H    0.010579
    54  H    0.044145
    55  H    0.019293
    56  H    0.017026
    57  H    0.005253
    58  H    0.027148
    59  H    0.038154
    60  H    0.036999
    61  H    0.036510
    62  H    0.030701
    63  H    0.016761
    64  H    0.009937
    65  H    0.023490
    66  H    0.012796
    67  H    0.004884
    68  H    0.006406
    69  H    0.004523
    70  H    0.011647
    71  H    0.016781
    72  H    0.031647
    73  H    0.049137
    74  H    0.008520
    75  H    0.046373
    76  H    0.035307
    77  H    0.044067
    78  H    0.044649
    79  H    0.056918
    80  Mg   0.836091
    81  C   -0.014816
    82  C   -0.088246
    83  C   -0.045529
    84  C   -0.065989
    85  N   -0.254347
    86  C   -0.048693
    87  C   -0.014801
    88  C   -0.091614
    89  C    0.045258
    90  C    0.111404
    91  C    0.062771
    92  C   -0.076871
    93  H    0.033997
    94  N   -0.423322
    95  C    0.162320
    96  C   -0.176155
    97  C   -0.008348
    98  C    0.151462
    99  C    0.100061
   100  C    0.014998
   101  O   -0.253656
   102  C    0.061523
   103  N   -0.350402
   104  C    0.037378
   105  C   -0.020444
   106  C   -0.035069
   107  C    0.089805
   108  C    0.073126
   109  C    0.034609
   110  C   -0.007266
   111  N   -0.324942
   112  C    0.079439
   113  C   -0.162558
   114  C    0.005640
   115  C    0.094912
   116  C    0.130553
   117  C    0.048436
   118  O   -0.184641
   119  C   -0.002760
   120  C    0.209811
   121  O   -0.252749
   122  O   -0.304184
   123  C    0.152447
   124  H   -0.022189
   125  H   -0.016027
   126  H   -0.041616
   127  H    0.001570
   128  H   -0.006127
   129  H    0.030472
   130  H    0.013379
   131  H    0.011803
   132  H    0.013310
   133  H    0.037900
   134  H    0.019626
   135  H    0.018494
   136  H    0.007214
   137  H    0.023907
   138  H    0.038885
   139  H    0.037211
   140  H    0.035677
   141  H    0.033423
   142  H    0.013735
   143  H    0.011821
   144  H    0.024342
   145  H    0.013793
   146  H    0.004906
   147  H    0.005447
   148  H    0.002777
   149  H    0.010790
   150  H    0.017346
   151  H    0.030646
   152  H    0.045888
   153  H    0.006230
   154  H    0.050894
   155  H    0.050298
   156  H    0.042875
   157  H    0.047829
   158  H    0.052944
 Sum of Mulliken charges =  -0.00000

 Dipole moment (field-independent basis, Debye):
    X=             -3.0085    Y=             -2.4625    Z=             -7.5118  Tot=              8.4583
 Quadrupole moment (field-independent basis, Debye-Ang):
   XX=           -515.1521   YY=           -547.7316   ZZ=           -450.9758
   XY=              9.0811   XZ=              4.7566   YZ=            -48.4997

 Normal termination of Gaussian 16 at Thu Sep  9 07:03:15 2021.
