 Gaussian 16, Revision A.03,
 Gaussian 16:  ES64L-G16RevA.03 25-Dec-2016

 -----------------------------------
 #p cam-b3lyp/Def2SVP td=(nstates=5)
 -----------------------------------

 --------------------------------
 TDDFT excited states in gaussian
 --------------------------------
 Symbolic Z-matrix:
 Charge =  0 Multiplicity = 1

                         Standard orientation:
 ---------------------------------------------------------------------
 Center     Atomic      Atomic             Coordinates (Angstroms)
 Number     Number       Type             X           Y           Z
 ---------------------------------------------------------------------
      1         12           0        3.680680    0.719655    1.502102
      2          6           0        4.842383   -2.242217   -0.138012
      3          6           0        5.489811    2.508928   -0.771355
      4          6           0        3.039304    3.319738    3.200579
      5          6           0        2.921766   -1.279542    4.253996
      6          7           0        4.961380    0.098315   -0.193300
      7          6           0        5.276147   -1.065659   -0.752995
      8          6           0        6.047597   -0.915762   -2.098272
      9          6           0        6.662377    0.538301   -1.875240
     10          6           0        5.624935    1.096281   -0.916962
     11          6           0        8.018832    0.525872   -1.177832
     12          6           0        5.092303   -0.949811   -3.338428
     13          6           0        5.784601   -1.137464   -4.691522
     14          1           0        5.115242   -1.922462   -5.717721
     15          7           0        3.772466    2.629500    1.005196
     16          6           0        4.552481    3.179590    0.043809
     17          6           0        4.259553    4.628927    0.061100
     18          6           0        3.387549    4.902906    1.236956
     19          6           0        3.386303    3.616058    1.884566
     20          6           0        4.747007    5.579486   -0.988935
     21          6           0        2.677873    6.132545    1.708635
     22          8           0        2.164038    6.215572    2.876391
     23          6           0        2.676854    7.284187    0.788438
     24          7           0        3.271932    1.028892    3.525696
     25          6           0        2.970570    2.246267    3.990630
     26          6           0        2.443479    2.179956    5.393384
     27          6           0        2.217385    0.630856    5.707901
     28          6           0        2.762063    0.039384    4.384362
     29          6           0        3.341787    2.794621    6.475622
     30          6           0        0.802943    0.207870    6.177855
     31          6           0       -0.187702    0.386903    5.049286
     32          7           0        3.674596   -1.406227    1.939863
     33          6           0        3.344311   -2.015012    3.159275
     34          6           0        3.593388   -3.459786    3.002250
     35          6           0        4.070084   -3.589829    1.699294
     36          6           0        4.140711   -2.304365    1.090289
     37          6           0        3.431771   -4.448001    4.013064
     38          6           0        4.559499   -4.512806    0.688134
     39          8           0        4.638318   -5.738881    0.598578
     40          6           0        5.194072   -3.663717   -0.500223
     41          6           0        4.653464   -4.214607   -1.791568
     42          8           0        3.444327   -4.101528   -2.078914
     43          8           0        5.675100   -4.572180   -2.584628
     44          6           0        5.208147   -5.099836   -3.894471
     45          1           0        6.201745    3.162401   -1.279357
     46          1           0        2.704950    4.177548    3.787784
     47          1           0        2.628105   -1.975538    5.041909
     48          1           0        6.848836   -1.640091   -2.245874
     49          1           0        6.677983    1.119323   -2.797136
     50          1           0        8.280243   -0.474387   -0.832770
     51          1           0        7.917417    1.206013   -0.331891
     52          1           0        8.787929    0.957561   -1.818855
     53          1           0        4.660385    0.039899   -3.486689
     54          1           0        4.327428   -1.717356   -3.215273
     55          1           0        6.816019   -1.469203   -4.568909
     56          1           0        5.868941   -0.161803   -5.170241
     57          1           0        5.498743    5.118610   -1.628491
     58          1           0        5.281275    6.377086   -0.473085
     59          1           0        3.928431    6.002326   -1.571578
     60          1           0        3.705592    7.575212    0.575009
     61          1           0        2.047628    8.041323    1.254989
     62          1           0        2.241892    6.975781   -0.162689
     63          1           0        1.492624    2.704325    5.479041
     64          1           0        2.878089    0.273236    6.497997
     65          1           0        2.853080    3.575517    7.058779
     66          1           0        4.241646    3.173197    5.991654
     67          1           0        3.760680    2.079022    7.182632
     68          1           0        0.471082    0.841665    6.999511
     69          1           0        0.753541   -0.827090    6.516481
     70          1           0       -0.448616    1.442280    5.119534
     71          1           0       -1.063433   -0.243190    5.208309
     72          1           0        0.282766    0.231494    4.078207
     73          1           0        2.940991   -5.295761    3.535145
     74          1           0        2.842764   -4.068190    4.847580
     75          1           0        4.471299   -4.630882    4.284714
     76          1           0        6.274873   -3.779938   -0.426176
     77          1           0        5.642367   -6.092527   -4.013845
     78          1           0        5.458923   -4.344901   -4.639849
     79          1           0        4.144804   -5.329894   -3.970067
     80         12           0       -3.577469    0.169675   -1.648541
     81          6           0       -5.206621   -1.759417    0.901663
     82          6           0       -5.542333    2.794667   -0.708685
     83          6           0       -2.488705    1.758800   -4.169797
     84          6           0       -2.599282   -2.840945   -3.106289
     85          7           0       -5.134974    0.368749   -0.090725
     86          6           0       -5.625795   -0.413346    0.858889
     87          6           0       -6.561332    0.307541    1.866185
     88          6           0       -7.023424    1.529884    0.932790
     89          6           0       -5.813058    1.599222    0.003871
     90          6           0       -8.251509    1.216158    0.094511
     91          6           0       -5.793886    0.813932    3.137648
     92          6           0       -6.690331    1.250303    4.298563
     93          1           0       -6.237229    0.992830    5.662702
     94          7           0       -3.585608    2.114797   -2.042261
     95          6           0       -4.440042    3.039728   -1.556756
     96          6           0       -4.038112    4.317403   -2.165181
     97          6           0       -2.980972    4.043500   -3.176193
     98          6           0       -2.992414    2.594402   -3.183582
     99          6           0       -4.587663    5.640532   -1.717136
    100          6           0       -2.113404    4.937843   -4.009067
    101          8           0       -1.430282    4.485582   -4.994773
    102          6           0       -2.159565    6.373430   -3.695311
    103          7           0       -2.856300   -0.445128   -3.499027
    104          6           0       -2.397296    0.447724   -4.393486
    105          6           0       -1.678905   -0.239097   -5.530398
    106          6           0       -1.539960   -1.769793   -5.088546
    107          6           0       -2.314936   -1.719162   -3.753539
    108          6           0       -2.365919   -0.163569   -6.893734
    109          6           0       -0.109782   -2.375817   -5.090450
    110          6           0        0.728009   -1.724892   -4.013507
    111          7           0       -3.677728   -1.921629   -1.115213
    112          6           0       -3.231096   -3.019898   -1.882295
    113          6           0       -3.619238   -4.245655   -1.154781
    114          6           0       -4.290344   -3.772107   -0.017301
    115          6           0       -4.336149   -2.352023   -0.044834
    116          6           0       -3.386727   -5.580595   -1.590692
    117          6           0       -4.979719   -4.150951    1.195104
    118          8           0       -5.176023   -5.211152    1.787704
    119          6           0       -5.714371   -2.868735    1.780425
    120          6           0       -5.411803   -2.791266    3.251811
    121          8           0       -4.250881   -2.587471    3.648474
    122          8           0       -6.568477   -2.753081    3.938103
    123          6           0       -6.320506   -2.664835    5.401848
    124          1           0       -6.263635    3.610030   -0.647126
    125          1           0       -2.002360    2.260400   -5.009637
    126          1           0       -2.245044   -3.816621   -3.445776
    127          1           0       -7.423966   -0.269144    2.177751
    128          1           0       -7.118500    2.449406    1.504462
    129          1           0       -8.541690    0.179294    0.177324
    130          1           0       -7.979415    1.452546   -0.925848
    131          1           0       -9.068479    1.895644    0.353710
    132          1           0       -5.308257    1.770481    2.905433
    133          1           0       -5.093900    0.076330    3.479103
    134          1           0       -7.726363    0.914840    4.167977
    135          1           0       -6.759014    2.340832    4.293041
    136          1           0       -5.467097    5.513770   -1.073756
    137          1           0       -4.974270    6.144863   -2.609351
    138          1           0       -3.830405    6.275568   -1.252425
    139          1           0       -3.180702    6.732866   -3.797953
    140          1           0       -1.406922    6.836943   -4.336059
    141          1           0       -1.881648    6.510968   -2.644382
    142          1           0       -0.688968    0.177546   -5.670239
    143          1           0       -2.104463   -2.438955   -5.754414
    144          1           0       -1.728692    0.284516   -7.679385
    145          1           0       -3.284025    0.397935   -6.782661
    146          1           0       -2.722824   -1.115004   -7.284357
    147          1           0        0.388757   -2.166978   -6.040188
    148          1           0       -0.096247   -3.451404   -4.949327
    149          1           0        1.077020   -0.805987   -4.494011
    150          1           0        1.561889   -2.366743   -3.736537
    151          1           0        0.110068   -1.434269   -3.155991
    152          1           0       -3.044053   -6.134890   -0.727072
    153          1           0       -2.659725   -5.613798   -2.399477
    154          1           0       -4.390027   -5.852790   -1.929155
    155          1           0       -6.781431   -2.985954    1.587522
    156          1           0       -6.851200   -3.501415    5.866802
    157          1           0       -6.631360   -1.644901    5.696555
    158          1           0       -5.308693   -2.836502    5.750017
 ---------------------------------------------------------------------

 SCF Done:  E(RCAM-B3LYP) =  -4069.81384304     A.U. after   19 cycles

 Excitation energies and oscillator strengths:

 Excited State   1:      Singlet-A      1.6361 eV  757.78 nm  f=0.0034  <S**2>=0.000
     309 -> 315        0.11273
     310 -> 316       -0.11863
     311 -> 313        0.47231
     312 -> 314        0.50061
 This state for optimization and/or second-order correction.
 Total Energy, E(TD-HF/TD-DFT) =  -4069.75371594
 Copying the excited state density for this state as the 1-particle RhoCI density.

 Excited State   2:      Singlet-A      1.7079 eV  725.93 nm  f=0.6833  <S**2>=0.000
     309 -> 315        0.13294
     310 -> 316        0.12449
     311 -> 313        0.49736
     312 -> 314       -0.46934

 Excited State   3:      Singlet-A      2.1788 eV  569.05 nm  f=0.0166  <S**2>=0.000
     309 -> 313       -0.32410
     310 -> 314        0.55822
     311 -> 315        0.13292
     312 -> 316        0.23100

 Excited State   4:      Singlet-A      2.1955 eV  564.72 nm  f=0.1567  <S**2>=0.000
     309 -> 313        0.55309
     310 -> 314        0.31931
     311 -> 315       -0.24338
     312 -> 316        0.14201

 Excited State   5:      Singlet-A      2.3810 eV  520.72 nm  f=0.0000  <S**2>=0.000
     312 -> 313        0.70703

 The electronic state is 1-A.
 Alpha  occ. eigenvalues --  -46.87591 -46.87408 -19.26412 -19.26274 -19.19228
 Alpha  occ. eigenvalues --  -19.19082 -19.18692 -19.18591 -19.18031 -19.17841
 Alpha  occ. eigenvalues --  -14.42254 -14.42252 -14.41234 -14.41085 -14.39203
 Alpha  occ. eigenvalues --  -14.39111 -14.38375 -14.38335 -10.39224 -10.38996
 Alpha  occ. eigenvalues --  -10.35331 -10.35277 -10.34260 -10.34020 -10.31821
 Alpha  occ. eigenvalues --  -10.31725 -10.31206 -10.31053 -10.30824 -10.30753
 Alpha  occ. eigenvalues --  -10.30353 -10.30299 -10.30135 -10.30085 -10.29976
 Alpha  occ. eigenvalues --  -10.29856 -10.29696 -10.29604 -10.29423 -10.29187
 Alpha  occ. eigenvalues --  -10.29145 -10.29042 -10.28635 -10.28560 -10.28551
 Alpha  occ. eigenvalues --  -10.28520 -10.28187 -10.28182 -10.27968 -10.27950
 Alpha  occ. eigenvalues --  -10.27754 -10.27589 -10.27519 -10.27419 -10.27389
 Alpha  occ. eigenvalues --  -10.27272 -10.27271 -10.27251 -10.27234 -10.27231
 Alpha  occ. eigenvalues --  -10.27206 -10.27204 -10.27123 -10.27095 -10.27066
 Alpha  occ. eigenvalues --  -10.26875 -10.26639 -10.26558 -10.26392 -10.26351
 Alpha  occ. eigenvalues --  -10.26095 -10.25851 -10.25768 -10.25758 -10.25607
 Alpha  occ. eigenvalues --  -10.25533 -10.25531 -10.25460 -10.25242 -10.25175
 Alpha  occ. eigenvalues --  -10.24635 -10.24624 -10.24590 -10.24442 -10.24095
 Alpha  occ. eigenvalues --  -10.23802  -3.16333  -3.16158  -1.91215  -1.91040
 Alpha  occ. eigenvalues --   -1.90802  -1.90644  -1.90628  -1.90465  -1.16762
 Alpha  occ. eigenvalues --   -1.16564  -1.08506  -1.08456  -1.07100  -1.06855
 Alpha  occ. eigenvalues --   -1.06854  -1.06800  -1.04392  -1.04260  -1.03551
 Alpha  occ. eigenvalues --   -1.03410  -1.03024  -1.02769  -1.02203  -1.01851
 Alpha  occ. eigenvalues --   -0.91817  -0.91758  -0.89256  -0.89155  -0.89045
 Alpha  occ. eigenvalues --   -0.88949  -0.88028  -0.87863  -0.87635  -0.87506
 Alpha  occ. eigenvalues --   -0.87479  -0.87429  -0.87095  -0.86927  -0.84842
 Alpha  occ. eigenvalues --   -0.84802  -0.83672  -0.83493  -0.82800  -0.82744
 Alpha  occ. eigenvalues --   -0.82516  -0.82434  -0.81506  -0.81403  -0.80454
 Alpha  occ. eigenvalues --   -0.80236  -0.78598  -0.78399  -0.77012  -0.76902
 Alpha  occ. eigenvalues --   -0.76796  -0.76637  -0.75789  -0.75630  -0.74683
 Alpha  occ. eigenvalues --   -0.74504  -0.72554  -0.72418  -0.71497  -0.71349
 Alpha  occ. eigenvalues --   -0.69567  -0.69279  -0.68723  -0.68614  -0.67475
 Alpha  occ. eigenvalues --   -0.67379  -0.67102  -0.67038  -0.65148  -0.65073
 Alpha  occ. eigenvalues --   -0.64707  -0.64526  -0.64452  -0.64421  -0.64015
 Alpha  occ. eigenvalues --   -0.63845  -0.62240  -0.62086  -0.60250  -0.60115
 Alpha  occ. eigenvalues --   -0.59643  -0.59586  -0.58803  -0.58740  -0.58337
 Alpha  occ. eigenvalues --   -0.58184  -0.57530  -0.57372  -0.57118  -0.56973
 Alpha  occ. eigenvalues --   -0.56164  -0.55968  -0.55945  -0.55729  -0.55378
 Alpha  occ. eigenvalues --   -0.55284  -0.55171  -0.54967  -0.54392  -0.54176
 Alpha  occ. eigenvalues --   -0.53769  -0.53730  -0.53134  -0.53078  -0.53020
 Alpha  occ. eigenvalues --   -0.52916  -0.52823  -0.52703  -0.52624  -0.52528
 Alpha  occ. eigenvalues --   -0.52069  -0.51850  -0.51670  -0.51561  -0.51491
 Alpha  occ. eigenvalues --   -0.51483  -0.51011  -0.50922  -0.50406  -0.50301
 Alpha  occ. eigenvalues --   -0.49823  -0.49782  -0.49705  -0.49508  -0.49376
 Alpha  occ. eigenvalues --   -0.49299  -0.49082  -0.49017  -0.48952  -0.48879
 Alpha  occ. eigenvalues --   -0.48487  -0.48370  -0.48326  -0.48257  -0.48186
 Alpha  occ. eigenvalues --   -0.48089  -0.47534  -0.47373  -0.47133  -0.46903
 Alpha  occ. eigenvalues --   -0.46585  -0.46448  -0.46433  -0.46337  -0.46170
 Alpha  occ. eigenvalues --   -0.46001  -0.45970  -0.45820  -0.45686  -0.45586
 Alpha  occ. eigenvalues --   -0.44974  -0.44892  -0.44447  -0.44336  -0.44329
 Alpha  occ. eigenvalues --   -0.44217  -0.43988  -0.43945  -0.43914  -0.43833
 Alpha  occ. eigenvalues --   -0.43771  -0.43708  -0.43400  -0.43314  -0.43202
 Alpha  occ. eigenvalues --   -0.43152  -0.42860  -0.42771  -0.42709  -0.42655
 Alpha  occ. eigenvalues --   -0.42367  -0.42198  -0.41747  -0.41569  -0.41528
 Alpha  occ. eigenvalues --   -0.41431  -0.41375  -0.41160  -0.40971  -0.40766
 Alpha  occ. eigenvalues --   -0.40723  -0.40671  -0.40592  -0.40460  -0.40306
 Alpha  occ. eigenvalues --   -0.40138  -0.40102  -0.40077  -0.39074  -0.38897
 Alpha  occ. eigenvalues --   -0.38230  -0.38031  -0.37643  -0.37478  -0.37121
 Alpha  occ. eigenvalues --   -0.37082  -0.37001  -0.36934  -0.36750  -0.36628
 Alpha  occ. eigenvalues --   -0.36040  -0.35933  -0.34097  -0.34004  -0.33883
 Alpha  occ. eigenvalues --   -0.33746  -0.32996  -0.32917  -0.31223  -0.31150
 Alpha  occ. eigenvalues --   -0.30855  -0.30733  -0.29896  -0.29745  -0.29256
 Alpha  occ. eigenvalues --   -0.29115  -0.29103  -0.28952  -0.23882  -0.23779
 Alpha  occ. eigenvalues --   -0.20914  -0.20855
 Alpha virt. eigenvalues --   -0.08575  -0.08545  -0.01548  -0.01433   0.00099
 Alpha virt. eigenvalues --    0.00155   0.02324   0.02420   0.02481   0.04480
 Alpha virt. eigenvalues --    0.04828   0.04907   0.04959   0.05262   0.06124

 Mulliken charges:
               1
     1  Mg   0.838855
     2  C   -0.004408
     3  C   -0.093341
     4  C   -0.046031
     5  C   -0.061460
     6  N   -0.256737
     7  C   -0.052866
     8  C   -0.013853
     9  C   -0.086811
    10  C    0.046222
    11  C    0.104956
    12  C    0.048405
    13  C   -0.070884
    14  H    0.032602
    15  N   -0.433108
    16  C    0.168743
    17  C   -0.176787
    18  C   -0.004469
    19  C    0.148602
    20  C    0.110161
    21  C    0.011410
    22  O   -0.250724
    23  C    0.062555
    24  N   -0.341329
    25  C    0.041427
    26  C   -0.027673
    27  C   -0.024173
    28  C    0.075200
    29  C    0.076500
    30  C    0.034711
    31  C   -0.006281
    32  N   -0.311027
    33  C    0.081522
    34  C   -0.166951
    35  C    0.008017
    36  C    0.084003
    37  C    0.127031
    38  C    0.046310
    39  O   -0.188824
    40  C   -0.006052
    41  C    0.212550
    42  O   -0.255236
    43  O   -0.303952
    44  C    0.157415
    45  H   -0.018038
    46  H   -0.017590
    47  H   -0.039708
    48  H    0.000129
    49  H   -0.003809
    50  H    0.025112
    51  H    0.016581
    52  H    0.016353
    53  H    0.013955
    54  H    0.048705
    55  H    0.018032
    56  H    0.019120
    57  H    0.006138
    58  H    0.025819
    59  H    0.040662
    60  H    0.037835
    61  H    0.033681
    62  H    0.031018
    63  H    0.016036
    64  H    0.008782
    65  H    0.022207
    66  H    0.011970
    67  H    0.004535
    68  H    0.004080
    69  H    0.006643
    70  H    0.004290
    71  H    0.029936
    72  H    0.028777
    73  H    0.049233
    74  H    0.011428
    75  H    0.044942
    76  H    0.035363
    77  H    0.043924
    78  H    0.046855
    79  H    0.051608
    80  Mg   0.837405
    81  C   -0.017748
    82  C   -0.087797
    83  C   -0.045977
    84  C   -0.061260
    85  N   -0.254628
    86  C   -0.049756
    87  C   -0.015242
    88  C   -0.090442
    89  C    0.045445
    90  C    0.114543
    91  C    0.062326
    92  C   -0.077250
    93  H    0.032890
    94  N   -0.423305
    95  C    0.162693
    96  C   -0.174923
    97  C   -0.008641
    98  C    0.151768
    99  C    0.099437
   100  C    0.014145
   101  O   -0.254981
   102  C    0.061483
   103  N   -0.350489
   104  C    0.037814
   105  C   -0.019084
   106  C   -0.034365
   107  C    0.089566
   108  C    0.074257
   109  C    0.034496
   110  C   -0.019348
   111  N   -0.324791
   112  C    0.080000
   113  C   -0.159800
   114  C    0.001701
   115  C    0.097141
   116  C    0.131201
   117  C    0.042695
   118  O   -0.188100
   119  C    0.000617
   120  C    0.211547
   121  O   -0.252270
   122  O   -0.305262
   123  C    0.152513
   124  H   -0.020491
   125  H   -0.016902
   126  H   -0.037515
   127  H   -0.001139
   128  H   -0.004597
   129  H    0.022095
   130  H    0.014419
   131  H    0.015674
   132  H    0.014887
   133  H    0.036869
   134  H    0.020706
   135  H    0.019984
   136  H    0.008696
   137  H    0.024969
   138  H    0.039589
   139  H    0.038821
   140  H    0.033651
   141  H    0.033006
   142  H    0.013461
   143  H    0.011011
   144  H    0.023304
   145  H    0.010822
   146  H    0.005205
   147  H    0.001190
   148  H    0.006460
   149  H    0.002516
   150  H    0.041299
   151  H    0.027879
   152  H    0.047846
   153  H    0.012039
   154  H    0.045456
   155  H    0.034621
   156  H    0.043893
   157  H    0.049389
   158  H    0.051838
 Sum of Mulliken charges =  -0.00000

 Dipole moment (field-independent basis, Debye):
    X=              0.3120    Y=              6.3675    Z=             -1.7010  Tot=              6.5981
 Quadrupole moment (field-independent basis, Debye-Ang):
   XX=           -462.5553   YY=           -537.3883   ZZ=           -482.8358
   XY=            -10.6850   XZ=            -22.9270   YZ=             12.8188

 Normal termination of Gaussian 16 at Wed Sep  8 18:03:08 2021.
