 Gaussian 16, Revision A.03,
 Gaussian 16:  ES64L-G16RevA.03 25-Dec-2016

 -----------------------------------
 #p cam-b3lyp/Def2SVP td=(nstates=5)
 -----------------------------------

 --------------------------------
 TDDFT excited states in gaussian
 --------------------------------
 Symbolic Z-matrix:
 Charge =  0 Multiplicity = 1

                         Standard orientation:
 ---------------------------------------------------------------------
 Center     Atomic      Atomic             Coordinates (Angstroms)
 Number     Number       Type             X           Y           Z
 ---------------------------------------------------------------------
      1         12           0        7.524304    0.879627    0.511815
      2          6           0        7.935915   -2.361200   -0.951001
      3          6           0        8.480271    2.191905   -2.489371
      4          6           0        7.607871    3.726532    1.906366
      5          6           0        7.711911   -0.666237    3.629630
      6          7           0        8.107026   -0.067251   -1.402473
      7          6           0        8.165882   -1.317551   -1.850199
      8          6           0        8.420944   -1.413103   -3.384209
      9          6           0        9.123689   -0.000059   -3.611044
     10          6           0        8.507872    0.766076   -2.453577
     11          6           0       10.637348   -0.035768   -3.426480
     12          6           0        7.090724   -1.529232   -4.201987
     13          6           0        7.257557   -1.952419   -5.664325
     14          1           0        6.244590   -2.806240   -6.266187
     15          7           0        7.500457    2.692194   -0.273605
     16          6           0        7.911744    3.041869   -1.516125
     17          6           0        7.692690    4.500420   -1.622545
     18          6           0        7.298422    5.000748   -0.276322
     19          6           0        7.480937    3.815628    0.522149
     20          6           0        7.812632    5.258798   -2.908712
     21          6           0        6.841342    6.337923    0.214773
     22          8           0        6.772962    6.618075    1.460330
     23          6           0        6.556506    7.353680   -0.814861
     24          7           0        7.862164    1.487346    2.480105
     25          6           0        7.784416    2.776714    2.827193
     26          6           0        7.781022    2.941581    4.318081
     27          6           0        7.627393    1.472608    4.924933
     28          6           0        7.652791    0.667118    3.602507
     29          6           0        9.022146    3.615082    4.919762
     30          6           0        6.454280    1.237572    5.909304
     31          6           0        5.137331    1.349637    5.174332
     32          7           0        7.600299   -1.161410    1.246279
     33          6           0        7.698418   -1.573276    2.583220
     34          6           0        7.827569   -3.042054    2.574394
     35          6           0        7.812172   -3.383344    1.223420
     36          6           0        7.708084   -2.200402    0.437224
     37          6           0        7.997522   -3.870579    3.718552
     38          6           0        7.884233   -4.470210    0.260412
     39          8           0        7.885116   -5.699581    0.338765
     40          6           0        8.089896   -3.842863   -1.188714
     41          6           0        7.112317   -4.511514   -2.116375
     42          8           0        5.883786   -4.334761   -1.986625
     43          8           0        7.778081   -5.056549   -3.146053
     44          6           0        6.863727   -5.710977   -4.119620
     45          1           0        8.990400    2.709409   -3.304171
     46          1           0        7.529985    4.679784    2.433322
     47          1           0        7.689976   -1.224388    4.567414
     48          1           0        9.094493   -2.216224   -3.683796
     49          1           0        8.834520    0.450540   -4.560288
     50          1           0       10.969216   -1.000247   -3.042338
     51          1           0       10.862215    0.756373   -2.712029
     52          1           0       11.146806    0.240258   -4.350082
     53          1           0        6.667976   -0.534622   -4.343752
     54          1           0        6.392181   -2.205748   -3.708338
     55          1           0        8.254588   -2.351738   -5.852429
     56          1           0        7.201532   -1.059370   -6.286840
     57          1           0        8.276175    4.655043   -3.687912
     58          1           0        8.520560    6.069119   -2.735714
     59          1           0        6.856478    5.669132   -3.233870
     60          1           0        7.454197    7.525183   -1.409241
     61          1           0        6.156937    8.216697   -0.283452
     62          1           0        5.805349    6.960463   -1.500494
     63          1           0        6.938965    3.551795    4.642123
     64          1           0        8.510791    1.167561    5.486385
     65          1           0        8.795790    4.504999    5.507567
     66          1           0        9.707277    3.848269    4.105201
     67          1           0        9.637996    2.966140    5.541872
     68          1           0        6.453402    2.000377    6.687169
     69          1           0        6.491849    0.264467    6.399104
     70          1           0        4.953492    2.423404    5.166573
     71          1           0        4.352276    0.823053    5.718032
     72          1           0        5.231678    1.027697    4.137057
     73          1           0        7.341902   -4.729128    3.573551
     74          1           0        7.751922   -3.334978    4.635293
     75          1           0        9.059461   -4.103882    3.642978
     76          1           0        9.123391   -4.039975   -1.471834
     77          1           0        7.194636   -6.744105   -4.226301
     78          1           0        6.862444   -5.085343   -5.012360
     79          1           0        5.834317   -5.857528   -3.790716
     80         12           0       -8.314011    0.185171   -0.218318
     81          6           0       -5.685608   -2.169593    0.434076
     82          6           0       -5.888444    2.539794   -0.673204
     83          6           0      -10.605190    2.376001   -0.353188
     84          6           0      -10.493335   -2.015623    1.379429
     85          7           0       -6.107589    0.077067   -0.107648
     86          6           0       -5.218133   -0.884775    0.087485
     87          6           0       -3.747606   -0.464479   -0.177970
     88          6           0       -3.904218    1.117067    0.052357
     89          6           0       -5.383210    1.269660   -0.296896
     90          6           0       -3.709534    1.536611    1.499917
     91          6           0       -3.288370   -0.788906   -1.642847
     92          6           0       -1.779838   -0.690894   -1.880471
     93          1           0       -1.159169   -1.630496   -2.810205
     94          7           0       -8.283863    2.031956   -0.944283
     95          6           0       -7.208352    2.836003   -1.078693
     96          6           0       -7.716371    4.096763   -1.641334
     97          6           0       -9.202724    4.030486   -1.674250
     98          6           0       -9.427299    2.791511   -0.956913
     99          6           0       -6.813822    5.179941   -2.156644
    100          6           0      -10.249373    4.939162   -2.244388
    101          8           0      -11.489639    4.806044   -1.949710
    102          6           0       -9.769381    6.046761   -3.083627
    103          7           0      -10.221463    0.282931    0.602922
    104          6           0      -11.032515    1.323976    0.345333
    105          6           0      -12.441349    1.046619    0.812958
    106          6           0      -12.461807   -0.499356    1.221770
    107          6           0      -10.972935   -0.841073    0.993981
    108          6           0      -12.929829    1.890543    1.990060
    109          6           0      -13.537147   -1.392291    0.544301
    110          6           0      -13.241904   -1.525285   -0.932368
    111          7           0       -8.193489   -1.820395    0.576195
    112          6           0       -9.217482   -2.543128    1.226711
    113          6           0       -8.625975   -3.815279    1.689517
    114          6           0       -7.282547   -3.733772    1.293222
    115          6           0       -7.048199   -2.489431    0.648084
    116          6           0       -9.304717   -4.831250    2.419752
    117          6           0       -6.006874   -4.412932    1.283352
    118          8           0       -5.616787   -5.533488    1.608792
    119          6           0       -4.886299   -3.377024    0.838827
    120          6           0       -4.033743   -4.036738   -0.210203
    121          8           0       -4.514083   -4.338936   -1.316799
    122          8           0       -2.747372   -4.004194    0.182964
    123          6           0       -1.861199   -4.637039   -0.829962
    124          1           0       -5.223056    3.401487   -0.612852
    125          1           0      -11.457400    3.049692   -0.468789
    126          1           0      -11.130436   -2.797053    1.799107
    127          1           0       -3.025684   -0.872108    0.519481
    128          1           0       -3.288010    1.680487   -0.643488
    129          1           0       -3.614450    0.684886    2.156926
    130          1           0       -4.585159    2.117704    1.758084
    131          1           0       -2.859260    2.219545    1.583361
    132          1           0       -3.636190    0.008557   -2.312042
    133          1           0       -3.640052   -1.755533   -1.947128
    134          1           0       -1.216190   -0.651480   -0.940417
    135          1           0       -1.565821    0.266544   -2.361633
    136          1           0       -5.773652    5.017326   -1.848418
    137          1           0       -7.105329    6.106696   -1.650665
    138          1           0       -6.901800    5.323659   -3.235662
    139          1           0       -9.087109    6.667113   -2.507317
    140          1           0      -10.668110    6.530668   -3.470932
    141          1           0       -9.189865    5.630083   -3.914990
    142          1           0      -13.153224    1.207975    0.012780
    143          1           0      -12.654331   -0.634155    2.296292
    144          1           0      -13.855121    2.455038    1.768139
    145          1           0      -12.134263    2.563638    2.280877
    146          1           0      -13.112748    1.337922    2.910042
    147          1           0      -14.521834   -0.925002    0.623074
    148          1           0      -13.614531   -2.382160    0.981504
    149          1           0      -13.678871   -0.615295   -1.354329
    150          1           0      -13.716132   -2.416181   -1.339124
    151          1           0      -12.162853   -1.491662   -1.122556
    152          1           0       -9.011319   -5.776897    1.983663
    153          1           0      -10.383375   -4.693558    2.383707
    154          1           0       -8.901562   -4.654545    3.420507
    155          1           0       -4.311568   -3.114565    1.727858
    156          1           0       -1.298030   -5.422062   -0.315897
    157          1           0       -1.278722   -3.809191   -1.276222
    158          1           0       -2.332841   -5.201646   -1.625718
 ---------------------------------------------------------------------

 SCF Done:  E(RCAM-B3LYP) =  -4069.81189698     A.U. after   19 cycles

 Excitation energies and oscillator strengths:

 Excited State   1:      Singlet-A      1.6689 eV  742.91 nm  f=0.0121  <S**2>=0.000
     309 -> 315       -0.10774
     310 -> 316        0.13410
     311 -> 313       -0.42812
     312 -> 314        0.53656
 This state for optimization and/or second-order correction.
 Total Energy, E(TD-HF/TD-DFT) =  -4069.75056634
 Copying the excited state density for this state as the 1-particle RhoCI density.

 Excited State   2:      Singlet-A      1.6857 eV  735.51 nm  f=0.7404  <S**2>=0.000
     309 -> 315        0.13832
     310 -> 316        0.10968
     311 -> 313        0.53565
     312 -> 314        0.42749

 Excited State   3:      Singlet-A      2.1853 eV  567.36 nm  f=0.1038  <S**2>=0.000
     310 -> 314        0.64200
     312 -> 316       -0.27216

 Excited State   4:      Singlet-A      2.1925 eV  565.49 nm  f=0.0983  <S**2>=0.000
     309 -> 313        0.64003
     311 -> 315       -0.27798

 Excited State   5:      Singlet-A      2.7150 eV  456.66 nm  f=0.0000  <S**2>=0.000
     312 -> 313        0.70693

 The electronic state is 1-A.
 Alpha  occ. eigenvalues --  -46.87954 -46.87556 -19.26413 -19.26065 -19.19165
 Alpha  occ. eigenvalues --  -19.18986 -19.18931 -19.18634 -19.18301 -19.17913
 Alpha  occ. eigenvalues --  -14.42601 -14.42386 -14.41602 -14.41257 -14.39561
 Alpha  occ. eigenvalues --  -14.39250 -14.38739 -14.38492 -10.39222 -10.38862
 Alpha  occ. eigenvalues --  -10.35620 -10.35314 -10.34522 -10.34085 -10.31793
 Alpha  occ. eigenvalues --  -10.31548 -10.31377 -10.31188 -10.31062 -10.30903
 Alpha  occ. eigenvalues --  -10.30717 -10.30660 -10.30361 -10.30294 -10.30249
 Alpha  occ. eigenvalues --  -10.30067 -10.30051 -10.29793 -10.29781 -10.29409
 Alpha  occ. eigenvalues --  -10.29341 -10.29298 -10.28890 -10.28672 -10.28557
 Alpha  occ. eigenvalues --  -10.28518 -10.28412 -10.28293 -10.28252 -10.28000
 Alpha  occ. eigenvalues --  -10.27939 -10.27896 -10.27875 -10.27740 -10.27644
 Alpha  occ. eigenvalues --  -10.27641 -10.27593 -10.27562 -10.27553 -10.27440
 Alpha  occ. eigenvalues --  -10.27392 -10.27367 -10.27364 -10.27296 -10.27294
 Alpha  occ. eigenvalues --  -10.26882 -10.26857 -10.26597 -10.26508 -10.26357
 Alpha  occ. eigenvalues --  -10.26355 -10.26331 -10.26167 -10.26069 -10.25953
 Alpha  occ. eigenvalues --  -10.25887 -10.25836 -10.25753 -10.25564 -10.25328
 Alpha  occ. eigenvalues --  -10.24977 -10.24940 -10.24860 -10.24763 -10.24664
 Alpha  occ. eigenvalues --  -10.24588  -3.16697  -3.16306  -1.91579  -1.91188
 Alpha  occ. eigenvalues --   -1.91165  -1.91007  -1.90776  -1.90613  -1.16764
 Alpha  occ. eigenvalues --   -1.16372  -1.08758  -1.08511  -1.07389  -1.06889
 Alpha  occ. eigenvalues --   -1.06784  -1.06711  -1.04731  -1.04381  -1.03912
 Alpha  occ. eigenvalues --   -1.03557  -1.03386  -1.02937  -1.02563  -1.02007
 Alpha  occ. eigenvalues --   -0.92118  -0.91860  -0.89669  -0.89397  -0.89328
 Alpha  occ. eigenvalues --   -0.89006  -0.88434  -0.88130  -0.88006  -0.87821
 Alpha  occ. eigenvalues --   -0.87687  -0.87567  -0.87435  -0.87033  -0.85126
 Alpha  occ. eigenvalues --   -0.84859  -0.84083  -0.83780  -0.83133  -0.82850
 Alpha  occ. eigenvalues --   -0.82795  -0.82517  -0.81722  -0.81406  -0.80742
 Alpha  occ. eigenvalues --   -0.80286  -0.78949  -0.78539  -0.77363  -0.77072
 Alpha  occ. eigenvalues --   -0.77024  -0.76738  -0.76060  -0.75677  -0.75039
 Alpha  occ. eigenvalues --   -0.74691  -0.72919  -0.72593  -0.71814  -0.71460
 Alpha  occ. eigenvalues --   -0.70058  -0.69673  -0.69018  -0.68690  -0.67790
 Alpha  occ. eigenvalues --   -0.67482  -0.67371  -0.67055  -0.65430  -0.65122
 Alpha  occ. eigenvalues --   -0.64998  -0.64765  -0.64648  -0.64497  -0.64417
 Alpha  occ. eigenvalues --   -0.64100  -0.62434  -0.62079  -0.60599  -0.60248
 Alpha  occ. eigenvalues --   -0.59947  -0.59663  -0.59133  -0.58875  -0.58649
 Alpha  occ. eigenvalues --   -0.58300  -0.57723  -0.57456  -0.57387  -0.57125
 Alpha  occ. eigenvalues --   -0.56454  -0.56113  -0.56092  -0.55683  -0.55671
 Alpha  occ. eigenvalues --   -0.55481  -0.55314  -0.55115  -0.54664  -0.54330
 Alpha  occ. eigenvalues --   -0.54037  -0.53765  -0.53450  -0.53370  -0.53115
 Alpha  occ. eigenvalues --   -0.53061  -0.53003  -0.52913  -0.52747  -0.52590
 Alpha  occ. eigenvalues --   -0.52564  -0.52314  -0.52042  -0.51776  -0.51763
 Alpha  occ. eigenvalues --   -0.51514  -0.51337  -0.51064  -0.50740  -0.50396
 Alpha  occ. eigenvalues --   -0.50180  -0.50074  -0.49871  -0.49777  -0.49663
 Alpha  occ. eigenvalues --   -0.49372  -0.49359  -0.49231  -0.49072  -0.48962
 Alpha  occ. eigenvalues --   -0.48729  -0.48615  -0.48590  -0.48405  -0.48279
 Alpha  occ. eigenvalues --   -0.48223  -0.47842  -0.47466  -0.47443  -0.47005
 Alpha  occ. eigenvalues --   -0.46942  -0.46698  -0.46593  -0.46506  -0.46409
 Alpha  occ. eigenvalues --   -0.46302  -0.46160  -0.45955  -0.45951  -0.45659
 Alpha  occ. eigenvalues --   -0.45346  -0.45109  -0.44715  -0.44660  -0.44371
 Alpha  occ. eigenvalues --   -0.44347  -0.44296  -0.44229  -0.44163  -0.44002
 Alpha  occ. eigenvalues --   -0.43965  -0.43810  -0.43630  -0.43531  -0.43367
 Alpha  occ. eigenvalues --   -0.43243  -0.43169  -0.42841  -0.42797  -0.42792
 Alpha  occ. eigenvalues --   -0.42683  -0.42463  -0.42157  -0.41847  -0.41847
 Alpha  occ. eigenvalues --   -0.41677  -0.41541  -0.41320  -0.41283  -0.41017
 Alpha  occ. eigenvalues --   -0.40987  -0.40870  -0.40716  -0.40615  -0.40572
 Alpha  occ. eigenvalues --   -0.40385  -0.40382  -0.40061  -0.39596  -0.39343
 Alpha  occ. eigenvalues --   -0.38615  -0.38250  -0.37893  -0.37489  -0.37468
 Alpha  occ. eigenvalues --   -0.37410  -0.37161  -0.37057  -0.36853  -0.36563
 Alpha  occ. eigenvalues --   -0.36336  -0.36071  -0.34436  -0.34142  -0.33918
 Alpha  occ. eigenvalues --   -0.33658  -0.33337  -0.33063  -0.31515  -0.31192
 Alpha  occ. eigenvalues --   -0.31186  -0.30861  -0.30160  -0.29812  -0.29606
 Alpha  occ. eigenvalues --   -0.29468  -0.29229  -0.29104  -0.24232  -0.23927
 Alpha  occ. eigenvalues --   -0.21278  -0.21012
 Alpha virt. eigenvalues --   -0.08926  -0.08687  -0.01904  -0.01582  -0.00216
 Alpha virt. eigenvalues --    0.00072   0.02058   0.02324   0.02915   0.03323
 Alpha virt. eigenvalues --    0.04572   0.04863   0.04958   0.05382   0.06040

 Mulliken charges:
               1
     1  Mg   0.837786
     2  C   -0.003221
     3  C   -0.094173
     4  C   -0.046094
     5  C   -0.063862
     6  N   -0.256798
     7  C   -0.052460
     8  C   -0.013936
     9  C   -0.086957
    10  C    0.046094
    11  C    0.104743
    12  C    0.053521
    13  C   -0.071953
    14  H    0.036282
    15  N   -0.433149
    16  C    0.168070
    17  C   -0.177305
    18  C   -0.004269
    19  C    0.148419
    20  C    0.110141
    21  C    0.011777
    22  O   -0.249715
    23  C    0.062707
    24  N   -0.341095
    25  C    0.041188
    26  C   -0.028177
    27  C   -0.024071
    28  C    0.074723
    29  C    0.076088
    30  C    0.035139
    31  C   -0.004557
    32  N   -0.310526
    33  C    0.080336
    34  C   -0.169458
    35  C    0.008561
    36  C    0.082803
    37  C    0.127266
    38  C    0.046138
    39  O   -0.187754
    40  C   -0.005312
    41  C    0.213171
    42  O   -0.257913
    43  O   -0.304569
    44  C    0.157644
    45  H   -0.017390
    46  H   -0.016862
    47  H   -0.041077
    48  H    0.001288
    49  H   -0.004005
    50  H    0.025678
    51  H    0.016522
    52  H    0.016935
    53  H    0.010755
    54  H    0.043654
    55  H    0.018301
    56  H    0.017999
    57  H    0.006066
    58  H    0.027073
    59  H    0.038960
    60  H    0.037769
    61  H    0.035472
    62  H    0.030696
    63  H    0.016252
    64  H    0.009874
    65  H    0.023291
    66  H    0.012694
    67  H    0.005075
    68  H    0.006629
    69  H    0.005255
    70  H    0.008341
    71  H    0.018310
    72  H    0.028420
    73  H    0.048031
    74  H    0.009377
    75  H    0.046376
    76  H    0.035553
    77  H    0.043580
    78  H    0.046506
    79  H    0.053331
    80  Mg   0.837543
    81  C   -0.016709
    82  C   -0.087857
    83  C   -0.045706
    84  C   -0.065154
    85  N   -0.254541
    86  C   -0.049795
    87  C   -0.014953
    88  C   -0.090419
    89  C    0.045742
    90  C    0.114426
    91  C    0.062687
    92  C   -0.078402
    93  H    0.036706
    94  N   -0.423445
    95  C    0.162790
    96  C   -0.174795
    97  C   -0.008054
    98  C    0.152056
    99  C    0.099452
   100  C    0.015397
   101  O   -0.253447
   102  C    0.061279
   103  N   -0.350110
   104  C    0.037444
   105  C   -0.019751
   106  C   -0.034805
   107  C    0.089022
   108  C    0.073739
   109  C    0.034784
   110  C   -0.007633
   111  N   -0.324143
   112  C    0.078554
   113  C   -0.163281
   114  C    0.002436
   115  C    0.096135
   116  C    0.131507
   117  C    0.042278
   118  O   -0.187193
   119  C    0.001130
   120  C    0.211378
   121  O   -0.251619
   122  O   -0.305466
   123  C    0.151606
   124  H   -0.019803
   125  H   -0.015871
   126  H   -0.040647
   127  H    0.000252
   128  H   -0.004476
   129  H    0.022620
   130  H    0.014026
   131  H    0.016431
   132  H    0.013058
   133  H    0.037722
   134  H    0.022107
   135  H    0.018348
   136  H    0.008625
   137  H    0.025892
   138  H    0.039312
   139  H    0.038128
   140  H    0.036090
   141  H    0.033694
   142  H    0.014199
   143  H    0.012287
   144  H    0.024898
   145  H    0.011616
   146  H    0.005515
   147  H    0.006055
   148  H    0.003592
   149  H    0.010802
   150  H    0.017790
   151  H    0.030248
   152  H    0.046115
   153  H    0.008291
   154  H    0.046931
   155  H    0.035356
   156  H    0.046093
   157  H    0.051201
   158  H    0.052692
 Sum of Mulliken charges =  -0.00000

 Dipole moment (field-independent basis, Debye):
    X=              4.1554    Y=              6.8571    Z=             -2.5535  Tot=              8.4147
 Quadrupole moment (field-independent basis, Debye-Ang):
   XX=           -488.7171   YY=           -557.2235   ZZ=           -470.4268
   XY=             17.7258   XZ=            -39.2905   YZ=            -10.7438

 Normal termination of Gaussian 16 at Sun Sep 12 02:54:43 2021.
