 Gaussian 16, Revision A.03,
 Gaussian 16:  ES64L-G16RevA.03 25-Dec-2016

 -----------------------------------
 #p cam-b3lyp/Def2SVP td=(nstates=5)
 -----------------------------------

 --------------------------------
 TDDFT excited states in gaussian
 --------------------------------
 Symbolic Z-matrix:
 Charge =  0 Multiplicity = 1

                         Standard orientation:
 ---------------------------------------------------------------------
 Center     Atomic      Atomic             Coordinates (Angstroms)
 Number     Number       Type             X           Y           Z
 ---------------------------------------------------------------------
      1         12           0       -7.838169    0.546206   -0.617801
      2          6           0       -8.143695   -2.479875    1.269446
      3          6           0       -8.932990    2.209452    2.153128
      4          6           0       -8.011345    3.168060   -2.393333
      5          6           0       -7.871725   -1.419129   -3.495646
      6          7           0       -8.429579   -0.156630    1.396374
      7          6           0       -8.444482   -1.335239    2.011053
      8          6           0       -8.736508   -1.232055    3.537961
      9          6           0       -9.507743    0.163284    3.553020
     10          6           0       -8.895708    0.792485    2.313889
     11          6           0      -11.012721    0.029876    3.343864
     12          6           0       -7.425086   -1.171020    4.391293
     13          6           0       -7.612383   -1.397570    5.894273
     14          1           0       -6.578876   -2.111239    6.629045
     15          7           0       -7.916852    2.448256   -0.089723
     16          6           0       -8.376931    2.944538    1.083868
     17          6           0       -8.226404    4.412759    0.992488
     18          6           0       -7.818588    4.742470   -0.401453
     19          6           0       -7.926110    3.451807   -1.032331
     20          6           0       -8.415031    5.333410    2.158924
     21          6           0       -7.408723    6.020253   -1.062825
     22          8           0       -7.319213    6.130222   -2.333443
     23          6           0       -7.197702    7.179912   -0.177555
     24          7           0       -8.149419    0.861798   -2.657693
     25          6           0       -8.120128    2.093746   -3.177720
     26          6           0       -8.083699    2.052940   -4.676702
     27          6           0       -7.848017    0.523830   -5.071705
     28          6           0       -7.873154   -0.093327   -3.651580
     29          6           0       -9.336977    2.577247   -5.391131
     30          6           0       -6.639294    0.212958   -5.989728
     31          6           0       -5.349100    0.487797   -5.250159
     32          7           0       -7.802708   -1.577429   -1.064968
     33          6           0       -7.845990   -2.172674   -2.334017
     34          6           0       -7.909404   -3.630913   -2.125245
     35          6           0       -7.915371   -3.782912   -0.740071
     36          6           0       -7.885737   -2.499857   -0.122670
     37          6           0       -8.010982   -4.615471   -3.147380
     38          6           0       -7.964755   -4.729913    0.362020
     39          8           0       -7.908438   -5.957043    0.454079
     40          6           0       -8.237534   -3.920724    1.706130
     41          6           0       -7.256495   -4.408284    2.737225
     42          8           0       -6.034049   -4.192068    2.609776
     43          8           0       -7.924849   -4.838621    3.818268
     44          6           0       -7.008830   -5.308867    4.891549
     45          1           0       -9.487696    2.808482    2.877977
     46          1           0       -7.961981    4.042834   -3.045078
     47          1           0       -7.799386   -2.098694   -4.346770
     48          1           0       -9.381278   -2.018064    3.931515
     49          1           0       -9.264896    0.752968    4.436773
     50          1           0      -11.290510   -0.992945    3.089718
     51          1           0      -11.253394    0.705015    2.522427
     52          1           0      -11.558889    0.404909    4.209790
     53          1           0       -7.051319   -0.147194    4.403155
     54          1           0       -6.683808   -1.874352    4.010298
     55          1           0       -8.595258   -1.814873    6.115011
     56          1           0       -7.613322   -0.426060    6.388608
     57          1           0       -8.872019    4.820412    3.004229
     58          1           0       -9.153598    6.077419    1.861136
     59          1           0       -7.487388    5.829906    2.444058
     60          1           0       -8.117960    7.387785    0.368762
     61          1           0       -6.822933    7.980270   -0.814599
     62          1           0       -6.448551    6.920847    0.571182
     63          1           0       -7.261347    2.652843   -5.064362
     64          1           0       -8.701314    0.102659   -5.603847
     65          1           0       -9.134860    3.388169   -6.091316
     66          1           0      -10.053702    2.886518   -4.630902
     67          1           0       -9.906042    1.820387   -5.930339
     68          1           0       -6.651497    0.861249   -6.865237
     69          1           0       -6.619936   -0.818707   -6.341215
     70          1           0       -5.213828    1.560106   -5.386860
     71          1           0       -4.526790   -0.069879   -5.699617
     72          1           0       -5.457022    0.306722   -4.180556
     73          1           0       -7.321731   -5.413548   -2.871743
     74          1           0       -7.764855   -4.199220   -4.123986
     75          1           0       -9.063062   -4.887042   -3.062325
     76          1           0       -9.268457   -4.126707    1.992293
     77          1           0       -7.295895   -6.332375    5.132918
     78          1           0       -7.059784   -4.567583    5.689237
     79          1           0       -5.965349   -5.449374    4.607393
     80         12           0        8.002362    0.712997    0.524451
     81          6           0        7.993196   -2.013368   -1.809199
     82          6           0        6.976712   -1.511327    2.898278
     83          6           0        7.566384    3.164505    2.491046
     84          6           0        7.907240    2.871681   -2.209913
     85          7           0        7.575558   -1.455408    0.434305
     86          6           0        7.666343   -2.397730   -0.492054
     87          6           0        7.469982   -3.842980    0.039220
     88          6           0        6.610178   -3.501873    1.351944
     89          6           0        7.105391   -2.079533    1.605728
     90          6           0        5.113592   -3.447624    1.093840
     91          6           0        8.829621   -4.534580    0.406779
     92          6           0        8.741171   -6.044751    0.637691
     93          1           0        9.864670   -6.879509    0.221278
     94          7           0        7.843556    0.760471    2.502099
     95          6           0        7.432717   -0.239671    3.309703
     96          6           0        7.473625    0.303967    4.676060
     97          6           0        7.784281    1.757043    4.593659
     98          6           0        7.721553    1.959125    3.160030
     99          6           0        7.309242   -0.552549    5.897856
    100          6           0        8.075400    2.795889    5.633976
    101          8           0        8.082794    4.046452    5.353152
    102          6           0        8.259341    2.312113    7.010058
    103          7           0        7.557150    2.717917    0.201326
    104          6           0        7.474169    3.581884    1.228262
    105          6           0        7.419261    5.008935    0.737461
    106          6           0        7.727609    4.936298   -0.830091
    107          6           0        7.823537    3.404029   -0.998399
    108          6           0        6.095398    5.739213    0.962152
    109          6           0        8.896051    5.812561   -1.358860
    110          6           0       10.211422    5.299491   -0.818543
    111          7           0        8.143312    0.511319   -1.622056
    112          6           0        8.053061    1.541770   -2.583367
    113          6           0        8.091302    0.900636   -3.913740
    114          6           0        8.178661   -0.470987   -3.631729
    115          6           0        8.173435   -0.671940   -2.224928
    116          6           0        7.998215    1.573683   -5.164522
    117          6           0        8.263389   -1.795261   -4.204282
    118          8           0        8.392191   -2.242660   -5.343130
    119          6           0        8.019596   -2.861129   -3.050650
    120          6           0        9.088558   -3.913947   -3.157513
    121          8           0       10.281044   -3.627042   -2.951953
    122          8           0        8.507331   -5.122261   -3.269504
    123          6           0        9.526993   -6.200459   -3.367367
    124          1           0        6.438230   -2.074231    3.661207
    125          1           0        7.523120    4.053316    3.124782
    126          1           0        7.980993    3.482575   -3.112148
    127          1           0        6.905137   -4.495052   -0.616160
    128          1           0        6.878711   -4.152566    2.180107
    129          1           0        4.882833   -3.531231    0.042220
    130          1           0        4.783125   -2.491810    1.478874
    131          1           0        4.600326   -4.206827    1.690921
    132          1           0        9.137569   -4.209027    1.408739
    133          1           0        9.576092   -4.325490   -0.334627
    134          1           0        7.795445   -6.462940    0.272108
    135          1           0        8.717933   -6.230406    1.714261
    136          1           0        6.929353   -1.549399    5.642135
    137          1           0        6.510705   -0.103334    6.498203
    138          1           0        8.218131   -0.604770    6.501052
    139          1           0        7.365016    1.782157    7.329128
    140          1           0        8.546585    3.189743    7.592422
    141          1           0        9.077059    1.582811    7.018140
    142          1           0        8.179671    5.612552    1.217593
    143          1           0        6.866580    5.265081   -1.430392
    144          1           0        6.205879    6.674306    1.543070
    145          1           0        5.411984    5.062342    1.457454
    146          1           0        5.549932    5.995896    0.055641
    147          1           0        8.792170    6.839281   -0.999411
    148          1           0        8.948975    5.854243   -2.441660
    149          1           0       10.266970    5.758876    0.172902
    150          1           0       11.036866    5.622165   -1.449867
    151          1           0       10.181823    4.212853   -0.677169
    152          1           0        8.742669    1.130675   -5.812623
    153          1           0        8.154262    2.644584   -5.052341
    154          1           0        6.966781    1.335573   -5.437845
    155          1           0        7.020940   -3.275720   -3.193394
    156          1           0        9.314466   -6.758922   -4.284229
    157          1           0        9.466053   -6.756783   -2.413146
    158          1           0       10.555842   -5.903652   -3.534197
 ---------------------------------------------------------------------

 SCF Done:  E(RCAM-B3LYP) =  -4069.81190218     A.U. after   19 cycles

 Excitation energies and oscillator strengths:

 Excited State   1:      Singlet-A      1.6743 eV  740.51 nm  f=0.2912  <S**2>=0.000
     310 -> 316        0.16045
     311 -> 313       -0.25704
     312 -> 314        0.63614
 This state for optimization and/or second-order correction.
 Total Energy, E(TD-HF/TD-DFT) =  -4069.75037257
 Copying the excited state density for this state as the 1-particle RhoCI density.

 Excited State   2:      Singlet-A      1.6804 eV  737.81 nm  f=0.4589  <S**2>=0.000
     309 -> 315        0.16302
     311 -> 313        0.63569
     312 -> 314        0.25687

 Excited State   3:      Singlet-A      2.1855 eV  567.30 nm  f=0.0959  <S**2>=0.000
     310 -> 314        0.63998
     312 -> 316       -0.27130

 Excited State   4:      Singlet-A      2.1928 eV  565.41 nm  f=0.1030  <S**2>=0.000
     309 -> 313        0.63802
     311 -> 315       -0.27734

 Excited State   5:      Singlet-A      2.7632 eV  448.69 nm  f=0.0000  <S**2>=0.000
     312 -> 313        0.70710

 The electronic state is 1-A.
 Alpha  occ. eigenvalues --  -46.87839 -46.87586 -19.26372 -19.26262 -19.19106
 Alpha  occ. eigenvalues --  -19.19079 -19.18850 -19.18664 -19.18224 -19.17977
 Alpha  occ. eigenvalues --  -14.42494 -14.42416 -14.41489 -14.41287 -14.39445
 Alpha  occ. eigenvalues --  -14.39279 -14.38631 -14.38526 -10.39162 -10.39008
 Alpha  occ. eigenvalues --  -10.35482 -10.35343 -10.34445 -10.34152 -10.31780
 Alpha  occ. eigenvalues --  -10.31669 -10.31452 -10.31221 -10.30956 -10.30940
 Alpha  occ. eigenvalues --  -10.30614 -10.30549 -10.30329 -10.30285 -10.30241
 Alpha  occ. eigenvalues --  -10.30074 -10.29959 -10.29827 -10.29672 -10.29366
 Alpha  occ. eigenvalues --  -10.29332 -10.29293 -10.28807 -10.28619 -10.28612
 Alpha  occ. eigenvalues --  -10.28550 -10.28410 -10.28329 -10.28168 -10.28022
 Alpha  occ. eigenvalues --  -10.27929 -10.27836 -10.27770 -10.27625 -10.27585
 Alpha  occ. eigenvalues --  -10.27524 -10.27517 -10.27475 -10.27463 -10.27450
 Alpha  occ. eigenvalues --  -10.27406 -10.27402 -10.27399 -10.27324 -10.27219
 Alpha  occ. eigenvalues --  -10.26966 -10.26777 -10.26595 -10.26440 -10.26377
 Alpha  occ. eigenvalues --  -10.26281 -10.26197 -10.26092 -10.26056 -10.25881
 Alpha  occ. eigenvalues --  -10.25865 -10.25864 -10.25787 -10.25456 -10.25354
 Alpha  occ. eigenvalues --  -10.24878 -10.24827 -10.24800 -10.24700 -10.24688
 Alpha  occ. eigenvalues --  -10.24621  -3.16582  -3.16336  -1.91464  -1.91218
 Alpha  occ. eigenvalues --   -1.91050  -1.90892  -1.90806  -1.90643  -1.16719
 Alpha  occ. eigenvalues --   -1.16557  -1.08684  -1.08583  -1.07250  -1.06918
 Alpha  occ. eigenvalues --   -1.06864  -1.06727  -1.04626  -1.04413  -1.03801
 Alpha  occ. eigenvalues --   -1.03589  -1.03276  -1.02968  -1.02453  -1.02038
 Alpha  occ. eigenvalues --   -0.92021  -0.91909  -0.89552  -0.89430  -0.89242
 Alpha  occ. eigenvalues --   -0.89044  -0.88318  -0.88160  -0.87912  -0.87723
 Alpha  occ. eigenvalues --   -0.87718  -0.87604  -0.87312  -0.87058  -0.85034
 Alpha  occ. eigenvalues --   -0.84907  -0.83968  -0.83819  -0.83000  -0.82878
 Alpha  occ. eigenvalues --   -0.82699  -0.82569  -0.81648  -0.81517  -0.80647
 Alpha  occ. eigenvalues --   -0.80366  -0.78837  -0.78568  -0.77261  -0.77064
 Alpha  occ. eigenvalues --   -0.76988  -0.76815  -0.75977  -0.75745  -0.74934
 Alpha  occ. eigenvalues --   -0.74739  -0.72815  -0.72626  -0.71716  -0.71500
 Alpha  occ. eigenvalues --   -0.69932  -0.69702  -0.68923  -0.68740  -0.67686
 Alpha  occ. eigenvalues --   -0.67530  -0.67274  -0.67118  -0.65340  -0.65181
 Alpha  occ. eigenvalues --   -0.64903  -0.64695  -0.64670  -0.64573  -0.64304
 Alpha  occ. eigenvalues --   -0.64140  -0.62362  -0.62200  -0.60479  -0.60277
 Alpha  occ. eigenvalues --   -0.59854  -0.59702  -0.59031  -0.58919  -0.58549
 Alpha  occ. eigenvalues --   -0.58352  -0.57645  -0.57475  -0.57350  -0.57171
 Alpha  occ. eigenvalues --   -0.56355  -0.56131  -0.56049  -0.55804  -0.55563
 Alpha  occ. eigenvalues --   -0.55383  -0.55381  -0.55182  -0.54575  -0.54420
 Alpha  occ. eigenvalues --   -0.53950  -0.53810  -0.53340  -0.53272  -0.53160
 Alpha  occ. eigenvalues --   -0.53063  -0.52970  -0.52823  -0.52799  -0.52597
 Alpha  occ. eigenvalues --   -0.52463  -0.52348  -0.51957  -0.51817  -0.51670
 Alpha  occ. eigenvalues --   -0.51573  -0.51243  -0.51127  -0.50606  -0.50417
 Alpha  occ. eigenvalues --   -0.50061  -0.49958  -0.49900  -0.49806  -0.49562
 Alpha  occ. eigenvalues --   -0.49411  -0.49263  -0.49148  -0.49122  -0.49010
 Alpha  occ. eigenvalues --   -0.48647  -0.48498  -0.48490  -0.48473  -0.48316
 Alpha  occ. eigenvalues --   -0.48276  -0.47740  -0.47518  -0.47339  -0.47050
 Alpha  occ. eigenvalues --   -0.46838  -0.46634  -0.46610  -0.46461  -0.46402
 Alpha  occ. eigenvalues --   -0.46207  -0.46202  -0.46017  -0.45877  -0.45744
 Alpha  occ. eigenvalues --   -0.45234  -0.45147  -0.44630  -0.44548  -0.44438
 Alpha  occ. eigenvalues --   -0.44389  -0.44184  -0.44137  -0.44068  -0.44039
 Alpha  occ. eigenvalues --   -0.44015  -0.43869  -0.43554  -0.43475  -0.43430
 Alpha  occ. eigenvalues --   -0.43304  -0.43072  -0.42852  -0.42824  -0.42768
 Alpha  occ. eigenvalues --   -0.42692  -0.42493  -0.42049  -0.41894  -0.41750
 Alpha  occ. eigenvalues --   -0.41592  -0.41586  -0.41373  -0.41185  -0.40916
 Alpha  occ. eigenvalues --   -0.40904  -0.40863  -0.40655  -0.40617  -0.40606
 Alpha  occ. eigenvalues --   -0.40424  -0.40296  -0.40136  -0.39464  -0.39371
 Alpha  occ. eigenvalues --   -0.38503  -0.38285  -0.37809  -0.37564  -0.37356
 Alpha  occ. eigenvalues --   -0.37317  -0.37197  -0.37113  -0.36781  -0.36693
 Alpha  occ. eigenvalues --   -0.36245  -0.36144  -0.34330  -0.34178  -0.33849
 Alpha  occ. eigenvalues --   -0.33782  -0.33231  -0.33102  -0.31380  -0.31222
 Alpha  occ. eigenvalues --   -0.31079  -0.30898  -0.30084  -0.29880  -0.29490
 Alpha  occ. eigenvalues --   -0.29366  -0.29260  -0.29140  -0.24124  -0.23960
 Alpha  occ. eigenvalues --   -0.21169  -0.21043
 Alpha virt. eigenvalues --   -0.08816  -0.08720  -0.01790  -0.01612  -0.00100
 Alpha virt. eigenvalues --    0.00040   0.02154   0.02278   0.03073   0.03293
 Alpha virt. eigenvalues --    0.04668   0.04817   0.05020   0.05248   0.06109

 Mulliken charges:
               1
     1  Mg   0.838619
     2  C   -0.003152
     3  C   -0.094168
     4  C   -0.045803
     5  C   -0.063839
     6  N   -0.256790
     7  C   -0.052545
     8  C   -0.014016
     9  C   -0.086992
    10  C    0.046277
    11  C    0.104785
    12  C    0.053489
    13  C   -0.071637
    14  H    0.035489
    15  N   -0.433153
    16  C    0.168423
    17  C   -0.177111
    18  C   -0.003929
    19  C    0.148716
    20  C    0.110145
    21  C    0.012304
    22  O   -0.249500
    23  C    0.062468
    24  N   -0.341117
    25  C    0.041275
    26  C   -0.028224
    27  C   -0.023990
    28  C    0.074809
    29  C    0.076132
    30  C    0.035073
    31  C   -0.004552
    32  N   -0.310426
    33  C    0.080341
    34  C   -0.169713
    35  C    0.008268
    36  C    0.082905
    37  C    0.127330
    38  C    0.045993
    39  O   -0.188667
    40  C   -0.005279
    41  C    0.212864
    42  O   -0.257516
    43  O   -0.304635
    44  C    0.157865
    45  H   -0.017545
    46  H   -0.016697
    47  H   -0.041316
    48  H    0.000904
    49  H   -0.004060
    50  H    0.025484
    51  H    0.016566
    52  H    0.016711
    53  H    0.011221
    54  H    0.043799
    55  H    0.018009
    56  H    0.018067
    57  H    0.005873
    58  H    0.026947
    59  H    0.039638
    60  H    0.037410
    61  H    0.035747
    62  H    0.031510
    63  H    0.016661
    64  H    0.009563
    65  H    0.023350
    66  H    0.012522
    67  H    0.004865
    68  H    0.006586
    69  H    0.004880
    70  H    0.008806
    71  H    0.018478
    72  H    0.028713
    73  H    0.047431
    74  H    0.009313
    75  H    0.046066
    76  H    0.035213
    77  H    0.042924
    78  H    0.046405
    79  H    0.053141
    80  Mg   0.837904
    81  C   -0.016778
    82  C   -0.087615
    83  C   -0.045636
    84  C   -0.064923
    85  N   -0.254604
    86  C   -0.049591
    87  C   -0.015165
    88  C   -0.090521
    89  C    0.045761
    90  C    0.114253
    91  C    0.062499
    92  C   -0.077899
    93  H    0.034609
    94  N   -0.423522
    95  C    0.162901
    96  C   -0.174548
    97  C   -0.008015
    98  C    0.152184
    99  C    0.099355
   100  C    0.015425
   101  O   -0.253486
   102  C    0.061242
   103  N   -0.350045
   104  C    0.037584
   105  C   -0.019807
   106  C   -0.034823
   107  C    0.088936
   108  C    0.073710
   109  C    0.034779
   110  C   -0.007629
   111  N   -0.324108
   112  C    0.078501
   113  C   -0.163190
   114  C    0.002302
   115  C    0.096184
   116  C    0.131485
   117  C    0.042364
   118  O   -0.187932
   119  C    0.000966
   120  C    0.211200
   121  O   -0.251176
   122  O   -0.305444
   123  C    0.152083
   124  H   -0.019256
   125  H   -0.015883
   126  H   -0.040602
   127  H   -0.000234
   128  H   -0.004325
   129  H    0.022887
   130  H    0.014613
   131  H    0.017263
   132  H    0.013737
   133  H    0.037474
   134  H    0.021267
   135  H    0.019606
   136  H    0.009024
   137  H    0.025999
   138  H    0.039592
   139  H    0.038166
   140  H    0.036075
   141  H    0.033909
   142  H    0.014196
   143  H    0.012442
   144  H    0.024757
   145  H    0.011675
   146  H    0.005696
   147  H    0.006051
   148  H    0.003614
   149  H    0.010803
   150  H    0.017795
   151  H    0.030221
   152  H    0.045873
   153  H    0.008370
   154  H    0.047027
   155  H    0.035468
   156  H    0.043909
   157  H    0.049641
   158  H    0.053382
 Sum of Mulliken charges =  -0.00000

 Dipole moment (field-independent basis, Debye):
    X=             -4.5142    Y=              1.8817    Z=              5.8199  Tot=              7.6019
 Quadrupole moment (field-independent basis, Debye-Ang):
   XX=           -518.1621   YY=           -515.0354   ZZ=           -484.2416
   XY=            -32.8655   XZ=              8.6264   YZ=            -15.1450

 Normal termination of Gaussian 16 at Sun Sep 12 08:08:54 2021.
