 Gaussian 16, Revision A.03,
 Gaussian 16:  ES64L-G16RevA.03 25-Dec-2016

 -----------------------------------
 #p cam-b3lyp/Def2SVP td=(nstates=5)
 -----------------------------------

 --------------------------------
 TDDFT excited states in gaussian
 --------------------------------
 Symbolic Z-matrix:
 Charge =  0 Multiplicity = 1

                         Standard orientation:
 ---------------------------------------------------------------------
 Center     Atomic      Atomic             Coordinates (Angstroms)
 Number     Number       Type             X           Y           Z
 ---------------------------------------------------------------------
      1         12           0       15.727749   -0.710965    0.123155
      2          6           0       16.021759    2.787476   -0.574472
      3          6           0       16.675043   -0.000698    3.323345
      4          6           0       15.916077   -3.833288    0.644934
      5          6           0       15.918384   -1.261716   -3.312830
      6          7           0       16.252821    1.191148    1.126603
      7          6           0       16.268167    2.469727    0.763050
      8          6           0       16.496529    3.447964    1.953965
      9          6           0       17.236671    2.454411    2.957479
     10          6           0       16.661515    1.138302    2.464551
     11          6           0       18.751317    2.425712    2.779929
     12          6           0       15.150973    3.974380    2.557369
     13          6           0       15.282689    5.174340    3.499759
     14          1           0       14.236000    6.185171    3.496963
     15          7           0       15.744717   -1.728187    1.816619
     16          6           0       16.146747   -1.276246    3.028811
     17          6           0       15.968789   -2.407042    3.964926
     18          6           0       15.610217   -3.609624    3.162856
     19          6           0       15.770369   -3.104780    1.823132
     20          6           0       16.090901   -2.271461    5.451687
     21          6           0       15.200075   -4.997094    3.543435
     22          8           0       15.159218   -5.951484    2.693702
     23          6           0       14.929127   -5.233185    4.973082
     24          7           0       16.113681   -2.338638   -1.125594
     25          6           0       16.079034   -3.591059   -0.657378
     26          6           0       16.103561   -4.592303   -1.774002
     27          6           0       15.916488   -3.756314   -3.121548
     28          6           0       15.897842   -2.331631   -2.514753
     29          6           0       17.373010   -5.448986   -1.876974
     30          6           0       14.752400   -4.176265   -4.053729
     31          6           0       13.428059   -3.883051   -3.384966
     32          7           0       15.755434    0.523304   -1.662023
     33          6           0       15.862177    0.083695   -2.989435
     34          6           0       15.948197    1.286886   -3.837373
     35          6           0       15.901902    2.349533   -2.937106
     36          6           0       15.820260    1.841892   -1.608976
     37          6           0       16.111571    1.300419   -5.250724
     38          6           0       15.927240    3.795405   -2.786543
     39          8           0       15.893408    4.749096   -3.565532
     40          6           0       16.128671    4.135079   -1.243859
     41          6           0       15.117713    5.186055   -0.874101
     42          8           0       13.897030    4.926650   -0.871382
     43          8           0       15.751230    6.249767   -0.356688
     44          6           0       14.803166    7.317956    0.058402
     45          1           0       17.187392    0.069301    4.284875
     46          1           0       15.874256   -4.917133    0.771307
     47          1           0       15.894678   -1.354203   -4.400184
     48          1           0       17.141597    4.297067    1.727394
     49          1           0       16.946121    2.630783    3.992948
     50          1           0       19.060769    2.997096    1.904897
     51          1           0       19.010281    1.373693    2.658741
     52          1           0       19.254253    2.755244    3.689457
     53          1           0       14.755327    3.234555    3.253202
     54          1           0       14.440690    4.214236    1.765351
     55          1           0       16.264590    5.640996    3.416029
     56          1           0       15.243149    4.808699    4.525890
     57          1           0       16.524473   -1.312334    5.732108
     58          1           0       16.824803   -3.007500    5.779319
     59          1           0       15.142224   -2.447209    5.959089
     60          1           0       15.822129   -4.997451    5.552328
     61          1           0       14.563231   -6.256823    5.044750
     62          1           0       14.156266   -4.539426    5.305247
     63          1           0       15.284818   -5.304360   -1.678813
     64          1           0       16.799187   -3.805963   -3.759553
     65          1           0       17.181893   -6.521610   -1.836285
     66          1           0       18.051961   -5.142296   -1.081827
     67          1           0       17.979198   -5.263167   -2.763216
     68          1           0       14.785867   -5.248723   -4.242567
     69          1           0       14.769099   -3.668969   -5.018417
     70          1           0       13.275581   -4.757323   -2.753119
     71          1           0       12.636469   -3.797006   -4.130078
     72          1           0       13.496875   -3.014986   -2.729059
     73          1           0       15.428972    2.061089   -5.629417
     74          1           0       15.895961    0.323836   -5.683623
     75          1           0       17.164939    1.568817   -5.329673
     76          1           0       17.151454    4.493841   -1.132827
     77          1           0       15.102049    8.230578   -0.457373
     78          1           0       14.806337    7.328633    1.148485
     79          1           0       13.775133    7.212028   -0.289831
     80         12           0      -15.995953    0.213412    0.627983
     81          6           0      -15.227968   -0.504448   -2.803335
     82          6           0      -15.941658   -3.150765    1.188307
     83          6           0      -17.110704    0.781372    3.543834
     84          6           0      -17.099364    3.348805   -0.419633
     85          7           0      -15.620645   -1.504269   -0.714027
     86          6           0      -15.278371   -1.652135   -1.984982
     87          6           0      -14.894717   -3.102581   -2.383203
     88          6           0      -15.701493   -3.887742   -1.237992
     89          6           0      -15.730687   -2.797765   -0.168519
     90          6           0      -17.133901   -4.213895   -1.626790
     91          6           0      -13.350809   -3.362453   -2.279191
     92          6           0      -12.869788   -4.653873   -2.944461
     93          1           0      -11.562256   -4.656645   -3.594705
     94          7           0      -15.987822   -0.928622    2.251033
     95          6           0      -15.939334   -2.276498    2.297358
     96          6           0      -15.977454   -2.631648    3.724446
     97          6           0      -16.218532   -1.391056    4.510279
     98          6           0      -16.474694   -0.447216    3.440869
     99          6           0      -15.715475   -4.022748    4.224064
    100          6           0      -16.230759   -1.104681    5.981348
    101          8           0      -16.698084   -0.006956    6.449776
    102          6           0      -15.765727   -2.185038    6.863435
    103          7           0      -17.158695    1.744369    1.419525
    104          6           0      -17.456743    1.779169    2.730204
    105          6           0      -18.063769    3.106821    3.116515
    106          6           0      -17.888104    4.048436    1.835854
    107          6           0      -17.262714    3.030412    0.857117
    108          6           0      -19.536615    3.071568    3.523771
    109          6           0      -17.163863    5.405127    2.053862
    110          6           0      -15.710175    5.165562    2.392656
    111          7           0      -15.979972    1.329836   -1.221719
    112          6           0      -16.518301    2.615815   -1.446517
    113          6           0      -16.368444    2.904716   -2.887526
    114          6           0      -15.769464    1.748232   -3.409314
    115          6           0      -15.579178    0.797175   -2.370673
    116          6           0      -16.806191    4.086690   -3.548914
    117          6           0      -15.264581    1.111574   -4.604491
    118          8           0      -15.083524    1.467727   -5.768157
    119          6           0      -15.007049   -0.424715   -4.288412
    120          6           0      -13.644735   -0.785134   -4.814444
    121          8           0      -12.622101   -0.278181   -4.320669
    122          8           0      -13.760010   -1.824994   -5.660473
    123          6           0      -12.433577   -2.226431   -6.200143
    124          1           0      -16.172870   -4.189907    1.424132
    125          1           0      -17.415136    1.071689    4.552064
    126          1           0      -17.329306    4.343569   -0.807239
    127          1           0      -15.242253   -3.412044   -3.361584
    128          1           0      -15.145713   -4.752813   -0.885688
    129          1           0      -17.410074   -3.758396   -2.566149
    130          1           0      -17.750967   -3.830732   -0.824630
    131          1           0      -17.285598   -5.297083   -1.632645
    132          1           0      -13.094256   -3.582233   -1.234862
    133          1           0      -12.797256   -2.528927   -2.665783
    134          1           0      -13.629952   -5.083559   -3.608143
    135          1           0      -12.730585   -5.412140   -2.170078
    136          1           0      -15.732295   -4.753707    3.406245
    137          1           0      -16.566424   -4.301454    4.855000
    138          1           0      -14.799632   -4.092626    4.814834
    139          1           0      -16.378140   -3.069500    6.704935
    140          1           0      -15.763570   -1.760544    7.869255
    141          1           0      -14.743100   -2.454842    6.576963
    142          1           0      -17.532431    3.546628    3.951598
    143          1           0      -18.858674    4.340007    1.408291
    144          1           0      -19.719474    3.479236    4.535920
    145          1           0      -19.884880    2.049431    3.456884
    146          1           0      -20.214851    3.591338    2.849197
    147          1           0      -17.598155    5.933615    2.906066
    148          1           0      -17.224253    6.069378    1.198213
    149          1           0      -15.737154    4.965304    3.467949
    150          1           0      -15.114483    6.048639    2.170453
    151          1           0      -15.334601    4.262067    1.898416
    152          1           0      -16.011898    4.378612   -4.222997
    153          1           0      -17.036483    4.877798   -2.838358
    154          1           0      -17.702672    3.709970   -4.048577
    155          1           0      -15.798221   -0.996395   -4.775040
    156          1           0      -12.510300   -2.196516   -7.291433
    157          1           0      -12.206807   -3.205483   -5.737781
    158          1           0      -11.599057   -1.556717   -6.028365
 ---------------------------------------------------------------------

 SCF Done:  E(RCAM-B3LYP) =  -4069.81175578     A.U. after   19 cycles

 Excitation energies and oscillator strengths:

 Excited State   1:      Singlet-A      1.6753 eV  740.06 nm  f=0.2120  <S**2>=0.000
     310 -> 316       -0.16850
     311 -> 313        0.66622
     312 -> 314        0.16377
     310 <- 316       -0.10158
 This state for optimization and/or second-order correction.
 Total Energy, E(TD-HF/TD-DFT) =  -4069.75018858
 Copying the excited state density for this state as the 1-particle RhoCI density.

 Excited State   2:      Singlet-A      1.6801 eV  737.95 nm  f=0.5654  <S**2>=0.000
     309 -> 315        0.17051
     311 -> 313       -0.16372
     312 -> 314        0.66585
     309 <- 315        0.10208

 Excited State   3:      Singlet-A      2.1861 eV  567.16 nm  f=0.0964  <S**2>=0.000
     310 -> 313        0.64215
     311 -> 316        0.27294

 Excited State   4:      Singlet-A      2.1925 eV  565.50 nm  f=0.1040  <S**2>=0.000
     309 -> 314        0.64038
     312 -> 315       -0.27812

 Excited State   5:      Singlet-A      3.0608 eV  405.07 nm  f=0.0000  <S**2>=0.000
     312 -> 313        0.70711

 The electronic state is 1-A.
 Alpha  occ. eigenvalues --  -46.87763 -46.87660 -19.26340 -19.26243 -19.19152
 Alpha  occ. eigenvalues --  -19.18979 -19.18785 -19.18716 -19.18134 -19.18049
 Alpha  occ. eigenvalues --  -14.42497 -14.42417 -14.41417 -14.41359 -14.39370
 Alpha  occ. eigenvalues --  -14.39352 -14.38599 -14.38553 -10.39083 -10.39040
 Alpha  occ. eigenvalues --  -10.35419 -10.35393 -10.34354 -10.34226 -10.31744
 Alpha  occ. eigenvalues --  -10.31636 -10.31371 -10.31308 -10.31022 -10.30875
 Alpha  occ. eigenvalues --  -10.30536 -10.30474 -10.30398 -10.30360 -10.30176
 Alpha  occ. eigenvalues --  -10.30142 -10.29895 -10.29888 -10.29598 -10.29437
 Alpha  occ. eigenvalues --  -10.29401 -10.29222 -10.28716 -10.28713 -10.28646
 Alpha  occ. eigenvalues --  -10.28499 -10.28404 -10.28331 -10.28139 -10.28082
 Alpha  occ. eigenvalues --  -10.28001 -10.27760 -10.27694 -10.27669 -10.27552
 Alpha  occ. eigenvalues --  -10.27520 -10.27483 -10.27471 -10.27468 -10.27465
 Alpha  occ. eigenvalues --  -10.27450 -10.27420 -10.27378 -10.27370 -10.27122
 Alpha  occ. eigenvalues --  -10.27047 -10.26687 -10.26666 -10.26418 -10.26383
 Alpha  occ. eigenvalues --  -10.26202 -10.26153 -10.26139 -10.26025 -10.25987
 Alpha  occ. eigenvalues --  -10.25935 -10.25850 -10.25809 -10.25408 -10.25402
 Alpha  occ. eigenvalues --  -10.24872 -10.24799 -10.24755 -10.24731 -10.24690
 Alpha  occ. eigenvalues --  -10.24655  -3.16506  -3.16410  -1.91388  -1.91292
 Alpha  occ. eigenvalues --   -1.90974  -1.90881  -1.90816  -1.90718  -1.16634
 Alpha  occ. eigenvalues --   -1.16592  -1.08655  -1.08591  -1.07187  -1.06969
 Alpha  occ. eigenvalues --   -1.06937  -1.06602  -1.04547  -1.04495  -1.03728
 Alpha  occ. eigenvalues --   -1.03663  -1.03201  -1.03039  -1.02378  -1.02111
 Alpha  occ. eigenvalues --   -0.91986  -0.91938  -0.89495  -0.89488  -0.89153
 Alpha  occ. eigenvalues --   -0.89149  -0.88256  -0.88221  -0.87836  -0.87793
 Alpha  occ. eigenvalues --   -0.87683  -0.87639  -0.87242  -0.87121  -0.84998
 Alpha  occ. eigenvalues --   -0.84947  -0.83905  -0.83877  -0.82937  -0.82933
 Alpha  occ. eigenvalues --   -0.82651  -0.82615  -0.81592  -0.81549  -0.80562
 Alpha  occ. eigenvalues --   -0.80440  -0.78765  -0.78636  -0.77185  -0.77143
 Alpha  occ. eigenvalues --   -0.76899  -0.76896  -0.75888  -0.75836  -0.74866
 Alpha  occ. eigenvalues --   -0.74804  -0.72741  -0.72699  -0.71639  -0.71581
 Alpha  occ. eigenvalues --   -0.69876  -0.69759  -0.68839  -0.68825  -0.67608
 Alpha  occ. eigenvalues --   -0.67601  -0.67197  -0.67185  -0.65269  -0.65251
 Alpha  occ. eigenvalues --   -0.64819  -0.64769  -0.64651  -0.64586  -0.64237
 Alpha  occ. eigenvalues --   -0.64204  -0.62274  -0.62261  -0.60411  -0.60340
 Alpha  occ. eigenvalues --   -0.59795  -0.59770  -0.58992  -0.58954  -0.58470
 Alpha  occ. eigenvalues --   -0.58424  -0.57550  -0.57548  -0.57276  -0.57236
 Alpha  occ. eigenvalues --   -0.56276  -0.56203  -0.55941  -0.55881  -0.55488
 Alpha  occ. eigenvalues --   -0.55450  -0.55306  -0.55247  -0.54489  -0.54485
 Alpha  occ. eigenvalues --   -0.53910  -0.53860  -0.53266  -0.53227  -0.53188
 Alpha  occ. eigenvalues --   -0.53140  -0.52899  -0.52879  -0.52724  -0.52668
 Alpha  occ. eigenvalues --   -0.52406  -0.52402  -0.51884  -0.51881  -0.51656
 Alpha  occ. eigenvalues --   -0.51582  -0.51199  -0.51162  -0.50542  -0.50476
 Alpha  occ. eigenvalues --   -0.50000  -0.49980  -0.49887  -0.49869  -0.49487
 Alpha  occ. eigenvalues --   -0.49481  -0.49201  -0.49181  -0.49103  -0.49062
 Alpha  occ. eigenvalues --   -0.48558  -0.48556  -0.48430  -0.48412  -0.48376
 Alpha  occ. eigenvalues --   -0.48339  -0.47662  -0.47593  -0.47264  -0.47118
 Alpha  occ. eigenvalues --   -0.46764  -0.46708  -0.46552  -0.46520  -0.46326
 Alpha  occ. eigenvalues --   -0.46270  -0.46129  -0.46085  -0.45819  -0.45786
 Alpha  occ. eigenvalues --   -0.45210  -0.45170  -0.44543  -0.44512  -0.44475
 Alpha  occ. eigenvalues --   -0.44474  -0.44126  -0.44112  -0.44077  -0.44054
 Alpha  occ. eigenvalues --   -0.43985  -0.43938  -0.43549  -0.43459  -0.43384
 Alpha  occ. eigenvalues --   -0.43352  -0.42993  -0.42926  -0.42898  -0.42663
 Alpha  occ. eigenvalues --   -0.42620  -0.42554  -0.41976  -0.41963  -0.41670
 Alpha  occ. eigenvalues --   -0.41668  -0.41499  -0.41457  -0.41108  -0.40989
 Alpha  occ. eigenvalues --   -0.40835  -0.40792  -0.40722  -0.40697  -0.40539
 Alpha  occ. eigenvalues --   -0.40494  -0.40223  -0.40198  -0.39426  -0.39410
 Alpha  occ. eigenvalues --   -0.38437  -0.38351  -0.37712  -0.37650  -0.37288
 Alpha  occ. eigenvalues --   -0.37266  -0.37228  -0.37197  -0.36765  -0.36676
 Alpha  occ. eigenvalues --   -0.36215  -0.36157  -0.34253  -0.34253  -0.33855
 Alpha  occ. eigenvalues --   -0.33731  -0.33175  -0.33153  -0.31315  -0.31275
 Alpha  occ. eigenvalues --   -0.31002  -0.30973  -0.29993  -0.29953  -0.29417
 Alpha  occ. eigenvalues --   -0.29327  -0.29288  -0.29211  -0.24047  -0.24036
 Alpha  occ. eigenvalues --   -0.21117  -0.21095
 Alpha virt. eigenvalues --   -0.08792  -0.08741  -0.01717  -0.01684  -0.00029
 Alpha virt. eigenvalues --   -0.00026   0.02208   0.02234   0.03158   0.03230
 Alpha virt. eigenvalues --    0.04731   0.04752   0.05137   0.05172   0.06188

 Mulliken charges:
               1
     1  Mg   0.838810
     2  C   -0.002929
     3  C   -0.094116
     4  C   -0.045887
     5  C   -0.063989
     6  N   -0.256776
     7  C   -0.052456
     8  C   -0.014034
     9  C   -0.086983
    10  C    0.046332
    11  C    0.104820
    12  C    0.053465
    13  C   -0.071836
    14  H    0.036240
    15  N   -0.433136
    16  C    0.168421
    17  C   -0.177161
    18  C   -0.004032
    19  C    0.148714
    20  C    0.110186
    21  C    0.012276
    22  O   -0.249684
    23  C    0.062481
    24  N   -0.341138
    25  C    0.041242
    26  C   -0.028161
    27  C   -0.023984
    28  C    0.074852
    29  C    0.076197
    30  C    0.035143
    31  C   -0.004498
    32  N   -0.310499
    33  C    0.080446
    34  C   -0.169692
    35  C    0.008370
    36  C    0.083015
    37  C    0.127300
    38  C    0.046145
    39  O   -0.188380
    40  C   -0.005342
    41  C    0.212872
    42  O   -0.257028
    43  O   -0.304822
    44  C    0.157660
    45  H   -0.017627
    46  H   -0.016891
    47  H   -0.041496
    48  H    0.000938
    49  H   -0.004023
    50  H    0.025464
    51  H    0.016415
    52  H    0.016636
    53  H    0.011221
    54  H    0.044176
    55  H    0.017840
    56  H    0.017943
    57  H    0.005878
    58  H    0.026770
    59  H    0.039555
    60  H    0.037323
    61  H    0.035583
    62  H    0.031530
    63  H    0.016526
    64  H    0.009430
    65  H    0.023153
    66  H    0.012529
    67  H    0.004721
    68  H    0.006306
    69  H    0.004742
    70  H    0.008740
    71  H    0.018181
    72  H    0.029027
    73  H    0.047634
    74  H    0.009108
    75  H    0.045984
    76  H    0.035131
    77  H    0.042957
    78  H    0.046402
    79  H    0.053772
    80  Mg   0.837877
    81  C   -0.016785
    82  C   -0.087768
    83  C   -0.045516
    84  C   -0.064913
    85  N   -0.254551
    86  C   -0.049814
    87  C   -0.015109
    88  C   -0.090495
    89  C    0.045749
    90  C    0.114376
    91  C    0.062510
    92  C   -0.077938
    93  H    0.035040
    94  N   -0.423483
    95  C    0.162919
    96  C   -0.174625
    97  C   -0.007812
    98  C    0.152113
    99  C    0.099365
   100  C    0.015557
   101  O   -0.253200
   102  C    0.061199
   103  N   -0.350074
   104  C    0.037504
   105  C   -0.019814
   106  C   -0.034861
   107  C    0.088976
   108  C    0.073664
   109  C    0.034751
   110  C   -0.007686
   111  N   -0.324116
   112  C    0.078469
   113  C   -0.163120
   114  C    0.002274
   115  C    0.096190
   116  C    0.131476
   117  C    0.042405
   118  O   -0.187805
   119  C    0.000893
   120  C    0.211267
   121  O   -0.250941
   122  O   -0.305656
   123  C    0.151990
   124  H   -0.019665
   125  H   -0.015591
   126  H   -0.040452
   127  H   -0.000640
   128  H   -0.004299
   129  H    0.022454
   130  H    0.014392
   131  H    0.016284
   132  H    0.013931
   133  H    0.037732
   134  H    0.020764
   135  H    0.019592
   136  H    0.008775
   137  H    0.026119
   138  H    0.039813
   139  H    0.038239
   140  H    0.036372
   141  H    0.033921
   142  H    0.014403
   143  H    0.012398
   144  H    0.025123
   145  H    0.011619
   146  H    0.005655
   147  H    0.006242
   148  H    0.003666
   149  H    0.010919
   150  H    0.017981
   151  H    0.030129
   152  H    0.046077
   153  H    0.008519
   154  H    0.046917
   155  H    0.035011
   156  H    0.043946
   157  H    0.049499
   158  H    0.053675
 Sum of Mulliken charges =  -0.00000

 Dipole moment (field-independent basis, Debye):
    X=              0.8408    Y=             -4.6688    Z=              5.8844  Tot=              7.5585
 Quadrupole moment (field-independent basis, Debye-Ang):
   XX=           -411.2135   YY=           -487.0143   ZZ=           -513.8184
   XY=             37.8286   XZ=             42.0659   YZ=             36.8975

 Normal termination of Gaussian 16 at Sun Sep 12 13:41:55 2021.
