 Gaussian 16, Revision A.03,
 Gaussian 16:  ES64L-G16RevA.03 25-Dec-2016

 -----------------------------------
 #p cam-b3lyp/Def2SVP td=(nstates=5)
 -----------------------------------

 --------------------------------
 TDDFT excited states in gaussian
 --------------------------------
 Symbolic Z-matrix:
 Charge =  0 Multiplicity = 1

                         Standard orientation:
 ---------------------------------------------------------------------
 Center     Atomic      Atomic             Coordinates (Angstroms)
 Number     Number       Type             X           Y           Z
 ---------------------------------------------------------------------
      1         12           0        6.774423   -0.547356    0.600794
      2          6           0        7.081156    2.451256   -1.329609
      3          6           0        7.394835    1.348416    3.369223
      4          6           0        6.959015   -3.238241    2.268633
      5          6           0        7.306897   -2.325267   -2.348980
      6          7           0        7.170099    1.615411    0.858715
      7          6           0        7.201110    2.666294    0.045169
      8          6           0        7.297467    4.027288    0.797355
      9          6           0        7.951628    3.516731    2.158752
     10          6           0        7.447440    2.084387    2.148317
     11          6           0        9.476624    3.500845    2.133550
     12          6           0        5.891661    4.671388    1.043480
     13          6           0        5.912619    6.140655    1.474951
     14          1           0        4.855769    7.023635    1.005097
     15          7           0        6.642161   -0.860048    2.546965
     16          6           0        6.917353    0.029780    3.530712
     17          6           0        6.666544   -0.679544    4.803754
     18          6           0        6.406222   -2.110579    4.483651
     19          6           0        6.688193   -2.132411    3.071067
     20          6           0        6.641324    0.004895    6.135917
     21          6           0        5.982352   -3.276068    5.320372
     22          8           0        6.039025   -4.478656    4.890088
     23          6           0        5.577247   -2.977296    6.705892
     24          7           0        7.304972   -2.500754    0.090509
     25          6           0        7.244170   -3.489466    0.989250
     26          6           0        7.392596   -4.831370    0.335643
     27          6           0        7.324707   -4.566727   -1.237605
     28          6           0        7.225236   -3.021488   -1.212900
     29          6           0        8.679047   -5.599485    0.668893
     30          6           0        6.263428   -5.361424   -2.039204
     31          6           0        4.875955   -4.908134   -1.643544
     32          7           0        6.956711   -0.065288   -1.507624
     33          6           0        7.198839   -0.960743   -2.559388
     34          6           0        7.348465   -0.156193   -3.785920
     35          6           0        7.198484    1.161117   -3.356916
     36          6           0        6.995812    1.180022   -1.947356
     37          6           0        7.648351   -0.660665   -5.082072
     38          6           0        7.186846    2.558661   -3.757655
     39          8           0        7.214327    3.151484   -4.837145
     40          6           0        7.231984    3.457093   -2.443650
     41          6           0        6.173827    4.517560   -2.581568
     42          8           0        4.962799    4.216287   -2.584966
     43          8           0        6.737586    5.727991   -2.449001
     44          6           0        5.737342    6.824448   -2.546204
     45          1           0        7.810064    1.796616    4.274012
     46          1           0        6.921745   -4.198099    2.787980
     47          1           0        7.390523   -2.816331   -3.320224
     48          1           0        7.948404    4.762855    0.324442
     49          1           0        7.559035    4.050355    3.024106
     50          1           0        9.860935    3.720963    1.137671
     51          1           0        9.762275    2.493711    2.437819
     52          1           0        9.883560    4.169824    2.892264
     53          1           0        5.441598    4.224160    1.929759
     54          1           0        5.258209    4.563397    0.162342
     55          1           0        6.890725    6.591846    1.305707
     56          1           0        5.779046    6.181084    2.556026
     57          1           0        7.030775    1.020171    6.071984
     58          1           0        7.351082   -0.518467    6.776263
     59          1           0        5.650590   -0.017482    6.590096
     60          1           0        6.405927   -2.498265    7.227780
     61          1           0        5.221876   -3.918087    7.124789
     62          1           0        4.765172   -2.249878    6.687262
     63          1           0        6.579508   -5.497522    0.621221
     64          1           0        8.265952   -4.805171   -1.733464
     65          1           0        8.501371   -6.588348    1.092314
     66          1           0        9.272621   -4.985277    1.345435
     67          1           0        9.365661   -5.725918   -0.167763
     68          1           0        6.331574   -6.424067   -1.808784
     69          1           0        6.366116   -5.248862   -3.118572
     70          1           0        4.676168   -5.491459   -0.745408
     71          1           0        4.159390   -5.145390   -2.430599
     72          1           0        4.867289   -3.856189   -1.357496
     73          1           0        6.994236   -0.130849   -5.774458
     74          1           0        7.490906   -1.737754   -5.133958
     75          1           0        8.700157   -0.387861   -5.166559
     76          1           0        8.233480    3.882723   -2.389187
     77          1           0        6.070941    7.493877   -3.339179
     78          1           0        5.634272    7.239649   -1.543513
     79          1           0        4.749817    6.544767   -2.914865
     80         12           0       -6.404205   -0.774124   -0.460685
     81          6           0       -8.900811    1.587045    0.574148
     82          6           0       -4.561135    1.879810   -1.553553
     83          6           0       -4.395492   -2.842005   -1.785976
     84          6           0       -8.876079   -3.228136   -0.345092
     85          7           0       -6.787986    1.404037   -0.436557
     86          6           0       -7.743471    2.189072    0.037900
     87          6           0       -7.406760    3.704033    0.004890
     88          6           0       -6.320168    3.683151   -1.177376
     89          6           0       -5.827716    2.244801   -1.031381
     90          6           0       -6.931652    3.840667   -2.559619
     91          6           0       -6.779658    4.206468    1.352602
     92          6           0       -6.712191    5.727867    1.502737
     93          1           0       -6.912527    6.305987    2.828676
     94          7           0       -4.529746   -0.535129   -1.067205
     95          6           0       -3.939465    0.615876   -1.451952
     96          6           0       -2.562203    0.256893   -1.824031
     97          6           0       -2.436846   -1.225475   -1.784464
     98          6           0       -3.818363   -1.600934   -1.559635
     99          6           0       -1.498881    1.281562   -2.093899
    100          6           0       -1.269120   -2.152318   -1.937985
    101          8           0       -1.427642   -3.413187   -2.105035
    102          6           0        0.061619   -1.528774   -1.980523
    103          7           0       -6.647793   -2.704248   -1.193917
    104          6           0       -5.600225   -3.400745   -1.668703
    105          6           0       -5.961115   -4.851558   -1.881482
    106          6           0       -7.405218   -5.036573   -1.219714
    107          6           0       -7.679871   -3.576044   -0.799210
    108          6           0       -6.004266   -5.319949   -3.335833
    109          6           0       -7.551452   -6.153582   -0.150348
    110          6           0       -6.752612   -5.795835    1.082237
    111          7           0       -8.459721   -0.881581    0.196110
    112          6           0       -9.318628   -2.000553    0.130912
    113          6           0      -10.650365   -1.554444    0.589031
    114          6           0      -10.478174   -0.190528    0.869340
    115          6           0       -9.139138    0.191402    0.585420
    116          6           0      -11.821087   -2.361464    0.654220
    117          6           0      -11.127420    1.015400    1.330769
    118          8           0      -12.234884    1.282421    1.795476
    119          6           0      -10.167923    2.248799    1.040134
    120          6           0      -10.102118    3.089659    2.285585
    121          8           0       -9.585730    2.641344    3.324316
    122          8           0      -10.459822    4.351380    1.984803
    123          6           0      -10.399667    5.226298    3.185939
    124          1           0       -4.006552    2.618267   -2.133206
    125          1           0       -3.715577   -3.620868   -2.138892
    126          1           0       -9.674894   -3.955902   -0.187231
    127          1           0       -8.235769    4.347891   -0.263361
    128          1           0       -5.512424    4.384214   -0.983900
    129          1           0       -8.010890    3.822113   -2.527233
    130          1           0       -6.556352    3.010542   -3.143657
    131          1           0       -6.548380    4.745182   -3.040539
    132          1           0       -5.708000    3.969302    1.359232
    133          1           0       -7.293767    3.782832    2.193345
    134          1           0       -7.334156    6.243268    0.760798
    135          1           0       -5.695018    6.054464    1.273125
    136          1           0       -1.927216    2.284782   -2.210029
    137          1           0       -1.075410    1.051504   -3.077564
    138          1           0       -0.698232    1.263331   -1.351408
    139          1           0        0.103322   -0.822656   -2.806432
    140          1           0        0.772020   -2.357423   -2.003907
    141          1           0        0.205414   -0.948128   -1.062489
    142          1           0       -5.257612   -5.502970   -1.377652
    143          1           0       -8.166831   -5.296193   -1.969626
    144          1           0       -5.333530   -6.176109   -3.538729
    145          1           0       -5.753706   -4.481496   -3.972033
    146          1           0       -6.990485   -5.600794   -3.701486
    147          1           0       -7.138986   -7.093403   -0.525541
    148          1           0       -8.580098   -6.345052    0.136383
    149          1           0       -5.741164   -6.124006    0.824639
    150          1           0       -7.131021   -6.328980    1.952069
    151          1           0       -6.719633   -4.709921    1.228390
    152          1           0      -12.303387   -2.134903    1.595793
    153          1           0      -11.579657   -3.419379    0.574744
    154          1           0      -12.359048   -1.996057   -0.224605
    155          1           0      -10.587408    2.798561    0.196708
    156          1           0      -11.386393    5.686774    3.295531
    157          1           0       -9.542691    5.905425    3.018245
    158          1           0      -10.282066    4.746160    4.150350
 ---------------------------------------------------------------------

 SCF Done:  E(RCAM-B3LYP) =  -4069.81234133     A.U. after   19 cycles

 Excitation energies and oscillator strengths:

 Excited State   1:      Singlet-A      1.6687 eV  743.01 nm  f=0.2611  <S**2>=0.000
     309 -> 315        0.10918
     310 -> 316        0.13383
     311 -> 313       -0.43217
     312 -> 314        0.53327
 This state for optimization and/or second-order correction.
 Total Energy, E(TD-HF/TD-DFT) =  -4069.75101903
 Copying the excited state density for this state as the 1-particle RhoCI density.

 Excited State   2:      Singlet-A      1.6859 eV  735.41 nm  f=0.5190  <S**2>=0.000
     309 -> 315       -0.13785
     310 -> 316        0.11093
     311 -> 313        0.53244
     312 -> 314        0.43167

 Excited State   3:      Singlet-A      2.1873 eV  566.83 nm  f=0.0319  <S**2>=0.000
     309 -> 313       -0.23672
     310 -> 314        0.59761
     311 -> 315       -0.10012
     312 -> 316       -0.25440

 Excited State   4:      Singlet-A      2.1950 eV  564.85 nm  f=0.1555  <S**2>=0.000
     309 -> 313        0.59545
     310 -> 314        0.23502
     311 -> 315        0.26020
     312 -> 316       -0.10255

 Excited State   5:      Singlet-A      2.6139 eV  474.33 nm  f=0.0000  <S**2>=0.000
     312 -> 313        0.70693

 The electronic state is 1-A.
 Alpha  occ. eigenvalues --  -46.87932 -46.87514 -19.26530 -19.26268 -19.19282
 Alpha  occ. eigenvalues --  -19.19072 -19.18892 -19.18514 -19.18330 -19.17919
 Alpha  occ. eigenvalues --  -14.42586 -14.42352 -14.41564 -14.41215 -14.39530
 Alpha  occ. eigenvalues --  -14.39198 -14.38729 -14.38454 -10.39329 -10.38998
 Alpha  occ. eigenvalues --  -10.35522 -10.35182 -10.34554 -10.34100 -10.31937
 Alpha  occ. eigenvalues --  -10.31694 -10.31550 -10.31170 -10.31049 -10.30865
 Alpha  occ. eigenvalues --  -10.30707 -10.30631 -10.30297 -10.30255 -10.30210
 Alpha  occ. eigenvalues --  -10.30030 -10.29983 -10.29767 -10.29753 -10.29369
 Alpha  occ. eigenvalues --  -10.29268 -10.29229 -10.28918 -10.28752 -10.28593
 Alpha  occ. eigenvalues --  -10.28575 -10.28504 -10.28267 -10.28247 -10.28003
 Alpha  occ. eigenvalues --  -10.27921 -10.27854 -10.27841 -10.27702 -10.27576
 Alpha  occ. eigenvalues --  -10.27544 -10.27539 -10.27510 -10.27495 -10.27396
 Alpha  occ. eigenvalues --  -10.27340 -10.27337 -10.27286 -10.27258 -10.27108
 Alpha  occ. eigenvalues --  -10.26930 -10.26920 -10.26590 -10.26458 -10.26365
 Alpha  occ. eigenvalues --  -10.26164 -10.26126 -10.26123 -10.26032 -10.25963
 Alpha  occ. eigenvalues --  -10.25884 -10.25788 -10.25731 -10.25474 -10.25289
 Alpha  occ. eigenvalues --  -10.24970 -10.24900 -10.24720 -10.24630 -10.24622
 Alpha  occ. eigenvalues --  -10.24547  -3.16677  -3.16264  -1.91559  -1.91147
 Alpha  occ. eigenvalues --   -1.91144  -1.90987  -1.90735  -1.90572  -1.16880
 Alpha  occ. eigenvalues --   -1.16560  -1.08797  -1.08533  -1.07289  -1.06899
 Alpha  occ. eigenvalues --   -1.06856  -1.06767  -1.04719  -1.04348  -1.03879
 Alpha  occ. eigenvalues --   -1.03516  -1.03360  -1.02891  -1.02536  -1.01963
 Alpha  occ. eigenvalues --   -0.92119  -0.91847  -0.89597  -0.89360  -0.89344
 Alpha  occ. eigenvalues --   -0.89021  -0.88356  -0.88092  -0.88000  -0.87804
 Alpha  occ. eigenvalues --   -0.87653  -0.87538  -0.87377  -0.86890  -0.85131
 Alpha  occ. eigenvalues --   -0.84864  -0.83998  -0.83755  -0.83038  -0.82782
 Alpha  occ. eigenvalues --   -0.82726  -0.82484  -0.81758  -0.81480  -0.80737
 Alpha  occ. eigenvalues --   -0.80303  -0.78910  -0.78438  -0.77332  -0.77076
 Alpha  occ. eigenvalues --   -0.76992  -0.76780  -0.76073  -0.75696  -0.74982
 Alpha  occ. eigenvalues --   -0.74672  -0.72893  -0.72549  -0.71794  -0.71443
 Alpha  occ. eigenvalues --   -0.69938  -0.69636  -0.69012  -0.68684  -0.67769
 Alpha  occ. eigenvalues --   -0.67455  -0.67370  -0.67047  -0.65441  -0.65142
 Alpha  occ. eigenvalues --   -0.64995  -0.64750  -0.64634  -0.64524  -0.64349
 Alpha  occ. eigenvalues --   -0.64074  -0.62475  -0.62166  -0.60540  -0.60145
 Alpha  occ. eigenvalues --   -0.59951  -0.59657  -0.59112  -0.58854  -0.58632
 Alpha  occ. eigenvalues --   -0.58283  -0.57764  -0.57434  -0.57415  -0.57084
 Alpha  occ. eigenvalues --   -0.56441  -0.56171  -0.56043  -0.55766  -0.55637
 Alpha  occ. eigenvalues --   -0.55448  -0.55280  -0.55127  -0.54650  -0.54376
 Alpha  occ. eigenvalues --   -0.54054  -0.53781  -0.53409  -0.53358  -0.53078
 Alpha  occ. eigenvalues --   -0.53070  -0.52983  -0.52865  -0.52769  -0.52459
 Alpha  occ. eigenvalues --   -0.52440  -0.52282  -0.52045  -0.51766  -0.51756
 Alpha  occ. eigenvalues --   -0.51499  -0.51325  -0.51069  -0.50651  -0.50227
 Alpha  occ. eigenvalues --   -0.50100  -0.50012  -0.49799  -0.49714  -0.49645
 Alpha  occ. eigenvalues --   -0.49353  -0.49314  -0.49240  -0.49037  -0.48972
 Alpha  occ. eigenvalues --   -0.48750  -0.48568  -0.48538  -0.48424  -0.48252
 Alpha  occ. eigenvalues --   -0.48141  -0.47812  -0.47430  -0.47410  -0.46931
 Alpha  occ. eigenvalues --   -0.46909  -0.46709  -0.46571  -0.46481  -0.46413
 Alpha  occ. eigenvalues --   -0.46284  -0.46109  -0.45979  -0.45954  -0.45705
 Alpha  occ. eigenvalues --   -0.45276  -0.45077  -0.44726  -0.44611  -0.44383
 Alpha  occ. eigenvalues --   -0.44333  -0.44259  -0.44204  -0.44145  -0.43988
 Alpha  occ. eigenvalues --   -0.43929  -0.43745  -0.43656  -0.43508  -0.43442
 Alpha  occ. eigenvalues --   -0.43249  -0.43152  -0.42904  -0.42819  -0.42765
 Alpha  occ. eigenvalues --   -0.42714  -0.42407  -0.42099  -0.41842  -0.41834
 Alpha  occ. eigenvalues --   -0.41673  -0.41533  -0.41329  -0.41266  -0.40995
 Alpha  occ. eigenvalues --   -0.40919  -0.40850  -0.40643  -0.40583  -0.40526
 Alpha  occ. eigenvalues --   -0.40407  -0.40370  -0.40092  -0.39457  -0.39308
 Alpha  occ. eigenvalues --   -0.38550  -0.38227  -0.37919  -0.37537  -0.37420
 Alpha  occ. eigenvalues --   -0.37409  -0.37134  -0.37057  -0.36912  -0.36675
 Alpha  occ. eigenvalues --   -0.36329  -0.36095  -0.34418  -0.34111  -0.34012
 Alpha  occ. eigenvalues --   -0.33762  -0.33320  -0.33030  -0.31423  -0.31161
 Alpha  occ. eigenvalues --   -0.31079  -0.30825  -0.30194  -0.29828  -0.29571
 Alpha  occ. eigenvalues --   -0.29458  -0.29154  -0.29057  -0.24212  -0.23892
 Alpha  occ. eigenvalues --   -0.21251  -0.20964
 Alpha virt. eigenvalues --   -0.08898  -0.08632  -0.01867  -0.01535  -0.00173
 Alpha virt. eigenvalues --    0.00152   0.02064   0.02347   0.02864   0.03349
 Alpha virt. eigenvalues --    0.04573   0.04861   0.04863   0.05263   0.05991

 Mulliken charges:
               1
     1  Mg   0.836825
     2  C   -0.003986
     3  C   -0.094310
     4  C   -0.045348
     5  C   -0.063534
     6  N   -0.256882
     7  C   -0.052921
     8  C   -0.013849
     9  C   -0.086962
    10  C    0.046103
    11  C    0.104719
    12  C    0.053496
    13  C   -0.071610
    14  H    0.034931
    15  N   -0.433342
    16  C    0.168378
    17  C   -0.177047
    18  C   -0.003656
    19  C    0.148673
    20  C    0.110093
    21  C    0.012659
    22  O   -0.248770
    23  C    0.062347
    24  N   -0.341188
    25  C    0.041386
    26  C   -0.028319
    27  C   -0.024072
    28  C    0.074831
    29  C    0.076055
    30  C    0.034884
    31  C   -0.005082
    32  N   -0.310246
    33  C    0.079690
    34  C   -0.170053
    35  C    0.008063
    36  C    0.081965
    37  C    0.127444
    38  C    0.045290
    39  O   -0.188916
    40  C   -0.004989
    41  C    0.213241
    42  O   -0.259374
    43  O   -0.304207
    44  C    0.157962
    45  H   -0.017310
    46  H   -0.016063
    47  H   -0.040944
    48  H    0.001018
    49  H   -0.003988
    50  H    0.025565
    51  H    0.016787
    52  H    0.016950
    53  H    0.010966
    54  H    0.042558
    55  H    0.018457
    56  H    0.018404
    57  H    0.005873
    58  H    0.027296
    59  H    0.039929
    60  H    0.037379
    61  H    0.036408
    62  H    0.031644
    63  H    0.017498
    64  H    0.009532
    65  H    0.023759
    66  H    0.012349
    67  H    0.004947
    68  H    0.007095
    69  H    0.004752
    70  H    0.010022
    71  H    0.021444
    72  H    0.026663
    73  H    0.046951
    74  H    0.009688
    75  H    0.046242
    76  H    0.035515
    77  H    0.043360
    78  H    0.046614
    79  H    0.052268
    80  Mg   0.837193
    81  C   -0.016900
    82  C   -0.087534
    83  C   -0.045540
    84  C   -0.064980
    85  N   -0.254502
    86  C   -0.050284
    87  C   -0.015035
    88  C   -0.090464
    89  C    0.045529
    90  C    0.114310
    91  C    0.062556
    92  C   -0.077599
    93  H    0.033928
    94  N   -0.423582
    95  C    0.162689
    96  C   -0.174216
    97  C   -0.007644
    98  C    0.152198
    99  C    0.099181
   100  C    0.015295
   101  O   -0.254083
   102  C    0.061054
   103  N   -0.349982
   104  C    0.037677
   105  C   -0.019844
   106  C   -0.034640
   107  C    0.088600
   108  C    0.073736
   109  C    0.034852
   110  C   -0.007614
   111  N   -0.323932
   112  C    0.077964
   113  C   -0.163582
   114  C    0.002020
   115  C    0.095828
   116  C    0.131578
   117  C    0.042038
   118  O   -0.188653
   119  C    0.001001
   120  C    0.211189
   121  O   -0.251305
   122  O   -0.305582
   123  C    0.152189
   124  H   -0.018533
   125  H   -0.015733
   126  H   -0.040927
   127  H   -0.000931
   128  H   -0.004112
   129  H    0.022189
   130  H    0.014764
   131  H    0.016493
   132  H    0.013908
   133  H    0.037361
   134  H    0.020789
   135  H    0.019616
   136  H    0.009494
   137  H    0.029071
   138  H    0.042165
   139  H    0.041709
   140  H    0.035876
   141  H    0.033720
   142  H    0.014238
   143  H    0.012129
   144  H    0.024813
   145  H    0.011856
   146  H    0.005472
   147  H    0.005934
   148  H    0.003395
   149  H    0.010912
   150  H    0.017578
   151  H    0.030218
   152  H    0.045531
   153  H    0.008194
   154  H    0.046595
   155  H    0.034814
   156  H    0.043647
   157  H    0.049380
   158  H    0.053267
 Sum of Mulliken charges =  -0.00000

 Dipole moment (field-independent basis, Debye):
    X=              4.8842    Y=              2.8907    Z=              1.5569  Tot=              5.8852
 Quadrupole moment (field-independent basis, Debye-Ang):
   XX=           -546.2479   YY=           -467.9010   ZZ=           -517.2881
   XY=             13.4273   XZ=             55.8839   YZ=             30.8557

 Normal termination of Gaussian 16 at Sat Sep 11 03:46:10 2021.
