 Gaussian 16, Revision A.03,
 Gaussian 16:  ES64L-G16RevA.03 25-Dec-2016

 -----------------------------------
 #p cam-b3lyp/Def2SVP td=(nstates=5)
 -----------------------------------

 --------------------------------
 TDDFT excited states in gaussian
 --------------------------------
 Symbolic Z-matrix:
 Charge =  0 Multiplicity = 1

                         Standard orientation:
 ---------------------------------------------------------------------
 Center     Atomic      Atomic             Coordinates (Angstroms)
 Number     Number       Type             X           Y           Z
 ---------------------------------------------------------------------
      1         12           0      -15.730128   -0.818833    0.131993
      2          6           0      -15.943440    2.750677    0.291072
      3          6           0      -16.616589   -0.576653   -3.154130
      4          6           0      -15.991620   -3.978857    0.082084
      5          6           0      -15.980138   -0.841240    3.608004
      6          7           0      -16.192933    0.922222   -1.154546
      7          6           0      -16.180258    2.240975   -0.987507
      8          6           0      -16.367712    3.033775   -2.315552
      9          6           0      -17.119805    1.918010   -3.170784
     10          6           0      -16.585165    0.678059   -2.476086
     11          6           0      -18.636900    1.951806   -3.016562
     12          6           0      -15.001248    3.431703   -2.968362
     13          6           0      -15.089686    4.478804   -4.082414
     14          1           0      -14.017529    5.453772   -4.213814
     15          7           0      -15.750855   -2.078808   -1.389482
     16          6           0      -16.125131   -1.805298   -2.662430
     17          6           0      -15.963918   -3.068023   -3.414903
     18          6           0      -15.646936   -4.144152   -2.435331
     19          6           0      -15.811737   -3.439701   -1.189552
     20          6           0      -16.062888   -3.155074   -4.907008
     21          6           0      -15.267549   -5.582321   -2.596169
     22          8           0      -15.262409   -6.398549   -1.612136
     23          6           0      -14.983915   -6.037293   -3.969338
     24          7           0      -16.174140   -2.230408    1.604387
     25          6           0      -16.165471   -3.539521    1.330285
     26          6           0      -16.230410   -4.360334    2.584075
     27          6           0      -16.039736   -3.335548    3.793707
     28          6           0      -15.976535   -2.019326    2.980176
     29          6           0      -17.522674   -5.161815    2.793106
     30          6           0      -14.899206   -3.637431    4.797937
     31          6           0      -13.559071   -3.479327    4.115194
     32          7           0      -15.749675    0.670510    1.710765
     33          6           0      -15.885164    0.438437    3.087158
     34          6           0      -15.951456    1.757283    3.743146
     35          6           0      -15.866036    2.670856    2.694369
     36          6           0      -15.779936    1.967222    1.459145
     37          6           0      -16.133057    1.987326    5.135459
     38          6           0      -15.852273    4.077756    2.327900
     39          8           0      -15.804257    5.136828    2.955237
     40          6           0      -16.024555    4.185847    0.748513
     41          6           0      -14.982171    5.145220    0.242206
     42          8           0      -13.768617    4.859889    0.299118
     43          8           0      -15.581302    6.133399   -0.439765
     44          6           0      -14.600746    7.104428   -0.994532
     45          1           0      -17.114245   -0.640294   -4.123784
     46          1           0      -15.975963   -5.070050    0.120693
     47          1           0      -15.973159   -0.769447    4.697155
     48          1           0      -16.993711    3.922166   -2.230046
     49          1           0      -16.811192    1.929587   -4.215938
     50          1           0      -18.943102    2.655529   -2.242654
     51          1           0      -18.924351    0.936382   -2.743102
     52          1           0      -19.119173    2.152276   -3.973642
     53          1           0      -14.615574    2.586477   -3.538370
     54          1           0      -14.295552    3.771424   -2.209475
     55          1           0      -16.060307    4.975581   -4.086345
     56          1           0      -15.046010    3.961977   -5.041154
     57          1           0      -16.467968   -2.239243   -5.335621
     58          1           0      -16.811052   -3.914693   -5.132706
     59          1           0      -15.112423   -3.427368   -5.366143
     60          1           0      -15.862855   -5.870662   -4.592433
     61          1           0      -14.643494   -7.068322   -3.880221
     62          1           0      -14.189191   -5.419735   -4.388845
     63          1           0      -15.429025   -5.097555    2.610788
     64          1           0      -16.931758   -3.267892    4.416920
     65          1           0      -17.358625   -6.232507    2.917251
     66          1           0      -18.182983   -4.962578    1.949549
     67          1           0      -18.135530   -4.830525    3.631002
     68          1           0      -14.962672   -4.668140    5.145151
     69          1           0      -14.915604   -2.990391    5.675047
     70          1           0      -13.420758   -4.442107    3.624525
     71          1           0      -12.775430   -3.300587    4.852196
     72          1           0      -13.596930   -2.718572    3.335256
     73          1           0      -15.436218    2.780178    5.407063
     74          1           0      -15.948309    1.082303    5.713736
     75          1           0      -17.180141    2.289112    5.155377
     76          1           0      -17.036241    4.547615    0.567575
     77          1           0      -14.882888    8.091053   -0.626836
     78          1           0      -14.589262    6.950890   -2.073744
     79          1           0      -13.580453    7.028139   -0.617013
     80         12           0       16.025899   -0.714529    0.022606
     81          6           0       15.325961    2.798641    0.238824
     82          6           0       14.707138   -0.631734   -3.122008
     83          6           0       16.213551   -3.881423   -0.032159
     84          6           0       16.215136   -0.749647    3.502356
     85          7           0       15.161321    0.930771   -1.176448
     86          6           0       15.004294    2.235856   -1.013867
     87          6           0       14.548334    2.992736   -2.290113
     88          6           0       13.853539    1.767304   -3.061118
     89          6           0       14.642274    0.612959   -2.446257
     90          6           0       12.387116    1.586538   -2.705812
     91          6           0       15.757263    3.572765   -3.105031
     92          6           0       15.376160    4.582412   -4.189997
     93          1           0       16.279785    5.699883   -4.449211
     94          7           0       15.994731   -1.976598   -1.508663
     95          6           0       15.435937   -1.772616   -2.720033
     96          6           0       15.665793   -3.009494   -3.482564
     97          6           0       16.260986   -4.020952   -2.567455
     98          6           0       16.158016   -3.323751   -1.301204
     99          6           0       15.401083   -3.118000   -4.956184
    100          6           0       16.817517   -5.394192   -2.792545
    101          8           0       17.063576   -6.189139   -1.817691
    102          6           0       16.978166   -5.815187   -4.191994
    103          7           0       15.981054   -2.155744    1.520356
    104          6           0       16.135547   -3.459499    1.230067
    105          6           0       16.344565   -4.276251    2.482911
    106          6           0       16.540469   -3.212921    3.661274
    107          6           0       16.311960   -1.908841    2.865931
    108          6           0       15.212745   -5.236714    2.847431
    109          6           0       17.830501   -3.340393    4.516983
    110          6           0       19.042571   -3.011300    3.675574
    111          7           0       15.998419    0.765088    1.596781
    112          6           0       16.064808    0.531819    2.987911
    113          6           0       15.894496    1.837873    3.656984
    114          6           0       15.716418    2.744250    2.600934
    115          6           0       15.751661    2.049011    1.362020
    116          6           0       15.868484    2.054898    5.063517
    117          6           0       15.496026    4.129550    2.252971
    118          8           0       15.464795    5.188148    2.879172
    119          6           0       15.107064    4.208272    0.713845
    120          6           0       15.930826    5.296519    0.081654
    121          8           0       17.166609    5.185623   -0.002815
    122          8           0       15.109887    6.183002   -0.510447
    123          6           0       15.880809    7.275725   -1.161187
    124          1           0       14.110200   -0.763647   -4.024862
    125          1           0       16.389187   -4.959138    0.001989
    126          1           0       16.359653   -0.662213    4.581311
    127          1           0       13.825445    3.780898   -2.116929
    128          1           0       14.031134    1.822750   -4.131982
    129          1           0       12.083749    2.240647   -1.901911
    130          1           0       12.281368    0.550677   -2.411094
    131          1           0       11.765189    1.711355   -3.596855
    132          1           0       16.182536    2.776947   -3.729985
    133          1           0       16.486548    4.005936   -2.448428
    134          1           0       14.345495    4.939937   -4.076637
    135          1           0       15.377824    4.071199   -5.155740
    136          1           0       14.811733   -2.268427   -5.322645
    137          1           0       14.747028   -3.984725   -5.100609
    138          1           0       16.313548   -3.262894   -5.538499
    139          1           0       16.014532   -5.774611   -4.694217
    140          1           0       17.471559   -6.788148   -4.149662
    141          1           0       17.629018   -5.095702   -4.701256
    142          1           0       17.238573   -4.882657    2.404562
    143          1           0       15.731351   -3.273975    4.403866
    144          1           0       15.545015   -6.288006    2.939338
    145          1           0       14.435433   -5.147532    2.100180
    146          1           0       14.679610   -4.995032    3.765336
    147          1           0       17.959177   -4.370947    4.856907
    148          1           0       17.828118   -2.708357    5.398754
    149          1           0       19.247864   -3.953844    3.159284
    150          1           0       19.878569   -2.716787    4.306777
    151          1           0       18.800188   -2.263151    2.911921
    152          1           0       16.468194    2.935014    5.253886
    153          1           0       16.245893    1.190693    5.606190
    154          1           0       14.796121    2.200721    5.218563
    155          1           0       14.038295    4.418032    0.656349
    156          1           0       15.506192    8.218848   -0.751479
    157          1           0       15.762953    7.117264   -2.249652
    158          1           0       16.937156    7.349812   -0.930792
 ---------------------------------------------------------------------

 SCF Done:  E(RCAM-B3LYP) =  -4069.81176505     A.U. after   19 cycles

 Excitation energies and oscillator strengths:

 Excited State   1:      Singlet-A      1.6753 eV  740.07 nm  f=0.2102  <S**2>=0.000
     310 -> 316        0.16847
     311 -> 314       -0.16432
     312 -> 313        0.66609
     310 <- 316        0.10157
 This state for optimization and/or second-order correction.
 Total Energy, E(TD-HF/TD-DFT) =  -4069.75019873
 Copying the excited state density for this state as the 1-particle RhoCI density.

 Excited State   2:      Singlet-A      1.6801 eV  737.95 nm  f=0.5671  <S**2>=0.000
     309 -> 315        0.17050
     311 -> 314        0.66572
     312 -> 313        0.16427
     309 <- 315        0.10208

 Excited State   3:      Singlet-A      2.1861 eV  567.16 nm  f=0.0954  <S**2>=0.000
     310 -> 313        0.64211
     312 -> 316       -0.27294

 Excited State   4:      Singlet-A      2.1925 eV  565.49 nm  f=0.1048  <S**2>=0.000
     309 -> 314        0.64034
     311 -> 315       -0.27814

 Excited State   5:      Singlet-A      3.0660 eV  404.39 nm  f=0.0000  <S**2>=0.000
     312 -> 314        0.70711

 The electronic state is 1-A.
 Alpha  occ. eigenvalues --  -46.87800 -46.87660 -19.26346 -19.26286 -19.19159
 Alpha  occ. eigenvalues --  -19.19022 -19.18820 -19.18715 -19.18171 -19.18049
 Alpha  occ. eigenvalues --  -14.42497 -14.42453 -14.41452 -14.41359 -14.39406
 Alpha  occ. eigenvalues --  -14.39352 -14.38599 -14.38590 -10.39088 -10.39082
 Alpha  occ. eigenvalues --  -10.35453 -10.35393 -10.34391 -10.34226 -10.31753
 Alpha  occ. eigenvalues --  -10.31681 -10.31408 -10.31308 -10.31023 -10.30912
 Alpha  occ. eigenvalues --  -10.30573 -10.30510 -10.30397 -10.30360 -10.30210
 Alpha  occ. eigenvalues --  -10.30141 -10.29923 -10.29894 -10.29634 -10.29437
 Alpha  occ. eigenvalues --  -10.29401 -10.29258 -10.28753 -10.28718 -10.28653
 Alpha  occ. eigenvalues --  -10.28544 -10.28404 -10.28368 -10.28139 -10.28120
 Alpha  occ. eigenvalues --  -10.28000 -10.27796 -10.27730 -10.27669 -10.27588
 Alpha  occ. eigenvalues --  -10.27518 -10.27503 -10.27487 -10.27483 -10.27468
 Alpha  occ. eigenvalues --  -10.27465 -10.27452 -10.27407 -10.27376 -10.27160
 Alpha  occ. eigenvalues --  -10.27048 -10.26709 -10.26692 -10.26417 -10.26416
 Alpha  occ. eigenvalues --  -10.26237 -10.26186 -10.26138 -10.26022 -10.26022
 Alpha  occ. eigenvalues --  -10.25934 -10.25849 -10.25844 -10.25438 -10.25397
 Alpha  occ. eigenvalues --  -10.24872 -10.24835 -10.24791 -10.24732 -10.24690
 Alpha  occ. eigenvalues --  -10.24689  -3.16543  -3.16410  -1.91424  -1.91292
 Alpha  occ. eigenvalues --   -1.91011  -1.90881  -1.90853  -1.90718  -1.16640
 Alpha  occ. eigenvalues --   -1.16635  -1.08656  -1.08629  -1.07221  -1.06968
 Alpha  occ. eigenvalues --   -1.06943  -1.06644  -1.04584  -1.04495  -1.03764
 Alpha  occ. eigenvalues --   -1.03663  -1.03237  -1.03039  -1.02414  -1.02111
 Alpha  occ. eigenvalues --   -0.91986  -0.91975  -0.89522  -0.89494  -0.89191
 Alpha  occ. eigenvalues --   -0.89150  -0.88289  -0.88220  -0.87873  -0.87793
 Alpha  occ. eigenvalues --   -0.87683  -0.87676  -0.87278  -0.87121  -0.84999
 Alpha  occ. eigenvalues --   -0.84986  -0.83939  -0.83876  -0.82972  -0.82932
 Alpha  occ. eigenvalues --   -0.82652  -0.82652  -0.81595  -0.81588  -0.80599
 Alpha  occ. eigenvalues --   -0.80442  -0.78801  -0.78636  -0.77222  -0.77144
 Alpha  occ. eigenvalues --   -0.76937  -0.76897  -0.75926  -0.75837  -0.74901
 Alpha  occ. eigenvalues --   -0.74802  -0.72777  -0.72699  -0.71675  -0.71580
 Alpha  occ. eigenvalues --   -0.69909  -0.69758  -0.68877  -0.68826  -0.67644
 Alpha  occ. eigenvalues --   -0.67601  -0.67224  -0.67200  -0.65290  -0.65271
 Alpha  occ. eigenvalues --   -0.64856  -0.64770  -0.64653  -0.64624  -0.64272
 Alpha  occ. eigenvalues --   -0.64204  -0.62300  -0.62277  -0.60446  -0.60340
 Alpha  occ. eigenvalues --   -0.59808  -0.59795  -0.58992  -0.58990  -0.58507
 Alpha  occ. eigenvalues --   -0.58425  -0.57587  -0.57553  -0.57312  -0.57236
 Alpha  occ. eigenvalues --   -0.56313  -0.56204  -0.55981  -0.55885  -0.55524
 Alpha  occ. eigenvalues --   -0.55452  -0.55342  -0.55247  -0.54526  -0.54487
 Alpha  occ. eigenvalues --   -0.53911  -0.53898  -0.53302  -0.53227  -0.53226
 Alpha  occ. eigenvalues --   -0.53141  -0.52918  -0.52901  -0.52760  -0.52669
 Alpha  occ. eigenvalues --   -0.52441  -0.52402  -0.51917  -0.51884  -0.51658
 Alpha  occ. eigenvalues --   -0.51620  -0.51200  -0.51198  -0.50577  -0.50476
 Alpha  occ. eigenvalues --   -0.50034  -0.49979  -0.49922  -0.49867  -0.49518
 Alpha  occ. eigenvalues --   -0.49488  -0.49218  -0.49202  -0.49103  -0.49099
 Alpha  occ. eigenvalues --   -0.48595  -0.48557  -0.48464  -0.48449  -0.48376
 Alpha  occ. eigenvalues --   -0.48339  -0.47698  -0.47594  -0.47300  -0.47118
 Alpha  occ. eigenvalues --   -0.46800  -0.46709  -0.46559  -0.46553  -0.46362
 Alpha  occ. eigenvalues --   -0.46270  -0.46165  -0.46085  -0.45824  -0.45821
 Alpha  occ. eigenvalues --   -0.45209  -0.45204  -0.44580  -0.44513  -0.44511
 Alpha  occ. eigenvalues --   -0.44475  -0.44148  -0.44126  -0.44092  -0.44078
 Alpha  occ. eigenvalues --   -0.44022  -0.43939  -0.43552  -0.43497  -0.43389
 Alpha  occ. eigenvalues --   -0.43385  -0.43030  -0.42929  -0.42900  -0.42701
 Alpha  occ. eigenvalues --   -0.42657  -0.42554  -0.42012  -0.41964  -0.41707
 Alpha  occ. eigenvalues --   -0.41668  -0.41537  -0.41458  -0.41144  -0.40989
 Alpha  occ. eigenvalues --   -0.40873  -0.40828  -0.40723  -0.40698  -0.40574
 Alpha  occ. eigenvalues --   -0.40493  -0.40238  -0.40226  -0.39443  -0.39426
 Alpha  occ. eigenvalues --   -0.38472  -0.38350  -0.37752  -0.37653  -0.37323
 Alpha  occ. eigenvalues --   -0.37267  -0.37266  -0.37199  -0.36769  -0.36715
 Alpha  occ. eigenvalues --   -0.36216  -0.36195  -0.34289  -0.34253  -0.33860
 Alpha  occ. eigenvalues --   -0.33773  -0.33189  -0.33175  -0.31349  -0.31274
 Alpha  occ. eigenvalues --   -0.31039  -0.30972  -0.30031  -0.29953  -0.29453
 Alpha  occ. eigenvalues --   -0.29327  -0.29325  -0.29211  -0.24083  -0.24036
 Alpha  occ. eigenvalues --   -0.21131  -0.21117
 Alpha virt. eigenvalues --   -0.08792  -0.08777  -0.01753  -0.01684  -0.00062
 Alpha virt. eigenvalues --   -0.00029   0.02198   0.02208   0.03119   0.03227
 Alpha virt. eigenvalues --    0.04715   0.04731   0.05096   0.05168   0.06173

 Mulliken charges:
               1
     1  Mg   0.838754
     2  C   -0.002980
     3  C   -0.094130
     4  C   -0.045872
     5  C   -0.063962
     6  N   -0.256772
     7  C   -0.052456
     8  C   -0.014021
     9  C   -0.087000
    10  C    0.046319
    11  C    0.104811
    12  C    0.053476
    13  C   -0.071792
    14  H    0.036113
    15  N   -0.433139
    16  C    0.168422
    17  C   -0.177176
    18  C   -0.004011
    19  C    0.148703
    20  C    0.110183
    21  C    0.012269
    22  O   -0.249628
    23  C    0.062485
    24  N   -0.341175
    25  C    0.041259
    26  C   -0.028176
    27  C   -0.023995
    28  C    0.074879
    29  C    0.076163
    30  C    0.035117
    31  C   -0.004504
    32  N   -0.310471
    33  C    0.080415
    34  C   -0.169690
    35  C    0.008361
    36  C    0.082970
    37  C    0.127307
    38  C    0.046138
    39  O   -0.188401
    40  C   -0.005314
    41  C    0.212864
    42  O   -0.257105
    43  O   -0.304794
    44  C    0.157692
    45  H   -0.017615
    46  H   -0.016841
    47  H   -0.041468
    48  H    0.000951
    49  H   -0.004051
    50  H    0.025485
    51  H    0.016451
    52  H    0.016654
    53  H    0.011183
    54  H    0.044124
    55  H    0.017885
    56  H    0.017928
    57  H    0.005866
    58  H    0.026819
    59  H    0.039512
    60  H    0.037346
    61  H    0.035632
    62  H    0.031472
    63  H    0.016549
    64  H    0.009476
    65  H    0.023211
    66  H    0.012545
    67  H    0.004767
    68  H    0.006375
    69  H    0.004755
    70  H    0.008768
    71  H    0.018164
    72  H    0.028970
    73  H    0.047600
    74  H    0.009127
    75  H    0.046023
    76  H    0.035159
    77  H    0.042970
    78  H    0.046381
    79  H    0.053694
    80  Mg   0.837893
    81  C   -0.016831
    82  C   -0.087796
    83  C   -0.045517
    84  C   -0.064869
    85  N   -0.254571
    86  C   -0.049815
    87  C   -0.015100
    88  C   -0.090504
    89  C    0.045766
    90  C    0.114367
    91  C    0.062522
    92  C   -0.077897
    93  H    0.034897
    94  N   -0.423500
    95  C    0.162915
    96  C   -0.174619
    97  C   -0.007804
    98  C    0.152117
    99  C    0.099364
   100  C    0.015560
   101  O   -0.253185
   102  C    0.061198
   103  N   -0.350069
   104  C    0.037543
   105  C   -0.019853
   106  C   -0.034820
   107  C    0.088927
   108  C    0.073645
   109  C    0.034716
   110  C   -0.007672
   111  N   -0.324115
   112  C    0.078444
   113  C   -0.163119
   114  C    0.002269
   115  C    0.096181
   116  C    0.131482
   117  C    0.042414
   118  O   -0.187813
   119  C    0.000911
   120  C    0.211249
   121  O   -0.251021
   122  O   -0.305611
   123  C    0.152030
   124  H   -0.019661
   125  H   -0.015572
   126  H   -0.040434
   127  H   -0.000608
   128  H   -0.004337
   129  H    0.022517
   130  H    0.014436
   131  H    0.016294
   132  H    0.013904
   133  H    0.037674
   134  H    0.020820
   135  H    0.019574
   136  H    0.008759
   137  H    0.026139
   138  H    0.039780
   139  H    0.038248
   140  H    0.036388
   141  H    0.033889
   142  H    0.014396
   143  H    0.012454
   144  H    0.025137
   145  H    0.011656
   146  H    0.005705
   147  H    0.006270
   148  H    0.003668
   149  H    0.010927
   150  H    0.017935
   151  H    0.030096
   152  H    0.046020
   153  H    0.008515
   154  H    0.047011
   155  H    0.035090
   156  H    0.043951
   157  H    0.049484
   158  H    0.053568
 Sum of Mulliken charges =  -0.00000

 Dipole moment (field-independent basis, Debye):
    X=             -4.2886    Y=             -2.8804    Z=             -7.4418  Tot=              9.0592
 Quadrupole moment (field-independent basis, Debye-Ang):
   XX=           -522.8447   YY=           -554.2322   ZZ=           -446.6363
   XY=             -8.5873   XZ=             13.6418   YZ=            -45.9623

 Normal termination of Gaussian 16 at Sun Sep 12 19:41:28 2021.
