 Gaussian 16, Revision A.03,
 Gaussian 16:  ES64L-G16RevA.03 25-Dec-2016

 -----------------------------------
 #p cam-b3lyp/Def2SVP td=(nstates=5)
 -----------------------------------

 --------------------------------
 TDDFT excited states in gaussian
 --------------------------------
 Symbolic Z-matrix:
 Charge =  0 Multiplicity = 1

                         Standard orientation:
 ---------------------------------------------------------------------
 Center     Atomic      Atomic             Coordinates (Angstroms)
 Number     Number       Type             X           Y           Z
 ---------------------------------------------------------------------
      1         12           0        7.816042   -0.841908    0.327768
      2          6           0        8.279057    1.999783   -1.798878
      3          6           0        8.928367    1.094441    2.907758
      4          6           0        7.848451   -3.451580    2.129207
      5          6           0        7.838562   -2.811811   -2.547061
      6          7           0        8.487095    1.265755    0.417703
      7          6           0        8.560112    2.264439   -0.456637
      8          6           0        8.890474    3.637932    0.200442
      9          6           0        9.612668    3.117061    1.522988
     10          6           0        8.945015    1.758688    1.645406
     11          6           0       11.115024    2.912734    1.356622
     12          6           0        7.601821    4.460977    0.537638
     13          6           0        7.838404    5.935607    0.876532
     14          1           0        6.851147    6.918073    0.455306
     15          7           0        7.842877   -1.041849    2.293004
     16          6           0        8.317637   -0.146216    3.191743
     17          6           0        8.113496   -0.757186    4.522804
     18          6           0        7.656030   -2.159143    4.314634
     19          6           0        7.791037   -2.283487    2.885757
     20          6           0        8.302066   -0.011451    5.808133
     21          6           0        7.183690   -3.222047    5.255518
     22          8           0        7.055293   -4.441811    4.894597
     23          6           0        6.956892   -2.809362    6.652406
     24          7           0        8.059558   -2.867991   -0.111920
     25          6           0        7.972924   -3.797283    0.846148
     26          6           0        7.896501   -5.177177    0.263060
     27          6           0        7.703489   -4.982307   -1.310003
     28          6           0        7.789411   -3.437172   -1.368682
     29          6           0        9.110482   -6.080574    0.520227
     30          6           0        6.481425   -5.678284   -1.960075
     31          6           0        5.203373   -5.039427   -1.464552
     32          7           0        7.842358   -0.488037   -1.813524
     33          6           0        7.871274   -1.456083   -2.827784
     34          6           0        7.991286   -0.736048   -4.108884
     35          6           0        8.040858    0.608837   -3.747397
     36          6           0        7.983554    0.720391   -2.328749
     37          6           0        8.098854   -1.335400   -5.394823
     38          6           0        8.153719    1.976280   -4.228251
     39          8           0        8.142826    2.508531   -5.339144
     40          6           0        8.435160    2.924617   -2.980343
     41          6           0        7.500624    4.099171   -3.082183
     42          8           0        6.268321    3.949160   -2.954544
     43          8           0        8.213228    5.236138   -3.075494
     44          6           0        7.344209    6.441214   -3.144427
     45          1           0        9.481664    1.531298    3.741400
     46          1           0        7.750586   -4.373441    2.706297
     47          1           0        7.766472   -3.355648   -3.490722
     48          1           0        9.572918    4.264304   -0.374321
     49          1           0        9.373924    3.735946    2.387687
     50          1           0       11.421202    3.035729    0.317850
     51          1           0       11.309181    1.893974    1.692664
     52          1           0       11.671511    3.562420    2.032646
     53          1           0        7.193025    4.115657    1.487218
     54          1           0        6.875286    4.389305   -0.272507
     55          1           0        8.840970    6.254525    0.590070
     56          1           0        7.819110    6.044180    1.960985
     57          1           0        8.799880    0.944016    5.647478
     58          1           0        9.005702   -0.586586    6.409652
     59          1           0        7.365903    0.109974    6.353280
     60          1           0        7.884092   -2.411190    7.065090
     61          1           0        6.536948   -3.678079    7.158199
     62          1           0        6.238231   -1.989430    6.666100
     63          1           0        7.043309   -5.723845    0.662614
     64          1           0        8.555921   -5.358200   -1.876341
     65          1           0        8.860903   -7.018558    1.016816
     66          1           0        9.836728   -5.512071    1.100453
     67          1           0        9.690482   -6.330571   -0.367759
     68          1           0        6.446781   -6.728903   -1.673813
     69          1           0        6.488367   -5.631327   -3.049111
     70          1           0        5.027034   -5.549831   -0.518390
     71          1           0        4.388909   -5.224489   -2.165703
     72          1           0        5.347087   -3.981836   -1.242437
     73          1           0        7.445760   -0.763212   -6.053638
     74          1           0        7.811437   -2.386225   -5.367217
     75          1           0        9.161719   -1.198280   -5.593246
     76          1           0        9.480163    3.226102   -3.045129
     77          1           0        7.673382    7.025595   -4.003716
     78          1           0        7.391304    6.913757   -2.163158
     79          1           0        6.298808    6.267546   -3.401945
     80         12           0       -7.983493    0.765867    0.538819
     81          6           0       -8.114701   -2.313169   -1.300050
     82          6           0       -6.988189    2.276876   -2.352691
     83          6           0       -7.424281    3.396354    2.222635
     84          6           0       -7.868352   -1.141093    3.453599
     85          7           0       -7.633579   -0.022233   -1.498025
     86          6           0       -7.775193   -1.197135   -2.092925
     87          6           0       -7.618260   -1.159432   -3.636782
     88          6           0       -6.721293    0.167359   -3.754979
     89          6           0       -7.162035    0.875151   -2.475351
     90          6           0       -5.229147   -0.104593   -3.660690
     91          6           0       -8.993357   -0.990659   -4.373418
     92          6           0       -8.952466   -1.255009   -5.880134
     93          1           0      -10.112126   -1.881688   -6.508573
     94          7           0       -7.783889    2.650178   -0.051181
     95          6           0       -7.391812    3.084945   -1.267126
     96          6           0       -7.386799    4.553851   -1.186819
     97          6           0       -7.648747    4.947381    0.224295
     98          6           0       -7.607595    3.651351    0.871361
     99          6           0       -7.227801    5.434138   -2.392320
    100          6           0       -7.883154    6.272362    0.884345
    101          8           0       -7.853005    6.404393    2.158903
    102          6           0       -8.056295    7.427848   -0.008043
    103          7           0       -7.475944    1.084330    2.529621
    104          6           0       -7.342836    2.329842    3.018397
    105          6           0       -7.248517    2.317203    4.525497
    106          6           0       -7.590264    0.817934    4.964786
    107          6           0       -7.742291    0.173780    3.569315
    108          6           0       -5.896065    2.722998    5.110811
    109          6           0       -8.738077    0.630551    5.994400
    110          6           0      -10.059361    1.018502    5.370645
    111          7           0       -8.173935   -1.328052    1.036106
    112          6           0       -8.067332   -1.913769    2.316597
    113          6           0       -8.154077   -3.377241    2.134531
    114          6           0       -8.283051   -3.543836    0.747405
    115          6           0       -8.256807   -2.274909    0.108170
    116          6           0       -8.062705   -4.351058    3.168677
    117          6           0       -8.424740   -4.505197   -0.322354
    118          8           0       -8.591493   -5.722840   -0.379597
    119          6           0       -8.194969   -3.758477   -1.706555
    120          6           0       -9.301500   -4.162848   -2.641748
    121          8           0      -10.479078   -3.841219   -2.404077
    122          8           0       -8.764622   -4.670755   -3.766093
    123          6           0       -9.822602   -5.076157   -4.729509
    124          1           0       -6.454385    2.804643   -3.143516
    125          1           0       -7.337819    4.278368    2.861417
    126          1           0       -7.938909   -1.799447    4.322084
    127          1           0       -7.089357   -2.004762   -4.060399
    128          1           0       -6.995595    0.753054   -4.628526
    129          1           0       -5.022355   -1.134540   -3.410549
    130          1           0       -4.858345    0.554523   -2.886667
    131          1           0       -4.730607    0.204321   -4.583921
    132          1           0       -9.269937    0.071525   -4.376462
    133          1           0       -9.746766   -1.604402   -3.919185
    134          1           0       -8.029158   -1.762680   -6.184647
    135          1           0       -8.914254   -0.294659   -6.400034
    136          1           0       -6.887666    4.863334   -3.265185
    137          1           0       -6.402491    6.122125   -2.179260
    138          1           0       -8.125800    6.016190   -2.610239
    139          1           0       -7.174607    7.534880   -0.635463
    140          1           0       -8.301482    8.267469    0.645238
    141          1           0       -8.898346    7.227826   -0.680024
    142          1           0       -7.977977    2.986891    4.964258
    143          1           0       -6.730508    0.328057    5.445054
    144          1           0       -5.962673    3.574283    5.814349
    145          1           0       -5.226685    2.956578    4.293553
    146          1           0       -5.360178    1.929425    5.628760
    147          1           0       -8.591737    1.294735    6.849735
    148          1           0       -8.811031   -0.380631    6.380645
    149          1           0      -10.079329    2.105788    5.491085
    150          1           0      -10.885572    0.547569    5.899457
    151          1           0      -10.064439    0.805832    4.295287
    152          1           0       -8.834713   -5.083935    2.975294
    153          1           0       -8.179486   -3.899352    4.151573
    154          1           0       -7.045718   -4.716564    3.003089
    155          1           0       -7.214237   -4.055428   -2.080122
    156          1           0       -9.647701   -6.128962   -4.971755
    157          1           0       -9.761926   -4.350793   -5.562535
    158          1           0      -10.843713   -5.109121   -4.367988
 ---------------------------------------------------------------------

 SCF Done:  E(RCAM-B3LYP) =  -4069.81190030     A.U. after   19 cycles

 Excitation energies and oscillator strengths:

 Excited State   1:      Singlet-A      1.6739 eV  740.71 nm  f=0.2673  <S**2>=0.000
     310 -> 316        0.15403
     311 -> 313        0.31172
     312 -> 314        0.61119
 This state for optimization and/or second-order correction.
 Total Energy, E(TD-HF/TD-DFT) =  -4069.75038707
 Copying the excited state density for this state as the 1-particle RhoCI density.

 Excited State   2:      Singlet-A      1.6811 eV  737.50 nm  f=0.4823  <S**2>=0.000
     309 -> 315        0.15669
     311 -> 313        0.61075
     312 -> 314       -0.31160

 Excited State   3:      Singlet-A      2.1860 eV  567.18 nm  f=0.0969  <S**2>=0.000
     310 -> 314        0.64119
     312 -> 316       -0.27220

 Excited State   4:      Singlet-A      2.1927 eV  565.43 nm  f=0.1021  <S**2>=0.000
     309 -> 313        0.63938
     311 -> 315       -0.27775

 Excited State   5:      Singlet-A      2.7635 eV  448.66 nm  f=0.0000  <S**2>=0.000
     312 -> 313        0.70710

 The electronic state is 1-A.
 Alpha  occ. eigenvalues --  -46.87839 -46.87587 -19.26357 -19.26283 -19.19094
 Alpha  occ. eigenvalues --  -19.19094 -19.18846 -19.18653 -19.18226 -19.17983
 Alpha  occ. eigenvalues --  -14.42492 -14.42419 -14.41489 -14.41290 -14.39444
 Alpha  occ. eigenvalues --  -14.39279 -14.38632 -14.38528 -10.39151 -10.39024
 Alpha  occ. eigenvalues --  -10.35479 -10.35330 -10.34446 -10.34160 -10.31758
 Alpha  occ. eigenvalues --  -10.31693 -10.31450 -10.31226 -10.30951 -10.30942
 Alpha  occ. eigenvalues --  -10.30615 -10.30550 -10.30330 -10.30286 -10.30242
 Alpha  occ. eigenvalues --  -10.30074 -10.29961 -10.29832 -10.29674 -10.29363
 Alpha  occ. eigenvalues --  -10.29331 -10.29294 -10.28794 -10.28625 -10.28586
 Alpha  occ. eigenvalues --  -10.28567 -10.28409 -10.28330 -10.28159 -10.28033
 Alpha  occ. eigenvalues --  -10.27929 -10.27838 -10.27768 -10.27625 -10.27585
 Alpha  occ. eigenvalues --  -10.27530 -10.27515 -10.27477 -10.27471 -10.27448
 Alpha  occ. eigenvalues --  -10.27409 -10.27396 -10.27377 -10.27332 -10.27215
 Alpha  occ. eigenvalues --  -10.26978 -10.26754 -10.26607 -10.26435 -10.26354
 Alpha  occ. eigenvalues --  -10.26273 -10.26209 -10.26103 -10.26059 -10.25899
 Alpha  occ. eigenvalues --  -10.25884 -10.25867 -10.25791 -10.25457 -10.25364
 Alpha  occ. eigenvalues --  -10.24880 -10.24827 -10.24801 -10.24713 -10.24696
 Alpha  occ. eigenvalues --  -10.24623  -3.16582  -3.16337  -1.91463  -1.91220
 Alpha  occ. eigenvalues --   -1.91050  -1.90892  -1.90808  -1.90645  -1.16706
 Alpha  occ. eigenvalues --   -1.16577  -1.08686  -1.08590  -1.07247  -1.06906
 Alpha  occ. eigenvalues --   -1.06879  -1.06716  -1.04624  -1.04416  -1.03801
 Alpha  occ. eigenvalues --   -1.03591  -1.03276  -1.02970  -1.02453  -1.02040
 Alpha  occ. eigenvalues --   -0.92020  -0.91914  -0.89556  -0.89435  -0.89231
 Alpha  occ. eigenvalues --   -0.89055  -0.88321  -0.88166  -0.87918  -0.87725
 Alpha  occ. eigenvalues --   -0.87715  -0.87607  -0.87311  -0.87047  -0.85025
 Alpha  occ. eigenvalues --   -0.84915  -0.83971  -0.83826  -0.82999  -0.82868
 Alpha  occ. eigenvalues --   -0.82692  -0.82573  -0.81641  -0.81527  -0.80643
 Alpha  occ. eigenvalues --   -0.80372  -0.78838  -0.78562  -0.77259  -0.77068
 Alpha  occ. eigenvalues --   -0.76980  -0.76825  -0.75971  -0.75754  -0.74934
 Alpha  occ. eigenvalues --   -0.74746  -0.72817  -0.72628  -0.71713  -0.71506
 Alpha  occ. eigenvalues --   -0.69938  -0.69709  -0.68916  -0.68745  -0.67684
 Alpha  occ. eigenvalues --   -0.67532  -0.67262  -0.67121  -0.65332  -0.65189
 Alpha  occ. eigenvalues --   -0.64900  -0.64700  -0.64665  -0.64581  -0.64306
 Alpha  occ. eigenvalues --   -0.64146  -0.62355  -0.62212  -0.60479  -0.60272
 Alpha  occ. eigenvalues --   -0.59848  -0.59709  -0.59030  -0.58923  -0.58548
 Alpha  occ. eigenvalues --   -0.58356  -0.57641  -0.57484  -0.57350  -0.57174
 Alpha  occ. eigenvalues --   -0.56355  -0.56131  -0.56038  -0.55815  -0.55561
 Alpha  occ. eigenvalues --   -0.55383  -0.55381  -0.55191  -0.54572  -0.54430
 Alpha  occ. eigenvalues --   -0.53939  -0.53820  -0.53340  -0.53265  -0.53160
 Alpha  occ. eigenvalues --   -0.53067  -0.52965  -0.52829  -0.52793  -0.52590
 Alpha  occ. eigenvalues --   -0.52470  -0.52355  -0.51967  -0.51821  -0.51661
 Alpha  occ. eigenvalues --   -0.51576  -0.51242  -0.51133  -0.50604  -0.50403
 Alpha  occ. eigenvalues --   -0.50063  -0.49955  -0.49901  -0.49807  -0.49556
 Alpha  occ. eigenvalues --   -0.49411  -0.49261  -0.49141  -0.49124  -0.49020
 Alpha  occ. eigenvalues --   -0.48643  -0.48498  -0.48486  -0.48481  -0.48321
 Alpha  occ. eigenvalues --   -0.48270  -0.47736  -0.47520  -0.47337  -0.47048
 Alpha  occ. eigenvalues --   -0.46838  -0.46639  -0.46600  -0.46468  -0.46402
 Alpha  occ. eigenvalues --   -0.46208  -0.46203  -0.46024  -0.45876  -0.45753
 Alpha  occ. eigenvalues --   -0.45235  -0.45153  -0.44629  -0.44544  -0.44444
 Alpha  occ. eigenvalues --   -0.44394  -0.44184  -0.44130  -0.44065  -0.44047
 Alpha  occ. eigenvalues --   -0.44016  -0.43867  -0.43550  -0.43486  -0.43425
 Alpha  occ. eigenvalues --   -0.43310  -0.43071  -0.42863  -0.42833  -0.42758
 Alpha  occ. eigenvalues --   -0.42695  -0.42496  -0.42049  -0.41901  -0.41749
 Alpha  occ. eigenvalues --   -0.41598  -0.41576  -0.41381  -0.41182  -0.40910
 Alpha  occ. eigenvalues --   -0.40909  -0.40857  -0.40650  -0.40623  -0.40607
 Alpha  occ. eigenvalues --   -0.40432  -0.40278  -0.40144  -0.39471  -0.39378
 Alpha  occ. eigenvalues --   -0.38503  -0.38292  -0.37794  -0.37573  -0.37357
 Alpha  occ. eigenvalues --   -0.37309  -0.37202  -0.37118  -0.36773  -0.36707
 Alpha  occ. eigenvalues --   -0.36241  -0.36153  -0.34329  -0.34181  -0.33839
 Alpha  occ. eigenvalues --   -0.33795  -0.33231  -0.33104  -0.31376  -0.31212
 Alpha  occ. eigenvalues --   -0.31078  -0.30900  -0.30086  -0.29887  -0.29491
 Alpha  occ. eigenvalues --   -0.29368  -0.29256  -0.29141  -0.24123  -0.23963
 Alpha  occ. eigenvalues --   -0.21169  -0.21044
 Alpha virt. eigenvalues --   -0.08816  -0.08720  -0.01789  -0.01614  -0.00097
 Alpha virt. eigenvalues --    0.00044   0.02152   0.02274   0.03075   0.03293
 Alpha virt. eigenvalues --    0.04675   0.04812   0.05030   0.05233   0.06130

 Mulliken charges:
               1
     1  Mg   0.838655
     2  C   -0.003072
     3  C   -0.094129
     4  C   -0.045805
     5  C   -0.063937
     6  N   -0.256809
     7  C   -0.052537
     8  C   -0.013981
     9  C   -0.087029
    10  C    0.046367
    11  C    0.104783
    12  C    0.053469
    13  C   -0.071822
    14  H    0.035966
    15  N   -0.433179
    16  C    0.168493
    17  C   -0.177067
    18  C   -0.003917
    19  C    0.148755
    20  C    0.110148
    21  C    0.012347
    22  O   -0.249384
    23  C    0.062448
    24  N   -0.341125
    25  C    0.041288
    26  C   -0.028254
    27  C   -0.023973
    28  C    0.074792
    29  C    0.076118
    30  C    0.035118
    31  C   -0.004534
    32  N   -0.310412
    33  C    0.080292
    34  C   -0.169927
    35  C    0.008227
    36  C    0.082857
    37  C    0.127378
    38  C    0.045892
    39  O   -0.188801
    40  C   -0.005260
    41  C    0.212858
    42  O   -0.257474
    43  O   -0.304667
    44  C    0.157829
    45  H   -0.017487
    46  H   -0.016631
    47  H   -0.041521
    48  H    0.000907
    49  H   -0.003954
    50  H    0.025467
    51  H    0.016515
    52  H    0.016764
    53  H    0.011277
    54  H    0.043876
    55  H    0.017922
    56  H    0.018130
    57  H    0.005939
    58  H    0.026972
    59  H    0.039644
    60  H    0.037404
    61  H    0.035835
    62  H    0.031462
    63  H    0.016758
    64  H    0.009508
    65  H    0.023439
    66  H    0.012542
    67  H    0.004818
    68  H    0.006661
    69  H    0.004615
    70  H    0.009084
    71  H    0.018098
    72  H    0.028715
    73  H    0.047164
    74  H    0.009110
    75  H    0.046072
    76  H    0.035214
    77  H    0.042871
    78  H    0.046569
    79  H    0.053253
    80  Mg   0.837983
    81  C   -0.016798
    82  C   -0.087521
    83  C   -0.045533
    84  C   -0.064960
    85  N   -0.254598
    86  C   -0.049720
    87  C   -0.015135
    88  C   -0.090488
    89  C    0.045675
    90  C    0.114193
    91  C    0.062503
    92  C   -0.077880
    93  H    0.034605
    94  N   -0.423546
    95  C    0.162846
    96  C   -0.174263
    97  C   -0.007913
    98  C    0.152234
    99  C    0.099212
   100  C    0.015548
   101  O   -0.253483
   102  C    0.061216
   103  N   -0.350026
   104  C    0.037592
   105  C   -0.019816
   106  C   -0.034760
   107  C    0.088905
   108  C    0.073715
   109  C    0.034798
   110  C   -0.007627
   111  N   -0.324091
   112  C    0.078403
   113  C   -0.163242
   114  C    0.002244
   115  C    0.096146
   116  C    0.131501
   117  C    0.042306
   118  O   -0.188079
   119  C    0.000973
   120  C    0.211209
   121  O   -0.251122
   122  O   -0.305557
   123  C    0.152081
   124  H   -0.018913
   125  H   -0.015823
   126  H   -0.040698
   127  H   -0.000565
   128  H   -0.004186
   129  H    0.022415
   130  H    0.014933
   131  H    0.017174
   132  H    0.013862
   133  H    0.037485
   134  H    0.020989
   135  H    0.019743
   136  H    0.009210
   137  H    0.026522
   138  H    0.039655
   139  H    0.038473
   140  H    0.036122
   141  H    0.033876
   142  H    0.014211
   143  H    0.012245
   144  H    0.024739
   145  H    0.011883
   146  H    0.005406
   147  H    0.005945
   148  H    0.003546
   149  H    0.010823
   150  H    0.017772
   151  H    0.030277
   152  H    0.045839
   153  H    0.008309
   154  H    0.046994
   155  H    0.035164
   156  H    0.043778
   157  H    0.049609
   158  H    0.053456
 Sum of Mulliken charges =  -0.00000

 Dipole moment (field-independent basis, Debye):
    X=              4.4764    Y=              3.7186    Z=              1.4222  Tot=              5.9907
 Quadrupole moment (field-independent basis, Debye-Ang):
   XX=           -519.4778   YY=           -519.4200   ZZ=           -479.3861
   XY=            -16.8788   XZ=             52.2789   YZ=             17.2251

 Normal termination of Gaussian 16 at Sat Sep  4 12:17:54 2021.
