 Gaussian 16, Revision A.03,
 Gaussian 16:  ES64L-G16RevA.03 25-Dec-2016

 -----------------------------------
 #p cam-b3lyp/Def2SVP td=(nstates=5)
 -----------------------------------

 --------------------------------
 TDDFT excited states in gaussian
 --------------------------------
 Symbolic Z-matrix:
 Charge =  0 Multiplicity = 1

                         Standard orientation:
 ---------------------------------------------------------------------
 Center     Atomic      Atomic             Coordinates (Angstroms)
 Number     Number       Type             X           Y           Z
 ---------------------------------------------------------------------
      1         12           0       -6.567735    0.835471    0.446215
      2          6           0       -7.092069   -1.678109   -2.047618
      3          6           0       -7.737436   -1.405562    2.738078
      4          6           0       -6.543095    3.175823    2.586020
      5          6           0       -6.530543    3.178074   -2.133802
      6          7           0       -7.290721   -1.247483    0.248118
      7          6           0       -7.384816   -2.115817   -0.754036
      8          6           0       -7.751407   -3.557278   -0.290166
      9          6           0       -8.465779   -3.203353    1.090562
     10          6           0       -7.765437   -1.891293    1.397066
     11          6           0       -9.961995   -2.940984    0.952721
     12          6           0       -6.484702   -4.450343   -0.067402
     13          6           0       -6.758776   -5.951020    0.067530
     14          1           0       -5.794309   -6.891307   -0.482934
     15          7           0       -6.597375    0.766824    2.420363
     16          6           0       -7.097528   -0.230649    3.188595
     17          6           0       -6.883672    0.188306    4.590530
     18          6           0       -6.391081    1.593731    4.575338
     19          6           0       -6.517374    1.914610    3.176601
     20          6           0       -7.095560   -0.720418    5.762312
     21          6           0       -5.896471    2.506682    5.652376
     22          8           0       -5.736723    3.760629    5.460878
     23          6           0       -5.685375    1.902299    6.980232
     24          7           0       -6.759664    2.907956    0.286207
     25          6           0       -6.653990    3.695838    1.361874
     26          6           0       -6.541394    5.139891    0.972039
     27          6           0       -6.347045    5.156078   -0.612802
     28          6           0       -6.470675    3.635907   -0.881256
     29          6           0       -7.733812    6.029826    1.349084
     30          6           0       -5.105703    5.903396   -1.161440
     31          6           0       -3.845692    5.171476   -0.756762
     32          7           0       -6.594320    0.776937   -1.723327
     33          6           0       -6.595453    1.874372   -2.596429
     34          6           0       -6.728083    1.338511   -3.963664
     35          6           0       -6.812106   -0.041393   -3.788589
     36          6           0       -6.763138   -0.346281   -2.398288
     37          6           0       -6.815835    2.109709   -5.156135
     38          6           0       -6.956640   -1.327479   -4.451123
     39          8           0       -6.954461   -1.703771   -5.624107
     40          6           0       -7.266202   -2.429457   -3.344036
     41          6           0       -6.360414   -3.602122   -3.604254
     42          8           0       -5.125309   -3.501571   -3.456709
     43          8           0       -7.100761   -4.711347   -3.752747
     44          6           0       -6.261349   -5.917087   -3.984555
     45          1           0       -8.304574   -1.937858    3.504209
     46          1           0       -6.424877    4.007890    3.283248
     47          1           0       -6.441403    3.843260   -2.994636
     48          1           0       -8.446770   -4.082469   -0.945200
     49          1           0       -8.245714   -3.939858    1.863125
     50          1           0      -10.267017   -2.913875   -0.093294
     51          1           0      -10.132382   -1.972894    1.424169
     52          1           0      -10.536931   -3.662545    1.533735
     53          1           0       -6.071281   -4.247684    0.920562
     54          1           0       -5.753446   -4.287229   -0.859857
     55          1           0       -7.767742   -6.202964   -0.260220
     56          1           0       -6.746420   -6.206549    1.127130
     57          1           0       -7.616064   -1.632466    5.472851
     58          1           0       -7.787211   -0.215129    6.436116
     59          1           0       -6.164813   -0.938122    6.286380
     60          1           0       -6.623694    1.474881    7.334379
     61          1           0       -5.246204    2.683420    7.599772
     62          1           0       -4.987136    1.070504    6.882613
     63          1           0       -5.676605    5.605730    1.442741
     64          1           0       -7.187750    5.626605   -1.123188
     65          1           0       -7.463216    6.885038    1.968839
     66          1           0       -8.476083    5.405923    1.846146
     67          1           0       -8.303999    6.412643    0.503062
     68          1           0       -5.046380    6.904118   -0.734846
     69          1           0       -5.109515    6.005206   -2.246738
     70          1           0       -3.660587    5.543882    0.250155
     71          1           0       -3.024177    5.429877   -1.425756
     72          1           0       -4.016220    4.097407   -0.680717
     73          1           0       -6.174412    1.616390   -5.886328
     74          1           0       -6.502797    3.139532   -4.985623
     75          1           0       -7.880960    2.027339   -5.371958
     76          1           0       -8.318035   -2.693236   -3.449823
     77          1           0       -6.601401   -6.370774   -4.915558
     78          1           0       -6.323899   -6.517401   -3.076747
     79          1           0       -5.210992   -5.736064   -4.215466
     80         12           0        6.548851   -0.833733    0.455399
     81          6           0        7.161348    1.681019   -2.030555
     82          6           0        7.786998    1.355136    2.759856
     83          6           0        6.443220   -3.177303    2.591747
     84          6           0        6.446524   -3.167762   -2.130622
     85          7           0        7.340050    1.223123    0.266723
     86          6           0        7.466684    2.099215   -0.718560
     87          6           0        7.870957    3.526673   -0.261972
     88          6           0        8.578493    3.143279    1.127726
     89          6           0        7.835780    1.843313    1.429666
     90          6           0       10.057481    2.825725    0.982566
     91          6           0        6.627475    4.456584   -0.036095
     92          6           0        6.955017    5.944269    0.109738
     93          1           0        6.016209    6.920450   -0.436329
     94          7           0        6.575395   -0.765790    2.438642
     95          6           0        7.098580    0.208187    3.212552
     96          6           0        6.882569   -0.222704    4.602448
     97          6           0        6.336914   -1.607144    4.584924
     98          6           0        6.452742   -1.918296    3.174301
     99          6           0        7.113594    0.679928    5.779441
    100          6           0        5.811287   -2.507367    5.661734
    101          8           0        5.610342   -3.756503    5.456542
    102          6           0        5.627280   -1.903262    6.989406
    103          7           0        6.668508   -2.902393    0.286094
    104          6           0        6.541221   -3.692942    1.366256
    105          6           0        6.384713   -5.140902    0.967102
    106          6           0        6.190071   -5.130347   -0.620227
    107          6           0        6.364525   -3.619039   -0.886521
    108          6           0        7.550045   -6.060836    1.330572
    109          6           0        4.925343   -5.838166   -1.178901
    110          6           0        3.684646   -5.078885   -0.767136
    111          7           0        6.576278   -0.764917   -1.703894
    112          6           0        6.550380   -1.861963   -2.592663
    113          6           0        6.702759   -1.319575   -3.958321
    114          6           0        6.830844    0.064305   -3.766062
    115          6           0        6.783331    0.361272   -2.377158
    116          6           0        6.757763   -2.086051   -5.156495
    117          6           0        7.006112    1.340363   -4.421549
    118          8           0        7.024941    1.720648   -5.591494
    119          6           0        7.354760    2.431080   -3.319196
    120          6           0        6.487345    3.634859   -3.566198
    121          8           0        5.253189    3.563090   -3.430853
    122          8           0        7.269838    4.720213   -3.707903
    123          6           0        6.454644    5.941520   -3.943890
    124          1           0        8.364738    1.874789    3.524740
    125          1           0        6.296851   -4.013760    3.279052
    126          1           0        6.326427   -3.820882   -2.997617
    127          1           0        8.576942    4.028802   -0.912534
    128          1           0        8.373137    3.886508    1.893756
    129          1           0       10.363290    2.795229   -0.052657
    130          1           0       10.197659    1.858462    1.447129
    131          1           0       10.653732    3.530841    1.568763
    132          1           0        6.207962    4.258175    0.958583
    133          1           0        5.903468    4.320731   -0.815831
    134          1           0        7.978416    6.174351   -0.210675
    135          1           0        6.942959    6.199731    1.172104
    136          1           0        7.671194    1.580071    5.492703
    137          1           0        7.786433    0.149526    6.461950
    138          1           0        6.191162    0.923519    6.310906
    139          1           0        6.576825   -1.506051    7.340170
    140          1           0        5.160827   -2.678084    7.600913
    141          1           0        4.945373   -1.050849    6.894449
    142          1           0        5.505297   -5.575694    1.426095
    143          1           0        7.018586   -5.637960   -1.135707
    144          1           0        7.247882   -6.921340    1.956917
    145          1           0        8.306057   -5.471909    1.832695
    146          1           0        8.099121   -6.467484    0.483016
    147          1           0        4.832216   -6.839786   -0.752014
    148          1           0        4.932862   -5.947529   -2.258240
    149          1           0        3.491511   -5.451163    0.243409
    150          1           0        2.857027   -5.305689   -1.436202
    151          1           0        3.888371   -4.004591   -0.689330
    152          1           0        6.140011   -1.574048   -5.882256
    153          1           0        6.416694   -3.106040   -4.991973
    154          1           0        7.829417   -2.040655   -5.368042
    155          1           0        8.415906    2.664784   -3.413707
    156          1           0        6.814338    6.390806   -4.874716
    157          1           0        6.549725    6.546750   -3.022793
    158          1           0        5.402715    5.806629   -4.166827
 ---------------------------------------------------------------------

 SCF Done:  E(RCAM-B3LYP) =  -4069.81166462     A.U. after   19 cycles

 Excitation energies and oscillator strengths:

 Excited State   1:      Singlet-A      1.6654 eV  744.46 nm  f=0.0091  <S**2>=0.000
     309 -> 315       -0.11021
     310 -> 316        0.13108
     311 -> 313        0.52669
     312 -> 314       -0.44049
 This state for optimization and/or second-order correction.
 Total Energy, E(TD-HF/TD-DFT) =  -4069.75046180
 Copying the excited state density for this state as the 1-particle RhoCI density.

 Excited State   2:      Singlet-A      1.6887 eV  734.19 nm  f=0.7365  <S**2>=0.000
     309 -> 315        0.13633
     310 -> 316        0.11341
     311 -> 313        0.43963
     312 -> 314        0.52552

 Excited State   3:      Singlet-A      2.1847 eV  567.52 nm  f=0.0436  <S**2>=0.000
     309 -> 314        0.19284
     310 -> 313        0.61339
     311 -> 316       -0.25963

 Excited State   4:      Singlet-A      2.1926 eV  565.48 nm  f=0.1465  <S**2>=0.000
     309 -> 314        0.61118
     310 -> 313       -0.19140
     312 -> 315       -0.26577

 Excited State   5:      Singlet-A      2.7075 eV  457.92 nm  f=0.0000  <S**2>=0.000
     312 -> 313        0.70710

 The electronic state is 1-A.
 Alpha  occ. eigenvalues --  -46.87659 -46.87562 -19.26261 -19.26161 -19.19062
 Alpha  occ. eigenvalues --  -19.18886 -19.18712 -19.18652 -19.18031 -19.17951
 Alpha  occ. eigenvalues --  -14.42404 -14.42317 -14.41314 -14.41261 -14.39270
 Alpha  occ. eigenvalues --  -14.39258 -14.38498 -14.38446 -10.38993 -10.38947
 Alpha  occ. eigenvalues --  -10.35348 -10.35332 -10.34251 -10.34128 -10.31679
 Alpha  occ. eigenvalues --  -10.31568 -10.31268 -10.31211 -10.30937 -10.30783
 Alpha  occ. eigenvalues --  -10.30430 -10.30371 -10.30300 -10.30259 -10.30076
 Alpha  occ. eigenvalues --  -10.30048 -10.29794 -10.29782 -10.29496 -10.29345
 Alpha  occ. eigenvalues --  -10.29305 -10.29123 -10.28637 -10.28628 -10.28582
 Alpha  occ. eigenvalues --  -10.28428 -10.28312 -10.28233 -10.28058 -10.27995
 Alpha  occ. eigenvalues --  -10.27904 -10.27657 -10.27595 -10.27576 -10.27455
 Alpha  occ. eigenvalues --  -10.27415 -10.27394 -10.27390 -10.27376 -10.27368
 Alpha  occ. eigenvalues --  -10.27361 -10.27320 -10.27285 -10.27271 -10.27027
 Alpha  occ. eigenvalues --  -10.26956 -10.26609 -10.26582 -10.26379 -10.26332
 Alpha  occ. eigenvalues --  -10.26122 -10.26020 -10.26008 -10.25952 -10.25879
 Alpha  occ. eigenvalues --  -10.25831 -10.25724 -10.25680 -10.25327 -10.25325
 Alpha  occ. eigenvalues --  -10.24774 -10.24695 -10.24657 -10.24597 -10.24565
 Alpha  occ. eigenvalues --  -10.24491  -3.16401  -3.16311  -1.91283  -1.91193
 Alpha  occ. eigenvalues --   -1.90870  -1.90782  -1.90712  -1.90619  -1.16553
 Alpha  occ. eigenvalues --   -1.16507  -1.08556  -1.08488  -1.07115  -1.06906
 Alpha  occ. eigenvalues --   -1.06848  -1.06509  -1.04448  -1.04402  -1.03626
 Alpha  occ. eigenvalues --   -1.03568  -1.03098  -1.02941  -1.02275  -1.02014
 Alpha  occ. eigenvalues --   -0.91891  -0.91838  -0.89390  -0.89377  -0.89066
 Alpha  occ. eigenvalues --   -0.89064  -0.88149  -0.88119  -0.87726  -0.87687
 Alpha  occ. eigenvalues --   -0.87591  -0.87542  -0.87155  -0.87042  -0.84914
 Alpha  occ. eigenvalues --   -0.84858  -0.83794  -0.83770  -0.82859  -0.82856
 Alpha  occ. eigenvalues --   -0.82570  -0.82526  -0.81504  -0.81457  -0.80469
 Alpha  occ. eigenvalues --   -0.80353  -0.78669  -0.78546  -0.77084  -0.77052
 Alpha  occ. eigenvalues --   -0.76806  -0.76806  -0.75797  -0.75750  -0.74768
 Alpha  occ. eigenvalues --   -0.74710  -0.72637  -0.72600  -0.71544  -0.71492
 Alpha  occ. eigenvalues --   -0.69755  -0.69642  -0.68748  -0.68741  -0.67513
 Alpha  occ. eigenvalues --   -0.67511  -0.67121  -0.67101  -0.65183  -0.65158
 Alpha  occ. eigenvalues --   -0.64720  -0.64674  -0.64562  -0.64490  -0.64130
 Alpha  occ. eigenvalues --   -0.64101  -0.62185  -0.62168  -0.60318  -0.60255
 Alpha  occ. eigenvalues --   -0.59708  -0.59677  -0.58898  -0.58854  -0.58371
 Alpha  occ. eigenvalues --   -0.58331  -0.57458  -0.57450  -0.57178  -0.57144
 Alpha  occ. eigenvalues --   -0.56178  -0.56110  -0.55855  -0.55799  -0.55399
 Alpha  occ. eigenvalues --   -0.55371  -0.55202  -0.55148  -0.54388  -0.54387
 Alpha  occ. eigenvalues --   -0.53828  -0.53771  -0.53173  -0.53138  -0.53099
 Alpha  occ. eigenvalues --   -0.53056  -0.52810  -0.52784  -0.52643  -0.52600
 Alpha  occ. eigenvalues --   -0.52281  -0.52277  -0.51770  -0.51764  -0.51578
 Alpha  occ. eigenvalues --   -0.51495  -0.51101  -0.51059  -0.50465  -0.50406
 Alpha  occ. eigenvalues --   -0.49897  -0.49894  -0.49802  -0.49771  -0.49410
 Alpha  occ. eigenvalues --   -0.49396  -0.49115  -0.49086  -0.49015  -0.48971
 Alpha  occ. eigenvalues --   -0.48468  -0.48463  -0.48342  -0.48321  -0.48283
 Alpha  occ. eigenvalues --   -0.48265  -0.47570  -0.47508  -0.47174  -0.47034
 Alpha  occ. eigenvalues --   -0.46660  -0.46611  -0.46470  -0.46433  -0.46224
 Alpha  occ. eigenvalues --   -0.46174  -0.46027  -0.45988  -0.45723  -0.45685
 Alpha  occ. eigenvalues --   -0.45115  -0.45070  -0.44446  -0.44426  -0.44383
 Alpha  occ. eigenvalues --   -0.44383  -0.44041  -0.44009  -0.43976  -0.43965
 Alpha  occ. eigenvalues --   -0.43893  -0.43860  -0.43458  -0.43363  -0.43297
 Alpha  occ. eigenvalues --   -0.43257  -0.42895  -0.42839  -0.42805  -0.42570
 Alpha  occ. eigenvalues --   -0.42511  -0.42450  -0.41865  -0.41856  -0.41574
 Alpha  occ. eigenvalues --   -0.41572  -0.41408  -0.41367  -0.41014  -0.40901
 Alpha  occ. eigenvalues --   -0.40743  -0.40711  -0.40652  -0.40610  -0.40434
 Alpha  occ. eigenvalues --   -0.40391  -0.40150  -0.40115  -0.39305  -0.39284
 Alpha  occ. eigenvalues --   -0.38334  -0.38254  -0.37625  -0.37569  -0.37184
 Alpha  occ. eigenvalues --   -0.37167  -0.37135  -0.37109  -0.36676  -0.36581
 Alpha  occ. eigenvalues --   -0.36120  -0.36059  -0.34156  -0.34150  -0.33763
 Alpha  occ. eigenvalues --   -0.33636  -0.33079  -0.33051  -0.31242  -0.31210
 Alpha  occ. eigenvalues --   -0.30904  -0.30880  -0.29890  -0.29854  -0.29320
 Alpha  occ. eigenvalues --   -0.29238  -0.29182  -0.29110  -0.23945  -0.23939
 Alpha  occ. eigenvalues --   -0.21021  -0.20992
 Alpha virt. eigenvalues --   -0.08698  -0.08642  -0.01618  -0.01591   0.00052
 Alpha virt. eigenvalues --    0.00062   0.02306   0.02338   0.03288   0.03353
 Alpha virt. eigenvalues --    0.04819   0.04846   0.05230   0.05261   0.06261

 Mulliken charges:
               1
     1  Mg   0.839291
     2  C   -0.002922
     3  C   -0.094146
     4  C   -0.045924
     5  C   -0.063682
     6  N   -0.256746
     7  C   -0.052390
     8  C   -0.014061
     9  C   -0.086983
    10  C    0.046278
    11  C    0.104881
    12  C    0.053452
    13  C   -0.071638
    14  H    0.035829
    15  N   -0.433044
    16  C    0.168360
    17  C   -0.177315
    18  C   -0.004228
    19  C    0.148708
    20  C    0.110238
    21  C    0.012095
    22  O   -0.250084
    23  C    0.062551
    24  N   -0.341218
    25  C    0.041266
    26  C   -0.028026
    27  C   -0.024063
    28  C    0.075081
    29  C    0.076311
    30  C    0.035075
    31  C   -0.004561
    32  N   -0.310618
    33  C    0.080793
    34  C   -0.169034
    35  C    0.008435
    36  C    0.083387
    37  C    0.127160
    38  C    0.046456
    39  O   -0.188255
    40  C   -0.005490
    41  C    0.212852
    42  O   -0.256694
    43  O   -0.304894
    44  C    0.157771
    45  H   -0.017887
    46  H   -0.017206
    47  H   -0.041179
    48  H    0.000786
    49  H   -0.004133
    50  H    0.025368
    51  H    0.016364
    52  H    0.016414
    53  H    0.011415
    54  H    0.044279
    55  H    0.017699
    56  H    0.017945
    57  H    0.005811
    58  H    0.026439
    59  H    0.039403
    60  H    0.037285
    61  H    0.034963
    62  H    0.031482
    63  H    0.016362
    64  H    0.009251
    65  H    0.022791
    66  H    0.012359
    67  H    0.004602
    68  H    0.005820
    69  H    0.005092
    70  H    0.008063
    71  H    0.019673
    72  H    0.029394
    73  H    0.048311
    74  H    0.009506
    75  H    0.045690
    76  H    0.034936
    77  H    0.042777
    78  H    0.046211
    79  H    0.053658
    80  Mg   0.838360
    81  C   -0.016784
    82  C   -0.087843
    83  C   -0.045571
    84  C   -0.064600
    85  N   -0.254526
    86  C   -0.049766
    87  C   -0.015116
    88  C   -0.090490
    89  C    0.045703
    90  C    0.114443
    91  C    0.062515
    92  C   -0.077750
    93  H    0.034656
    94  N   -0.423391
    95  C    0.162853
    96  C   -0.174807
    97  C   -0.008049
    98  C    0.152114
    99  C    0.099442
   100  C    0.015345
   101  O   -0.253652
   102  C    0.061294
   103  N   -0.350138
   104  C    0.037555
   105  C   -0.019705
   106  C   -0.034915
   107  C    0.089175
   108  C    0.073819
   109  C    0.034706
   110  C   -0.007770
   111  N   -0.324268
   112  C    0.078871
   113  C   -0.162402
   114  C    0.002310
   115  C    0.096620
   116  C    0.131351
   117  C    0.042755
   118  O   -0.187637
   119  C    0.000758
   120  C    0.211243
   121  O   -0.250582
   122  O   -0.305740
   123  C    0.152093
   124  H   -0.019942
   125  H   -0.015949
   126  H   -0.040076
   127  H   -0.000779
   128  H   -0.004432
   129  H    0.022361
   130  H    0.014345
   131  H    0.016050
   132  H    0.014084
   133  H    0.037854
   134  H    0.020632
   135  H    0.019560
   136  H    0.008695
   137  H    0.025766
   138  H    0.039596
   139  H    0.038210
   140  H    0.035685
   141  H    0.033828
   142  H    0.014209
   143  H    0.012209
   144  H    0.024704
   145  H    0.011442
   146  H    0.005532
   147  H    0.005690
   148  H    0.004052
   149  H    0.010139
   150  H    0.019675
   151  H    0.030518
   152  H    0.046807
   153  H    0.008959
   154  H    0.046616
   155  H    0.034815
   156  H    0.043771
   157  H    0.049293
   158  H    0.053602
 Sum of Mulliken charges =  -0.00000

 Dipole moment (field-independent basis, Debye):
    X=             -0.0230    Y=             -0.0317    Z=              7.1955  Tot=              7.1956
 Quadrupole moment (field-independent basis, Debye-Ang):
   XX=           -457.6040   YY=           -463.3084   ZZ=           -540.0380
   XY=             29.0035   XZ=             -0.0659   YZ=              0.3698

 Normal termination of Gaussian 16 at Sat Sep 11 06:47:08 2021.
