 Gaussian 16, Revision A.03,
 Gaussian 16:  ES64L-G16RevA.03 25-Dec-2016

 -----------------------------------
 #p cam-b3lyp/Def2SVP td=(nstates=5)
 -----------------------------------

 --------------------------------
 TDDFT excited states in gaussian
 --------------------------------
 Symbolic Z-matrix:
 Charge =  0 Multiplicity = 1

                         Standard orientation:
 ---------------------------------------------------------------------
 Center     Atomic      Atomic             Coordinates (Angstroms)
 Number     Number       Type             X           Y           Z
 ---------------------------------------------------------------------
      1         12           0        5.100427    1.042457    0.420326
      2          6           0        5.987523   -2.090731   -1.065745
      3          6           0        5.722858    2.485747   -2.608297
      4          6           0        4.763800    3.868213    1.819757
      5          6           0        5.647762   -0.443115    3.525026
      6          7           0        5.763759    0.198934   -1.515934
      7          6           0        6.011532   -1.025936   -1.969227
      8          6           0        6.225276   -1.082474   -3.511462
      9          6           0        6.678090    0.426175   -3.758313
     10          6           0        5.985476    1.083915   -2.577810
     11          6           0        8.182555    0.640048   -3.626613
     12          6           0        4.904545   -1.417719   -4.282831
     13          6           0        5.087614   -1.811738   -5.751364
     14          1           0        4.208298   -2.821964   -6.320220
     15          7           0        4.751906    2.824351   -0.358287
     16          6           0        5.056684    3.233443   -1.613293
     17          6           0        4.597498    4.635917   -1.707606
     18          6           0        4.173512    5.068361   -0.346973
     19          6           0        4.575858    3.931485    0.441069
     20          6           0        4.546426    5.400194   -2.994859
     21          6           0        3.520408    6.313641    0.163776
     22          8           0        3.450340    6.582147    1.411802
     23          6           0        3.036962    7.266021   -0.852243
     24          7           0        5.402192    1.702766    2.377509
     25          6           0        5.125876    2.962796    2.731002
     26          6           0        5.147344    3.128924    4.221599
     27          6           0        5.258264    1.656323    4.828968
     28          6           0        5.369561    0.862347    3.504021
     29          6           0        6.281186    3.998750    4.781791
     30          6           0        4.174661    1.234493    5.852824
     31          6           0        2.832417    1.126746    5.164442
     32          7           0        5.536105   -0.956378    1.145507
     33          6           0        5.747003   -1.342897    2.476972
     34          6           0        6.115230   -2.770539    2.459204
     35          6           0        6.109082   -3.113398    1.108554
     36          6           0        5.784833   -1.965757    0.330045
     37          6           0        6.458661   -3.556785    3.594240
     38          6           0        6.325098   -4.176287    0.140329
     39          8           0        6.530594   -5.388602    0.214874
     40          6           0        6.374378   -3.527627   -1.313163
     41          6           0        5.488198   -4.350273   -2.208288
     42          8           0        4.252590   -4.377335   -2.035355
     43          8           0        6.198187   -4.781365   -3.262146
     44          6           0        5.370401   -5.579723   -4.205305
     45          1           0        6.112399    3.077786   -3.438772
     46          1           0        4.548807    4.797160    2.351992
     47          1           0        5.750441   -0.994736    4.461308
     48          1           0        7.010736   -1.764882   -3.836728
     49          1           0        6.285985    0.820579   -4.695554
     50          1           0        8.681479   -0.255781   -3.257172
     51          1           0        8.299004    1.460305   -2.918015
     52          1           0        8.607306    0.993483   -4.566532
     53          1           0        4.319518   -0.506435   -4.406790
     54          1           0        4.344200   -2.198429   -3.767241
     55          1           0        6.129528   -2.042398   -5.975240
     56          1           0        4.864053   -0.941714   -6.368842
     57          1           0        5.075425    4.878648   -3.791537
     58          1           0        5.117250    6.316245   -2.844130
     59          1           0        3.525136    5.647036   -3.285320
     60          1           0        3.873059    7.581009   -1.476961
     61          1           0        2.519825    8.053139   -0.304644
     62          1           0        2.337180    6.752912   -1.512527
     63          1           0        4.228300    3.593436    4.576580
     64          1           0        6.198764    1.502032    5.358429
     65          1           0        5.932350    4.841004    5.379810
     66          1           0        6.889948    4.339076    3.944606
     67          1           0        7.016524    3.461459    5.380135
     68          1           0        4.075593    1.988909    6.632560
     69          1           0        4.388556    0.282107    6.338068
     70          1           0        2.474573    2.155715    5.166338
     71          1           0        2.163907    0.479861    5.733516
     72          1           0        2.942196    0.821852    4.123541
     73          1           0        5.948298   -4.511743    3.469525
     74          1           0        6.160491   -3.066300    4.520589
     75          1           0        7.541214   -3.612717    3.481071
     76          1           0        7.415723   -3.553097   -1.632652
     77          1           0        5.862571   -6.544762   -4.326563
     78          1           0        5.235318   -4.965227   -5.095559
     79          1           0        4.391116   -5.892453   -3.841245
     80         12           0       -5.261148   -1.146233    0.310791
     81          6           0       -5.671036    1.881992   -1.570939
     82          6           0       -4.808611    0.806373    3.070705
     83          6           0       -4.451014   -3.765096    1.908513
     84          6           0       -4.611079   -2.768045   -2.704641
     85          7           0       -5.263074    1.048271    0.587190
     86          6           0       -5.490882    2.097294   -0.188687
     87          6           0       -5.607526    3.445942    0.571004
     88          6           0       -4.763183    3.057963    1.880745
     89          6           0       -4.982317    1.546473    1.873976
     90          6           0       -3.274081    3.325343    1.737864
     91          6           0       -7.092619    3.803267    0.929957
     92          6           0       -7.312912    5.244415    1.395056
     93          1           0       -8.556198    5.913677    1.022508
     94          7           0       -5.193525   -1.489492    2.264294
     95          6           0       -5.026583   -0.577931    3.245359
     96          6           0       -5.027430   -1.337840    4.505003
     97          6           0       -5.043255   -2.789384    4.177139
     98          6           0       -4.871791   -2.736701    2.739118
     99          6           0       -5.094117   -0.679498    5.852430
    100          6           0       -5.176203   -4.021500    5.019998
    101          8           0       -4.924885   -5.187910    4.551848
    102          6           0       -5.518691   -3.814269    6.434652
    103          7           0       -4.416819   -2.952551   -0.278027
    104          6           0       -4.216943   -3.943727    0.608273
    105          6           0       -3.859736   -5.234876   -0.088685
    106          6           0       -4.098894   -4.962702   -1.646344
    107          6           0       -4.484472   -3.468352   -1.585841
    108          6           0       -2.431233   -5.734125    0.126991
    109          6           0       -5.045806   -5.940683   -2.394401
    110          6           0       -6.461100   -5.776638   -1.888999
    111          7           0       -5.333147   -0.622407   -1.784076
    112          6           0       -4.995826   -1.445091   -2.881113
    113          6           0       -5.093360   -0.611346   -4.096750
    114          6           0       -5.461226    0.654576   -3.616528
    115          6           0       -5.564597    0.617824   -2.199671
    116          6           0       -4.808974   -1.039465   -5.424142
    117          6           0       -5.775250    2.016287   -3.985085
    118          8           0       -5.932978    2.613944   -5.048884
    119          6           0       -5.801780    2.903401   -2.666489
    120          6           0       -7.049550    3.742870   -2.696469
    121          8           0       -8.171460    3.210040   -2.633130
    122          8           0       -6.711255    5.039541   -2.575822
    123          6           0       -7.916159    5.911241   -2.589121
    124          1           0       -4.428888    1.325398    3.951226
    125          1           0       -4.265844   -4.722760    2.400516
    126          1           0       -4.519400   -3.224449   -3.692555
    127          1           0       -5.149706    4.290520    0.070151
    128          1           0       -5.194248    3.501746    2.774393
    129          1           0       -3.012736    3.622796    0.733196
    130          1           0       -2.782276    2.397061    1.997627
    131          1           0       -2.949313    4.057246    2.482970
    132          1           0       -7.379772    3.265334    1.842598
    133          1           0       -7.746372    3.584886    0.108035
    134          1           0       -6.450507    5.885135    1.174398
    135          1           0       -7.379406    5.250734    2.485720
    136          1           0       -4.904569    0.398772    5.783114
    137          1           0       -4.253599   -1.065867    6.439044
    138          1           0       -6.024182   -0.896953    6.381906
    139          1           0       -4.762176   -3.187905    6.901350
    140          1           0       -5.656891   -4.813848    6.851331
    141          1           0       -6.462714   -3.260622    6.488582
    142          1           0       -4.509973   -6.039793    0.231307
    143          1           0       -3.161718   -5.022492   -2.219024
    144          1           0       -2.384976   -6.756386    0.547618
    145          1           0       -1.918695   -5.033637    0.772860
    146          1           0       -1.802178   -5.731969   -0.761538
    147          1           0       -4.760794   -6.975395   -2.188787
    148          1           0       -5.036267   -5.811991   -3.471597
    149          1           0       -6.474335   -6.395709   -0.986964
    150          1           0       -7.175383   -6.137860   -2.626133
    151          1           0       -6.651727   -4.741876   -1.581464
    152          1           0       -5.592957   -0.641201   -6.054423
    153          1           0       -4.757740   -2.124302   -5.489614
    154          1           0       -3.831923   -0.572558   -5.574550
    155          1           0       -4.897793    3.513625   -2.663949
    156          1           0       -7.772226    6.643061   -3.390008
    157          1           0       -8.012257    6.303817   -1.559369
    158          1           0       -8.857549    5.460660   -2.881033
 ---------------------------------------------------------------------

 SCF Done:  E(RCAM-B3LYP) =  -4069.81202324     A.U. after   19 cycles

 Excitation energies and oscillator strengths:

 Excited State   1:      Singlet-A      1.6647 eV  744.77 nm  f=0.1534  <S**2>=0.000
     309 -> 315       -0.10461
     310 -> 316       -0.13564
     311 -> 313       -0.41968
     312 -> 314        0.54345
 This state for optimization and/or second-order correction.
 Total Energy, E(TD-HF/TD-DFT) =  -4069.75084517
 Copying the excited state density for this state as the 1-particle RhoCI density.

 Excited State   2:      Singlet-A      1.6868 eV  735.03 nm  f=0.5549  <S**2>=0.000
     309 -> 315        0.14013
     310 -> 316       -0.10775
     311 -> 313        0.54220
     312 -> 314        0.41875

 Excited State   3:      Singlet-A      2.1836 eV  567.79 nm  f=0.0659  <S**2>=0.000
     309 -> 313        0.21216
     310 -> 314        0.60760
     312 -> 316        0.25566

 Excited State   4:      Singlet-A      2.1936 eV  565.20 nm  f=0.1260  <S**2>=0.000
     309 -> 313        0.60446
     310 -> 314       -0.21025
     311 -> 315       -0.26348

 Excited State   5:      Singlet-A      2.4847 eV  498.98 nm  f=0.0000  <S**2>=0.000
     312 -> 313        0.70709

 The electronic state is 1-A.
 Alpha  occ. eigenvalues --  -46.87886 -46.87495 -19.26371 -19.26294 -19.19113
 Alpha  occ. eigenvalues --  -19.19090 -19.18925 -19.18564 -19.18247 -19.17953
 Alpha  occ. eigenvalues --  -14.42533 -14.42335 -14.41546 -14.41174 -14.39492
 Alpha  occ. eigenvalues --  -14.39191 -14.38673 -14.38445 -10.39171 -10.39017
 Alpha  occ. eigenvalues --  -10.35556 -10.35243 -10.34467 -10.34131 -10.31767
 Alpha  occ. eigenvalues --  -10.31718 -10.31481 -10.31162 -10.30988 -10.30870
 Alpha  occ. eigenvalues --  -10.30651 -10.30603 -10.30309 -10.30239 -10.30218
 Alpha  occ. eigenvalues --  -10.30025 -10.29941 -10.29717 -10.29700 -10.29341
 Alpha  occ. eigenvalues --  -10.29270 -10.29260 -10.28811 -10.28588 -10.28581
 Alpha  occ. eigenvalues --  -10.28559 -10.28448 -10.28257 -10.28174 -10.27990
 Alpha  occ. eigenvalues --  -10.27874 -10.27859 -10.27805 -10.27671 -10.27637
 Alpha  occ. eigenvalues --  -10.27587 -10.27527 -10.27510 -10.27489 -10.27347
 Alpha  occ. eigenvalues --  -10.27331 -10.27323 -10.27254 -10.27239 -10.27081
 Alpha  occ. eigenvalues --  -10.26956 -10.26760 -10.26581 -10.26504 -10.26360
 Alpha  occ. eigenvalues --  -10.26288 -10.26286 -10.26114 -10.25919 -10.25912
 Alpha  occ. eigenvalues --  -10.25846 -10.25761 -10.25753 -10.25563 -10.24947
 Alpha  occ. eigenvalues --  -10.24914 -10.24906 -10.24888 -10.24736 -10.24543
 Alpha  occ. eigenvalues --  -10.24506  -3.16629  -3.16244  -1.91511  -1.91126
 Alpha  occ. eigenvalues --   -1.91097  -1.90939  -1.90715  -1.90552  -1.16720
 Alpha  occ. eigenvalues --   -1.16584  -1.08705  -1.08568  -1.07329  -1.06876
 Alpha  occ. eigenvalues --   -1.06815  -1.06733  -1.04663  -1.04339  -1.03855
 Alpha  occ. eigenvalues --   -1.03497  -1.03324  -1.02864  -1.02502  -1.01944
 Alpha  occ. eigenvalues --   -0.92056  -0.91848  -0.89641  -0.89305  -0.89252
 Alpha  occ. eigenvalues --   -0.89004  -0.88409  -0.87992  -0.87948  -0.87754
 Alpha  occ. eigenvalues --   -0.87663  -0.87519  -0.87355  -0.86981  -0.85056
 Alpha  occ. eigenvalues --   -0.84853  -0.84070  -0.83651  -0.83068  -0.82769
 Alpha  occ. eigenvalues --   -0.82731  -0.82507  -0.81672  -0.81485  -0.80684
 Alpha  occ. eigenvalues --   -0.80310  -0.78876  -0.78495  -0.77313  -0.77018
 Alpha  occ. eigenvalues --   -0.76993  -0.76739  -0.76000  -0.75705  -0.75010
 Alpha  occ. eigenvalues --   -0.74557  -0.72862  -0.72543  -0.71761  -0.71390
 Alpha  occ. eigenvalues --   -0.70054  -0.69533  -0.68950  -0.68684  -0.67731
 Alpha  occ. eigenvalues --   -0.67447  -0.67291  -0.67071  -0.65363  -0.65136
 Alpha  occ. eigenvalues --   -0.64946  -0.64716  -0.64620  -0.64509  -0.64384
 Alpha  occ. eigenvalues --   -0.64001  -0.62391  -0.62162  -0.60535  -0.60174
 Alpha  occ. eigenvalues --   -0.59875  -0.59653  -0.59080  -0.58827  -0.58595
 Alpha  occ. eigenvalues --   -0.58272  -0.57669  -0.57452  -0.57412  -0.57063
 Alpha  occ. eigenvalues --   -0.56391  -0.56071  -0.56062  -0.55780  -0.55608
 Alpha  occ. eigenvalues --   -0.55456  -0.55330  -0.55066  -0.54635  -0.54312
 Alpha  occ. eigenvalues --   -0.53962  -0.53769  -0.53392  -0.53301  -0.53075
 Alpha  occ. eigenvalues --   -0.53010  -0.53007  -0.52836  -0.52770  -0.52590
 Alpha  occ. eigenvalues --   -0.52533  -0.52202  -0.51992  -0.51772  -0.51687
 Alpha  occ. eigenvalues --   -0.51531  -0.51289  -0.51064  -0.50653  -0.50330
 Alpha  occ. eigenvalues --   -0.50153  -0.50003  -0.49827  -0.49634  -0.49595
 Alpha  occ. eigenvalues --   -0.49348  -0.49296  -0.49166  -0.49075  -0.48967
 Alpha  occ. eigenvalues --   -0.48677  -0.48570  -0.48537  -0.48431  -0.48208
 Alpha  occ. eigenvalues --   -0.48140  -0.47783  -0.47441  -0.47383  -0.46944
 Alpha  occ. eigenvalues --   -0.46893  -0.46626  -0.46542  -0.46453  -0.46402
 Alpha  occ. eigenvalues --   -0.46259  -0.46112  -0.45903  -0.45903  -0.45694
 Alpha  occ. eigenvalues --   -0.45317  -0.44953  -0.44663  -0.44600  -0.44380
 Alpha  occ. eigenvalues --   -0.44326  -0.44253  -0.44163  -0.44102  -0.43988
 Alpha  occ. eigenvalues --   -0.43906  -0.43813  -0.43583  -0.43474  -0.43435
 Alpha  occ. eigenvalues --   -0.43220  -0.43118  -0.42834  -0.42817  -0.42768
 Alpha  occ. eigenvalues --   -0.42740  -0.42353  -0.42124  -0.41794  -0.41793
 Alpha  occ. eigenvalues --   -0.41609  -0.41520  -0.41304  -0.41227  -0.40961
 Alpha  occ. eigenvalues --   -0.40922  -0.40810  -0.40684  -0.40577  -0.40545
 Alpha  occ. eigenvalues --   -0.40296  -0.40276  -0.40102  -0.39600  -0.39208
 Alpha  occ. eigenvalues --   -0.38585  -0.38121  -0.37818  -0.37520  -0.37430
 Alpha  occ. eigenvalues --   -0.37336  -0.37084  -0.37045  -0.36812  -0.36666
 Alpha  occ. eigenvalues --   -0.36293  -0.36031  -0.34374  -0.34093  -0.33864
 Alpha  occ. eigenvalues --   -0.33773  -0.33277  -0.33014  -0.31455  -0.31127
 Alpha  occ. eigenvalues --   -0.31119  -0.30810  -0.30106  -0.29860  -0.29536
 Alpha  occ. eigenvalues --   -0.29404  -0.29183  -0.29074  -0.24169  -0.23873
 Alpha  occ. eigenvalues --   -0.21215  -0.20953
 Alpha virt. eigenvalues --   -0.08861  -0.08639  -0.01845  -0.01509  -0.00146
 Alpha virt. eigenvalues --    0.00114   0.02112   0.02340   0.03010   0.03385
 Alpha virt. eigenvalues --    0.04639   0.04890   0.05010   0.05244   0.06112

 Mulliken charges:
               1
     1  Mg   0.838658
     2  C   -0.002948
     3  C   -0.093500
     4  C   -0.046392
     5  C   -0.064018
     6  N   -0.256769
     7  C   -0.052317
     8  C   -0.014088
     9  C   -0.087088
    10  C    0.046281
    11  C    0.104734
    12  C    0.053348
    13  C   -0.071890
    14  H    0.035848
    15  N   -0.433132
    16  C    0.168325
    17  C   -0.176728
    18  C   -0.004202
    19  C    0.148607
    20  C    0.109966
    21  C    0.011684
    22  O   -0.250554
    23  C    0.062550
    24  N   -0.341032
    25  C    0.041258
    26  C   -0.028078
    27  C   -0.023877
    28  C    0.074572
    29  C    0.076166
    30  C    0.035263
    31  C   -0.004345
    32  N   -0.310523
    33  C    0.080378
    34  C   -0.169515
    35  C    0.008469
    36  C    0.082958
    37  C    0.127298
    38  C    0.046135
    39  O   -0.188227
    40  C   -0.005365
    41  C    0.213062
    42  O   -0.257609
    43  O   -0.304587
    44  C    0.157850
    45  H   -0.017145
    46  H   -0.017363
    47  H   -0.041552
    48  H    0.001046
    49  H   -0.003519
    50  H    0.025489
    51  H    0.016411
    52  H    0.017021
    53  H    0.011676
    54  H    0.043695
    55  H    0.017988
    56  H    0.018603
    57  H    0.006386
    58  H    0.026928
    59  H    0.040423
    60  H    0.037927
    61  H    0.035084
    62  H    0.031885
    63  H    0.015493
    64  H    0.009707
    65  H    0.022838
    66  H    0.012936
    67  H    0.004938
    68  H    0.005833
    69  H    0.005163
    70  H    0.007204
    71  H    0.017287
    72  H    0.029764
    73  H    0.047923
    74  H    0.009041
    75  H    0.046113
    76  H    0.035393
    77  H    0.043149
    78  H    0.046635
    79  H    0.052975
    80  Mg   0.838105
    81  C   -0.017232
    82  C   -0.088089
    83  C   -0.045037
    84  C   -0.063970
    85  N   -0.254681
    86  C   -0.050018
    87  C   -0.015020
    88  C   -0.090500
    89  C    0.045956
    90  C    0.114470
    91  C    0.062544
    92  C   -0.077694
    93  H    0.034229
    94  N   -0.423624
    95  C    0.163300
    96  C   -0.174727
    97  C   -0.007532
    98  C    0.152282
    99  C    0.099461
   100  C    0.015526
   101  O   -0.252525
   102  C    0.061273
   103  N   -0.350026
   104  C    0.038513
   105  C   -0.020583
   106  C   -0.034544
   107  C    0.089066
   108  C    0.072283
   109  C    0.034608
   110  C   -0.007542
   111  N   -0.323944
   112  C    0.078306
   113  C   -0.163423
   114  C    0.001668
   115  C    0.096248
   116  C    0.131673
   117  C    0.041702
   118  O   -0.189318
   119  C    0.001194
   120  C    0.211152
   121  O   -0.250997
   122  O   -0.305866
   123  C    0.152150
   124  H   -0.019738
   125  H   -0.014774
   126  H   -0.040634
   127  H   -0.001228
   128  H   -0.004534
   129  H    0.021684
   130  H    0.014797
   131  H    0.017583
   132  H    0.013884
   133  H    0.037404
   134  H    0.020787
   135  H    0.019648
   136  H    0.008636
   137  H    0.025765
   138  H    0.039519
   139  H    0.037933
   140  H    0.036334
   141  H    0.033611
   142  H    0.013793
   143  H    0.014082
   144  H    0.025137
   145  H    0.013834
   146  H    0.010030
   147  H    0.006674
   148  H    0.002961
   149  H    0.010958
   150  H    0.017198
   151  H    0.029669
   152  H    0.045337
   153  H    0.008562
   154  H    0.046017
   155  H    0.033882
   156  H    0.043233
   157  H    0.049649
   158  H    0.053491
 Sum of Mulliken charges =  -0.00000

 Dipole moment (field-independent basis, Debye):
    X=              3.3384    Y=              4.2779    Z=              1.0936  Tot=              5.5355
 Quadrupole moment (field-independent basis, Debye-Ang):
   XX=           -522.4388   YY=           -525.9851   ZZ=           -471.1874
   XY=             13.5868   XZ=            -46.2528   YZ=             22.7811

 Normal termination of Gaussian 16 at Sat Sep  4 03:31:41 2021.
