 Gaussian 16, Revision A.03,
 Gaussian 16:  ES64L-G16RevA.03 25-Dec-2016

 -----------------------------------
 #p cam-b3lyp/Def2SVP td=(nstates=5)
 -----------------------------------

 --------------------------------
 TDDFT excited states in gaussian
 --------------------------------
 Symbolic Z-matrix:
 Charge =  0 Multiplicity = 1

                         Standard orientation:
 ---------------------------------------------------------------------
 Center     Atomic      Atomic             Coordinates (Angstroms)
 Number     Number       Type             X           Y           Z
 ---------------------------------------------------------------------
      1         12           0        7.800214   -0.602543    0.388478
      2          6           0        8.186031    2.478453   -1.392202
      3          6           0        8.798484    1.065499    3.192788
      4          6           0        7.905416   -3.398031    1.882065
      5          6           0        7.941559   -2.228962   -2.690555
      6          7           0        8.388583    1.504033    0.730246
      7          6           0        8.436460    2.598062   -0.023398
      8          6           0        8.704003    3.898582    0.791736
      9          6           0        9.425592    3.256615    2.060272
     10          6           0        8.808707    1.869786    2.014633
     11          6           0       10.937013    3.127377    1.900877
     12          6           0        7.379820    4.630325    1.195249
     13          6           0        7.554587    6.064198    1.703991
     14          1           0        6.536877    7.051819    1.378080
     15          7           0        7.805043   -1.024598    2.318425
     16          6           0        8.231526   -0.220853    3.322114
     17          6           0        8.030891   -0.986912    4.570945
     18          6           0        7.630670   -2.371601    4.196037
     19          6           0        7.791882   -2.326888    2.765167
     20          6           0        8.171339   -0.386554    5.936081
     21          6           0        7.185266   -3.551504    5.000758
     22          8           0        7.109159   -4.725900    4.501183
     23          6           0        6.921777   -3.309636    6.430833
     24          7           0        8.127788   -2.554924   -0.273745
     25          6           0        8.062383   -3.590124    0.570689
     26          6           0        8.047694   -4.896223   -0.166758
     27          6           0        7.871107   -4.530049   -1.710937
     28          6           0        7.898637   -2.986231   -1.592025
     29          6           0        9.291381   -5.778360    0.009558
     30          6           0        6.686553   -5.191152   -2.459397
     31          6           0        5.377632   -4.659971   -1.919331
     32          7           0        7.845248   -0.005621   -1.697835
     33          6           0        7.926531   -0.849751   -2.814755
     34          6           0        8.038176    0.015820   -4.003195
     35          6           0        8.030722    1.311505   -3.490370
     36          6           0        7.947793    1.258088   -2.069609
     37          6           0        8.188016   -0.428378   -5.346575
     38          6           0        8.098344    2.728125   -3.810484
     39          8           0        8.083824    3.383062   -4.853719
     40          6           0        8.324387    3.537274   -2.457706
     41          6           0        7.347174    4.681024   -2.443516
     42          8           0        6.119739    4.472720   -2.357619
     43          8           0        8.015508    5.834926   -2.293914
     44          6           0        7.102092    7.007598   -2.242301
     45          1           0        9.321998    1.424070    4.081214
     46          1           0        7.834251   -4.382733    2.348686
     47          1           0        7.904603   -2.663682   -3.691108
     48          1           0        9.370537    4.610909    0.305169
     49          1           0        9.150294    3.763564    2.984899
     50          1           0       11.253888    3.379295    0.888924
     51          1           0       11.164972    2.084629    2.122699
     52          1           0       11.457937    3.715366    2.656975
     53          1           0        6.970279    4.164147    2.091360
     54          1           0        6.668868    4.625324    0.368298
     55          1           0        8.548405    6.449985    1.475072
     56          1           0        7.514792    6.047385    2.793181
     57          1           0        8.634543    0.598470    5.894678
     58          1           0        8.887342   -1.000690    6.481870
     59          1           0        7.223093   -0.362317    6.473273
     60          1           0        7.826709   -2.927785    6.903947
     61          1           0        6.527845   -4.245140    6.826436
     62          1           0        6.172102   -2.523305    6.523678
     63          1           0        7.210145   -5.515609    0.151517
     64          1           0        8.745761   -4.807541   -2.299709
     65          1           0        9.070463   -6.775386    0.391447
     66          1           0        9.986475   -5.253852    0.664558
     67          1           0        9.893863   -5.904017   -0.889688
     68          1           0        6.687876   -6.268157   -2.295070
     69          1           0        6.708117   -5.019856   -3.535707
     70          1           0        5.206727   -5.281205   -1.040870
     71          1           0        4.581526   -4.793195   -2.652596
     72          1           0        5.477350   -3.630163   -1.575765
     73          1           0        7.523489    0.191216   -5.948635
     74          1           0        7.940690   -1.485224   -5.444096
     75          1           0        9.247718   -0.230944   -5.507529
     76          1           0        9.357929    3.881970   -2.467585
     77          1           0        7.421555    7.697905   -3.023104
     78          1           0        7.116239    7.366333   -1.212973
     79          1           0        6.068116    6.826607   -2.538064
     80         12           0       -8.034736    0.386968    0.484713
     81          6           0       -7.480169   -1.450614   -2.547580
     82          6           0       -8.229778   -2.615122    2.092205
     83          6           0       -8.969574    1.950986    3.082278
     84          6           0       -8.924454    3.114082   -1.494416
     85          7           0       -7.860191   -1.694734   -0.242150
     86          6           0       -7.587613   -2.269253   -1.404021
     87          6           0       -7.341286   -3.799699   -1.322683
     88          6           0       -8.157894   -4.103325    0.026338
     89          6           0       -8.050956   -2.732214    0.690633
     90          6           0       -9.627873   -4.403927   -0.214734
     91          6           0       -5.820572   -4.152840   -1.165405
     92          6           0       -5.476156   -5.626925   -1.389478
     93          1           0       -4.203210   -5.955428   -2.025218
     94          7           0       -8.047868   -0.176055    2.387710
     95          6           0       -8.107281   -1.437905    2.862576
     96          6           0       -8.111075   -1.316286    4.328645
     97          6           0       -8.215384    0.126213    4.679409
     98          6           0       -8.440872    0.700689    3.368215
     99          6           0       -7.941385   -2.494415    5.243326
    100          6           0       -8.139215    0.864902    5.981228
    101          8           0       -8.494463    2.092394    6.080695
    102          6           0       -7.725149    0.083023    7.155402
    103          7           0       -9.032865    2.189451    0.762474
    104          6           0       -9.268871    2.665831    1.997502
    105          6           0       -9.748113    4.097003    1.947750
    106          6           0       -9.553153    4.562857    0.430330
    107          6           0       -9.056601    3.234066   -0.180522
    108          6           0      -11.199498    4.327513    2.368136
    109          6           0       -8.711954    5.846465    0.190758
    110          6           0       -7.269040    5.595309    0.565343
    111          7           0       -8.009696    0.851621   -1.625147
    112          6           0       -8.450962    2.043058   -2.241468
    113          6           0       -8.341918    1.844309   -3.701276
    114          6           0       -7.862723    0.532395   -3.834544
    115          6           0       -7.704776   -0.052657   -2.549148
    116          6           0       -8.710788    2.789722   -4.699398
    117          6           0       -7.464676   -0.494218   -4.770660
    118          8           0       -7.306834   -0.544248   -5.989803
    119          6           0       -7.319342   -1.867266   -3.983249
    120          6           0       -6.015483   -2.498868   -4.387651
    121          8           0       -4.934140   -1.956886   -4.098561
    122          8           0       -6.252306   -3.738518   -4.854063
    123          6           0       -4.988107   -4.409884   -5.257665
    124          1           0       -8.534169   -3.499856    2.652095
    125          1           0       -9.204493    2.573045    3.949076
    126          1           0       -9.089562    3.950812   -2.176538
    127          1           0       -7.755767   -4.370843   -2.144739
    128          1           0       -7.659349   -4.858594    0.628323
    129          1           0       -9.907299   -4.247202   -1.245997
    130          1           0      -10.175639   -3.731156    0.432094
    131          1           0       -9.867355   -5.414259    0.129096
    132          1           0       -5.536855   -4.051951   -0.109907
    133          1           0       -5.218636   -3.539479   -1.807351
    134          1           0       -6.297373   -6.173898   -1.868422
    135          1           0       -5.365053   -6.109292   -0.415320
    136          1           0       -8.053786   -3.442549    4.703120
    137          1           0       -8.783465   -2.479375    5.943705
    138          1           0       -7.009054   -2.456289    5.810746
    139          1           0       -8.413935   -0.746204    7.298304
    140          1           0       -7.643983    0.802963    7.972089
    141          1           0       -6.741547   -0.355960    6.954274
    142          1           0       -9.146356    4.728869    2.589408
    143          1           0      -10.514712    4.790814   -0.052651
    144          1           0      -11.303644    5.050476    3.199130
    145          1           0      -11.632439    3.373351    2.637722
    146          1           0      -11.862319    4.665692    1.573460
    147          1           0       -9.063680    6.655588    0.835545
    148          1           0       -8.755826    6.207087   -0.831499
    149          1           0       -7.264676    5.750339    1.648417
    150          1           0       -6.613844    6.303802    0.062561
    151          1           0       -6.990476    4.551304    0.380667
    152          1           0       -7.925943    2.778612   -5.443972
    153          1           0       -8.844285    3.783096   -4.276133
    154          1           0       -9.656173    2.357261   -5.037778
    155          1           0       -8.175160   -2.489204   -4.248507
    156          1           0       -5.110307   -4.721294   -6.299677
    157          1           0       -4.821581   -5.207747   -4.509713
    158          1           0       -4.095063   -3.799402   -5.322720
 ---------------------------------------------------------------------

 SCF Done:  E(RCAM-B3LYP) =  -4069.81158045     A.U. after   19 cycles

 Excitation energies and oscillator strengths:

 Excited State   1:      Singlet-A      1.6698 eV  742.50 nm  f=0.0174  <S**2>=0.000
     309 -> 315        0.10458
     310 -> 316       -0.13695
     311 -> 313        0.54648
     312 -> 314        0.41527
 This state for optimization and/or second-order correction.
 Total Energy, E(TD-HF/TD-DFT) =  -4069.75021541
 Copying the excited state density for this state as the 1-particle RhoCI density.

 Excited State   2:      Singlet-A      1.6852 eV  735.74 nm  f=0.7399  <S**2>=0.000
     309 -> 315        0.14071
     310 -> 316        0.10642
     311 -> 313       -0.41475
     312 -> 314        0.54565

 Excited State   3:      Singlet-A      2.1853 eV  567.34 nm  f=0.0611  <S**2>=0.000
     309 -> 314        0.14105
     310 -> 313        0.62705
     311 -> 316        0.26598

 Excited State   4:      Singlet-A      2.1922 eV  565.56 nm  f=0.1331  <S**2>=0.000
     309 -> 314        0.62515
     310 -> 313       -0.14011
     312 -> 315       -0.27142

 Excited State   5:      Singlet-A      2.8027 eV  442.37 nm  f=0.0000  <S**2>=0.000
     312 -> 313        0.70710

 The electronic state is 1-A.
 Alpha  occ. eigenvalues --  -46.87705 -46.87593 -19.26261 -19.26161 -19.19064
 Alpha  occ. eigenvalues --  -19.18891 -19.18754 -19.18668 -19.18064 -19.17975
 Alpha  occ. eigenvalues --  -14.42432 -14.42359 -14.41362 -14.41294 -14.39314
 Alpha  occ. eigenvalues --  -14.39287 -14.38530 -14.38491 -10.38998 -10.38954
 Alpha  occ. eigenvalues --  -10.35389 -10.35347 -10.34283 -10.34151 -10.31670
 Alpha  occ. eigenvalues --  -10.31554 -10.31309 -10.31239 -10.30959 -10.30820
 Alpha  occ. eigenvalues --  -10.30474 -10.30417 -10.30331 -10.30291 -10.30128
 Alpha  occ. eigenvalues --  -10.30082 -10.29832 -10.29829 -10.29541 -10.29375
 Alpha  occ. eigenvalues --  -10.29336 -10.29170 -10.28654 -10.28651 -10.28581
 Alpha  occ. eigenvalues --  -10.28434 -10.28338 -10.28273 -10.28076 -10.28025
 Alpha  occ. eigenvalues --  -10.27934 -10.27701 -10.27638 -10.27605 -10.27499
 Alpha  occ. eigenvalues --  -10.27461 -10.27428 -10.27417 -10.27416 -10.27411
 Alpha  occ. eigenvalues --  -10.27403 -10.27380 -10.27322 -10.27311 -10.27052
 Alpha  occ. eigenvalues --  -10.26974 -10.26616 -10.26599 -10.26385 -10.26370
 Alpha  occ. eigenvalues --  -10.26150 -10.26110 -10.26076 -10.25969 -10.25931
 Alpha  occ. eigenvalues --  -10.25869 -10.25773 -10.25735 -10.25378 -10.25354
 Alpha  occ. eigenvalues --  -10.24804 -10.24737 -10.24703 -10.24660 -10.24627
 Alpha  occ. eigenvalues --  -10.24603  -3.16447  -3.16343  -1.91329  -1.91225
 Alpha  occ. eigenvalues --   -1.90916  -1.90814  -1.90758  -1.90651  -1.16554
 Alpha  occ. eigenvalues --   -1.16509  -1.08579  -1.08519  -1.07157  -1.06922
 Alpha  occ. eigenvalues --   -1.06851  -1.06515  -1.04490  -1.04429  -1.03673
 Alpha  occ. eigenvalues --   -1.03598  -1.03144  -1.02973  -1.02321  -1.02045
 Alpha  occ. eigenvalues --   -0.91917  -0.91876  -0.89436  -0.89430  -0.89094
 Alpha  occ. eigenvalues --   -0.89085  -0.88207  -0.88160  -0.87772  -0.87723
 Alpha  occ. eigenvalues --   -0.87618  -0.87583  -0.87198  -0.87065  -0.84934
 Alpha  occ. eigenvalues --   -0.84890  -0.83855  -0.83814  -0.82902  -0.82882
 Alpha  occ. eigenvalues --   -0.82590  -0.82560  -0.81522  -0.81482  -0.80503
 Alpha  occ. eigenvalues --   -0.80374  -0.78714  -0.78574  -0.77130  -0.77080
 Alpha  occ. eigenvalues --   -0.76839  -0.76830  -0.75827  -0.75771  -0.74817
 Alpha  occ. eigenvalues --   -0.74743  -0.72683  -0.72633  -0.71585  -0.71518
 Alpha  occ. eigenvalues --   -0.69828  -0.69695  -0.68783  -0.68762  -0.67553
 Alpha  occ. eigenvalues --   -0.67537  -0.67136  -0.67130  -0.65203  -0.65191
 Alpha  occ. eigenvalues --   -0.64759  -0.64703  -0.64585  -0.64528  -0.64185
 Alpha  occ. eigenvalues --   -0.64140  -0.62202  -0.62191  -0.60365  -0.60282
 Alpha  occ. eigenvalues --   -0.59730  -0.59711  -0.58927  -0.58897  -0.58412
 Alpha  occ. eigenvalues --   -0.58358  -0.57479  -0.57476  -0.57221  -0.57173
 Alpha  occ. eigenvalues --   -0.56220  -0.56138  -0.55870  -0.55811  -0.55438
 Alpha  occ. eigenvalues --   -0.55390  -0.55249  -0.55180  -0.54426  -0.54417
 Alpha  occ. eigenvalues --   -0.53845  -0.53801  -0.53216  -0.53166  -0.53134
 Alpha  occ. eigenvalues --   -0.53076  -0.52831  -0.52817  -0.52680  -0.52616
 Alpha  occ. eigenvalues --   -0.52356  -0.52336  -0.51812  -0.51810  -0.51594
 Alpha  occ. eigenvalues --   -0.51526  -0.51131  -0.51100  -0.50508  -0.50427
 Alpha  occ. eigenvalues --   -0.49954  -0.49920  -0.49843  -0.49810  -0.49430
 Alpha  occ. eigenvalues --   -0.49429  -0.49136  -0.49122  -0.49037  -0.49003
 Alpha  occ. eigenvalues --   -0.48495  -0.48488  -0.48388  -0.48359  -0.48315
 Alpha  occ. eigenvalues --   -0.48283  -0.47609  -0.47532  -0.47214  -0.47059
 Alpha  occ. eigenvalues --   -0.46708  -0.46643  -0.46489  -0.46462  -0.46270
 Alpha  occ. eigenvalues --   -0.46205  -0.46069  -0.46017  -0.45748  -0.45718
 Alpha  occ. eigenvalues --   -0.45149  -0.45123  -0.44480  -0.44446  -0.44427
 Alpha  occ. eigenvalues --   -0.44411  -0.44063  -0.44060  -0.44014  -0.44000
 Alpha  occ. eigenvalues --   -0.43928  -0.43878  -0.43479  -0.43392  -0.43319
 Alpha  occ. eigenvalues --   -0.43299  -0.42936  -0.42857  -0.42826  -0.42604
 Alpha  occ. eigenvalues --   -0.42553  -0.42492  -0.41920  -0.41897  -0.41611
 Alpha  occ. eigenvalues --   -0.41600  -0.41442  -0.41393  -0.41054  -0.40926
 Alpha  occ. eigenvalues --   -0.40783  -0.40753  -0.40667  -0.40637  -0.40488
 Alpha  occ. eigenvalues --   -0.40431  -0.40160  -0.40139  -0.39362  -0.39362
 Alpha  occ. eigenvalues --   -0.38388  -0.38290  -0.37651  -0.37584  -0.37237
 Alpha  occ. eigenvalues --   -0.37202  -0.37168  -0.37131  -0.36688  -0.36604
 Alpha  occ. eigenvalues --   -0.36147  -0.36094  -0.34194  -0.34186  -0.33770
 Alpha  occ. eigenvalues --   -0.33648  -0.33108  -0.33093  -0.31283  -0.31226
 Alpha  occ. eigenvalues --   -0.30946  -0.30908  -0.29922  -0.29878  -0.29364
 Alpha  occ. eigenvalues --   -0.29265  -0.29226  -0.29142  -0.23989  -0.23969
 Alpha  occ. eigenvalues --   -0.21052  -0.21038
 Alpha virt. eigenvalues --   -0.08727  -0.08686  -0.01664  -0.01621   0.00022
 Alpha virt. eigenvalues --    0.00030   0.02277   0.02296   0.03235   0.03311
 Alpha virt. eigenvalues --    0.04796   0.04810   0.05219   0.05254   0.06252

 Mulliken charges:
               1
     1  Mg   0.839169
     2  C   -0.002756
     3  C   -0.094085
     4  C   -0.045995
     5  C   -0.063921
     6  N   -0.256757
     7  C   -0.052356
     8  C   -0.014044
     9  C   -0.087010
    10  C    0.046314
    11  C    0.104866
    12  C    0.053468
    13  C   -0.071819
    14  H    0.036391
    15  N   -0.433048
    16  C    0.168325
    17  C   -0.177279
    18  C   -0.004215
    19  C    0.148682
    20  C    0.110217
    21  C    0.012091
    22  O   -0.250066
    23  C    0.062571
    24  N   -0.341158
    25  C    0.041215
    26  C   -0.028056
    27  C   -0.023974
    28  C    0.074942
    29  C    0.076264
    30  C    0.035130
    31  C   -0.004434
    32  N   -0.310603
    33  C    0.080722
    34  C   -0.169284
    35  C    0.008512
    36  C    0.083318
    37  C    0.127194
    38  C    0.046479
    39  O   -0.188046
    40  C   -0.005476
    41  C    0.212838
    42  O   -0.256467
    43  O   -0.304974
    44  C    0.157591
    45  H   -0.017792
    46  H   -0.017209
    47  H   -0.041422
    48  H    0.000913
    49  H   -0.004087
    50  H    0.025431
    51  H    0.016322
    52  H    0.016502
    53  H    0.011247
    54  H    0.044501
    55  H    0.017706
    56  H    0.017824
    57  H    0.005859
    58  H    0.026543
    59  H    0.039321
    60  H    0.037323
    61  H    0.035096
    62  H    0.031412
    63  H    0.016245
    64  H    0.009345
    65  H    0.022841
    66  H    0.012504
    67  H    0.004644
    68  H    0.005888
    69  H    0.004890
    70  H    0.008241
    71  H    0.018426
    72  H    0.029529
    73  H    0.048202
    74  H    0.009176
    75  H    0.045840
    76  H    0.035008
    77  H    0.042876
    78  H    0.046243
    79  H    0.054132
    80  Mg   0.838169
    81  C   -0.016630
    82  C   -0.087777
    83  C   -0.045583
    84  C   -0.064895
    85  N   -0.254528
    86  C   -0.049773
    87  C   -0.015085
    88  C   -0.090528
    89  C    0.045759
    90  C    0.114413
    91  C    0.062492
    92  C   -0.077856
    93  H    0.034992
    94  N   -0.423428
    95  C    0.162883
    96  C   -0.174734
    97  C   -0.007962
    98  C    0.152097
    99  C    0.099422
   100  C    0.015451
   101  O   -0.253432
   102  C    0.061248
   103  N   -0.350094
   104  C    0.037495
   105  C   -0.019781
   106  C   -0.034825
   107  C    0.089029
   108  C    0.073736
   109  C    0.034746
   110  C   -0.007686
   111  N   -0.324220
   112  C    0.078698
   113  C   -0.162833
   114  C    0.002361
   115  C    0.096462
   116  C    0.131399
   117  C    0.042695
   118  O   -0.187560
   119  C    0.000761
   120  C    0.211256
   121  O   -0.250399
   122  O   -0.305807
   123  C    0.151961
   124  H   -0.019816
   125  H   -0.015797
   126  H   -0.040385
   127  H   -0.000713
   128  H   -0.004341
   129  H    0.022398
   130  H    0.014326
   131  H    0.016141
   132  H    0.014043
   133  H    0.038026
   134  H    0.020591
   135  H    0.019567
   136  H    0.008753
   137  H    0.025904
   138  H    0.039631
   139  H    0.038202
   140  H    0.036032
   141  H    0.033817
   142  H    0.014281
   143  H    0.012307
   144  H    0.024922
   145  H    0.011553
   146  H    0.005571
   147  H    0.006021
   148  H    0.003763
   149  H    0.010665
   150  H    0.018241
   151  H    0.030403
   152  H    0.046498
   153  H    0.008576
   154  H    0.046778
   155  H    0.034866
   156  H    0.043788
   157  H    0.049275
   158  H    0.054000
 Sum of Mulliken charges =  -0.00000

 Dipole moment (field-independent basis, Debye):
    X=              0.6359    Y=             -2.3976    Z=              6.8955  Tot=              7.3281
 Quadrupole moment (field-independent basis, Debye-Ang):
   XX=           -461.5465   YY=           -465.9322   ZZ=           -533.9136
   XY=             23.3056   XZ=             18.2385   YZ=             20.6593

 Normal termination of Gaussian 16 at Sat Sep 11 23:01:06 2021.
