 Gaussian 16, Revision A.03,
 Gaussian 16:  ES64L-G16RevA.03 25-Dec-2016

 -----------------------------------
 #p cam-b3lyp/Def2SVP td=(nstates=5)
 -----------------------------------

 --------------------------------
 TDDFT excited states in gaussian
 --------------------------------
 Symbolic Z-matrix:
 Charge =  0 Multiplicity = 1

                         Standard orientation:
 ---------------------------------------------------------------------
 Center     Atomic      Atomic             Coordinates (Angstroms)
 Number     Number       Type             X           Y           Z
 ---------------------------------------------------------------------
      1         12           0        4.022798   -1.608242    0.468648
      2          6           0        5.021146    1.737530   -0.319596
      3          6           0        4.706449   -0.884665    3.732407
      4          6           0        3.583711   -4.678885    1.128176
      5          6           0        4.506683   -2.387436   -2.893549
      6          7           0        4.762612    0.229554    1.456488
      7          6           0        5.050054    1.461925    1.049291
      8          6           0        5.311860    2.454541    2.221275
      9          6           0        5.739833    1.408737    3.346056
     10          6           0        4.997740    0.186054    2.835891
     11          6           0        7.234701    1.105926    3.359347
     12          6           0        4.022675    3.242439    2.632308
     13          6           0        4.258751    4.455029    3.537430
     14          1           0        3.418845    5.630853    3.366122
     15          7           0        3.660392   -2.510155    2.188551
     16          6           0        3.994522   -2.063834    3.423234
     17          6           0        3.508730   -3.088505    4.372306
     18          6           0        3.034376   -4.255770    3.578220
     19          6           0        3.436578   -3.867273    2.250560
     20          6           0        3.480692   -2.887983    5.856474
     21          6           0        2.339698   -5.525335    3.957374
     22          8           0        2.225932   -6.506878    3.146075
     23          6           0        1.867320   -5.625009    5.350201
     24          7           0        4.250669   -3.349707   -0.659629
     25          6           0        3.936998   -4.546769   -0.152051
     26          6           0        3.909488   -5.601657   -1.218068
     27          6           0        4.033105   -4.827621   -2.609234
     28          6           0        4.201579   -3.387929   -2.064096
     29          6           0        5.006991   -6.671099   -1.129811
     30          6           0        2.928004   -5.092982   -3.662208
     31          6           0        1.609958   -4.534100   -3.174863
     32          7           0        4.478537   -0.506241   -1.344895
     33          6           0        4.656918   -1.035991   -2.631060
     34          6           0        5.055765    0.081114   -3.506883
     35          6           0        5.098074    1.187263   -2.660426
     36          6           0        4.773396    0.781641   -1.334400
     37          6           0        5.381066   -0.018240   -4.888455
     38          6           0        5.366035    2.612942   -2.562991
     39          8           0        5.594874    3.509814   -3.375853
     40          6           0        5.445803    3.003567   -1.021279
     41          6           0        4.604997    4.234808   -0.820279
     42          8           0        3.365546    4.192791   -0.959423
     43          8           0        5.355777    5.200698   -0.268982
     44          6           0        4.574272    6.440593   -0.015872
     45          1           0        5.108456   -0.847909    4.746794
     46          1           0        3.332907   -5.729364    1.289507
     47          1           0        4.592473   -2.538968   -3.971107
     48          1           0        6.121190    3.163172    2.044497
     49          1           0        5.368187    1.694409    4.329923
     50          1           0        7.741052    1.561474    2.508461
     51          1           0        7.312044    0.019550    3.311388
     52          1           0        7.680299    1.396317    4.311130
     53          1           0        3.422470    2.625685    3.301210
     54          1           0        3.463589    3.554835    1.749609
     55          1           0        5.311670    4.737551    3.558691
     56          1           0        4.035681    4.163652    4.563851
     57          1           0        4.044690   -2.004148    6.151918
     58          1           0        4.027065   -3.719845    6.300535
     59          1           0        2.463716   -2.865133    6.248354
     60          1           0        2.715190   -5.514477    6.026550
     61          1           0        1.317126   -6.563078    5.414725
     62          1           0        1.199048   -4.788617    5.557107
     63          1           0        2.970389   -6.153137   -1.198357
     64          1           0        4.960095   -5.068288   -3.130236
     65          1           0        4.622273   -7.689629   -1.072419
     66          1           0        5.633620   -6.440654   -0.268694
     67          1           0        5.734998   -6.646912   -1.940266
     68          1           0        2.789209   -6.164167   -3.804490
     69          1           0        3.147195   -4.654733   -4.635935
     70          1           0        1.230443   -5.329199   -2.534069
     71          1           0        0.938308   -4.355916   -4.015308
     72          1           0        1.757867   -3.653822   -2.548986
     73          1           0        4.895146    0.825848   -5.377705
     74          1           0        5.044446   -0.966307   -5.307331
     75          1           0        6.467509    0.057242   -4.846029
     76          1           0        6.496709    3.184514   -0.797722
     77          1           0        5.090302    7.254778   -0.524842
     78          1           0        4.453363    6.515457    1.064952
     79          1           0        3.591211    6.494942   -0.484888
     80         12           0       -4.735448    0.234498   -0.515857
     81          6           0       -2.461586    3.008568   -0.630484
     82          6           0       -5.564593    1.236930    2.637282
     83          6           0       -6.406714   -2.445246   -0.210418
     84          6           0       -2.931473   -1.173786   -3.144189
     85          7           0       -4.035544    1.920736    0.732730
     86          6           0       -3.214464    2.945699    0.560589
     87          6           0       -3.258916    4.003177    1.696088
     88          6           0       -3.806237    3.063940    2.878088
     89          6           0       -4.547350    2.023806    2.040499
     90          6           0       -2.701332    2.358798    3.647038
     91          6           0       -4.256160    5.173716    1.384050
     92          6           0       -4.123331    6.392903    2.299303
     93          1           0       -4.345889    7.718763    1.729190
     94          7           0       -6.175138   -0.242334    0.764180
     95          6           0       -6.377925    0.279538    1.992113
     96          6           0       -7.551684   -0.419663    2.537600
     97          6           0       -7.925382   -1.511945    1.598468
     98          6           0       -6.813310   -1.454175    0.671063
     99          6           0       -8.249709    0.018855    3.792146
    100          6           0       -9.084385   -2.460970    1.551068
    101          8           0       -9.084875   -3.485261    0.780572
    102          6           0      -10.178059   -2.208041    2.500488
    103          7           0       -4.555125   -1.646296   -1.383297
    104          6           0       -5.445379   -2.618329   -1.117721
    105          6           0       -5.275532   -3.785930   -2.060178
    106          6           0       -4.239953   -3.291763   -3.174155
    107          6           0       -3.907465   -1.893717   -2.608182
    108          6           0       -4.764544   -5.081089   -1.429434
    109          6           0       -4.694598   -3.400535   -4.655422
    110          6           0       -5.828727   -2.436444   -4.919313
    111          7           0       -3.128066    0.866788   -1.813765
    112          6           0       -2.505387    0.110611   -2.830905
    113          6           0       -1.391200    0.924685   -3.358453
    114          6           0       -1.428921    2.097859   -2.589868
    115          6           0       -2.478906    2.011994   -1.636102
    116          6           0       -0.482152    0.528392   -4.379588
    117          6           0       -0.812554    3.384949   -2.361395
    118          8           0        0.065233    4.039583   -2.922345
    119          6           0       -1.373704    3.979116   -0.998138
    120          6           0       -1.765056    5.410912   -1.241709
    121          8           0       -2.701616    5.687940   -2.011588
    122          8           0       -1.117443    6.199947   -0.365126
    123          6           0       -1.481292    7.628765   -0.559812
    124          1           0       -5.729337    1.329529    3.711129
    125          1           0       -7.021540   -3.348217   -0.220843
    126          1           0       -2.383215   -1.501432   -4.030040
    127          1           0       -2.296045    4.419186    1.967348
    128          1           0       -4.499647    3.600787    3.520232
    129          1           0       -1.733199    2.514126    3.194559
    130          1           0       -2.959812    1.308028    3.636229
    131          1           0       -2.719845    2.662919    4.697513
    132          1           0       -5.274302    4.855076    1.642115
    133          1           0       -4.174910    5.480520    0.359407
    134          1           0       -3.191524    6.374676    2.877537
    135          1           0       -4.909656    6.345624    3.056587
    136          1           0       -7.650073    0.746580    4.352730
    137          1           0       -8.302254   -0.854741    4.450887
    138          1           0       -9.262545    0.382232    3.605598
    139          1           0       -9.787835   -2.230585    3.515218
    140          1           0      -10.953255   -2.936193    2.254013
    141          1           0      -10.559815   -1.194799    2.332551
    142          1           0       -6.214211   -4.035955   -2.539221
    143          1           0       -3.305720   -3.871735   -3.147893
    144          1           0       -5.440383   -5.941889   -1.591729
    145          1           0       -4.614410   -4.909621   -0.371795
    146          1           0       -3.774195   -5.394206   -1.755578
    147          1           0       -5.083857   -4.401014   -4.859594
    148          1           0       -3.897080   -3.213890   -5.366840
    149          1           0       -6.707284   -2.987616   -4.570829
    150          1           0       -5.900185   -2.210516   -5.981336
    151          1           0       -5.734813   -1.538607   -4.297439
    152          1           0       -0.360698    1.379862   -5.035910
    153          1           0       -0.846668   -0.342539   -4.920302
    154          1           0        0.400046    0.297538   -3.776507
    155          1           0       -0.582418    3.892149   -0.252570
    156          1           0       -0.547575    8.177809   -0.715994
    157          1           0       -2.086866    7.905865    0.323507
    158          1           0       -2.031679    7.888099   -1.456622
 ---------------------------------------------------------------------

 SCF Done:  E(RCAM-B3LYP) =  -4069.80903535     A.U. after   19 cycles

 Excitation energies and oscillator strengths:

 Excited State   1:      Singlet-A      1.6446 eV  753.89 nm  f=0.0932  <S**2>=0.000
     309 -> 315       -0.11569
     310 -> 316       -0.11919
     311 -> 313       -0.47784
     312 -> 314        0.49431
 This state for optimization and/or second-order correction.
 Total Energy, E(TD-HF/TD-DFT) =  -4069.74859795
 Copying the excited state density for this state as the 1-particle RhoCI density.

 Excited State   2:      Singlet-A      1.7087 eV  725.59 nm  f=0.6256  <S**2>=0.000
     309 -> 315        0.13144
     310 -> 316       -0.12594
     311 -> 313        0.49161
     312 -> 314        0.47547

 Excited State   3:      Singlet-A      2.1812 eV  568.41 nm  f=0.0035  <S**2>=0.000
     309 -> 313        0.39441
     310 -> 314        0.50994
     311 -> 315       -0.16405
     312 -> 316        0.21376

 Excited State   4:      Singlet-A      2.1981 eV  564.04 nm  f=0.1666  <S**2>=0.000
     309 -> 313        0.50475
     310 -> 314       -0.38912
     311 -> 315       -0.22498
     312 -> 316       -0.17344

 Excited State   5:      Singlet-A      2.3440 eV  528.93 nm  f=0.0000  <S**2>=0.000
     312 -> 313        0.70665

 The electronic state is 1-A.
 Alpha  occ. eigenvalues --  -46.87732 -46.87334 -19.25922 -19.25885 -19.18763
 Alpha  occ. eigenvalues --  -19.18711 -19.18528 -19.18420 -19.17908 -19.17314
 Alpha  occ. eigenvalues --  -14.42392 -14.42198 -14.41394 -14.41030 -14.39335
 Alpha  occ. eigenvalues --  -14.39019 -14.38504 -14.38238 -10.38630 -10.38621
 Alpha  occ. eigenvalues --  -10.35400 -10.35105 -10.34129 -10.33490 -10.31469
 Alpha  occ. eigenvalues --  -10.31325 -10.31321 -10.30962 -10.30836 -10.30719
 Alpha  occ. eigenvalues --  -10.30479 -10.30427 -10.30186 -10.30033 -10.29978
 Alpha  occ. eigenvalues --  -10.29876 -10.29856 -10.29547 -10.29542 -10.29208
 Alpha  occ. eigenvalues --  -10.29138 -10.29032 -10.28694 -10.28547 -10.28496
 Alpha  occ. eigenvalues --  -10.28470 -10.28263 -10.28066 -10.28029 -10.27911
 Alpha  occ. eigenvalues --  -10.27687 -10.27670 -10.27597 -10.27526 -10.27508
 Alpha  occ. eigenvalues --  -10.27458 -10.27450 -10.27368 -10.27304 -10.27275
 Alpha  occ. eigenvalues --  -10.27214 -10.27129 -10.27112 -10.27102 -10.26908
 Alpha  occ. eigenvalues --  -10.26689 -10.26472 -10.26431 -10.26386 -10.26286
 Alpha  occ. eigenvalues --  -10.26187 -10.26182 -10.25981 -10.25945 -10.25873
 Alpha  occ. eigenvalues --  -10.25704 -10.25629 -10.25428 -10.25396 -10.25125
 Alpha  occ. eigenvalues --  -10.24874 -10.24721 -10.24707 -10.24534 -10.24451
 Alpha  occ. eigenvalues --  -10.24346  -3.16476  -3.16085  -1.91357  -1.90968
 Alpha  occ. eigenvalues --   -1.90944  -1.90785  -1.90556  -1.90392  -1.16221
 Alpha  occ. eigenvalues --   -1.16208  -1.08337  -1.07886  -1.07166  -1.06679
 Alpha  occ. eigenvalues --   -1.06478  -1.06161  -1.04511  -1.04176  -1.03703
 Alpha  occ. eigenvalues --   -1.03333  -1.03160  -1.02700  -1.02339  -1.01764
 Alpha  occ. eigenvalues --   -0.91836  -0.91566  -0.89502  -0.89185  -0.89136
 Alpha  occ. eigenvalues --   -0.88905  -0.88269  -0.87930  -0.87761  -0.87619
 Alpha  occ. eigenvalues --   -0.87404  -0.87362  -0.87217  -0.86812  -0.84928
 Alpha  occ. eigenvalues --   -0.84729  -0.83929  -0.83588  -0.82934  -0.82656
 Alpha  occ. eigenvalues --   -0.82570  -0.82368  -0.81398  -0.81228  -0.80472
 Alpha  occ. eigenvalues --   -0.80105  -0.78725  -0.78298  -0.77177  -0.76865
 Alpha  occ. eigenvalues --   -0.76854  -0.76605  -0.75799  -0.75518  -0.74847
 Alpha  occ. eigenvalues --   -0.74495  -0.72701  -0.72354  -0.71594  -0.71263
 Alpha  occ. eigenvalues --   -0.69946  -0.69507  -0.68810  -0.68542  -0.67545
 Alpha  occ. eigenvalues --   -0.67242  -0.67177  -0.66932  -0.65214  -0.64970
 Alpha  occ. eigenvalues --   -0.64762  -0.64516  -0.64448  -0.64331  -0.64233
 Alpha  occ. eigenvalues --   -0.63899  -0.62063  -0.61902  -0.60391  -0.60024
 Alpha  occ. eigenvalues --   -0.59738  -0.59508  -0.58901  -0.58646  -0.58396
 Alpha  occ. eigenvalues --   -0.58054  -0.57390  -0.57157  -0.57062  -0.56867
 Alpha  occ. eigenvalues --   -0.56218  -0.55859  -0.55749  -0.55534  -0.55440
 Alpha  occ. eigenvalues --   -0.55244  -0.55132  -0.54910  -0.54349  -0.54147
 Alpha  occ. eigenvalues --   -0.53831  -0.53653  -0.53229  -0.53141  -0.52911
 Alpha  occ. eigenvalues --   -0.52830  -0.52760  -0.52708  -0.52574  -0.52419
 Alpha  occ. eigenvalues --   -0.52407  -0.52136  -0.51778  -0.51545  -0.51452
 Alpha  occ. eigenvalues --   -0.51382  -0.51078  -0.50792  -0.50547  -0.50215
 Alpha  occ. eigenvalues --   -0.50040  -0.49866  -0.49716  -0.49581  -0.49439
 Alpha  occ. eigenvalues --   -0.49202  -0.49074  -0.49012  -0.48876  -0.48721
 Alpha  occ. eigenvalues --   -0.48472  -0.48372  -0.48296  -0.48209  -0.48069
 Alpha  occ. eigenvalues --   -0.47902  -0.47615  -0.47275  -0.47212  -0.46820
 Alpha  occ. eigenvalues --   -0.46744  -0.46488  -0.46410  -0.46293  -0.46284
 Alpha  occ. eigenvalues --   -0.46031  -0.45951  -0.45730  -0.45645  -0.45430
 Alpha  occ. eigenvalues --   -0.45168  -0.44901  -0.44484  -0.44411  -0.44246
 Alpha  occ. eigenvalues --   -0.44113  -0.44096  -0.44032  -0.43854  -0.43809
 Alpha  occ. eigenvalues --   -0.43770  -0.43511  -0.43355  -0.43302  -0.43226
 Alpha  occ. eigenvalues --   -0.43054  -0.42930  -0.42701  -0.42573  -0.42480
 Alpha  occ. eigenvalues --   -0.42339  -0.42273  -0.41971  -0.41684  -0.41576
 Alpha  occ. eigenvalues --   -0.41478  -0.41203  -0.41174  -0.41059  -0.40846
 Alpha  occ. eigenvalues --   -0.40787  -0.40657  -0.40535  -0.40458  -0.40447
 Alpha  occ. eigenvalues --   -0.40213  -0.40193  -0.39997  -0.39506  -0.39183
 Alpha  occ. eigenvalues --   -0.38462  -0.38084  -0.37708  -0.37411  -0.37293
 Alpha  occ. eigenvalues --   -0.37195  -0.36975  -0.36896  -0.36490  -0.36385
 Alpha  occ. eigenvalues --   -0.35933  -0.35889  -0.34207  -0.33910  -0.33428
 Alpha  occ. eigenvalues --   -0.33381  -0.33029  -0.32831  -0.31292  -0.30982
 Alpha  occ. eigenvalues --   -0.30945  -0.30636  -0.29766  -0.29371  -0.29212
 Alpha  occ. eigenvalues --   -0.29200  -0.28981  -0.28761  -0.24003  -0.23694
 Alpha  occ. eigenvalues --   -0.21062  -0.20783
 Alpha virt. eigenvalues --   -0.08691  -0.08426  -0.01692  -0.01371   0.00023
 Alpha virt. eigenvalues --    0.00313   0.02353   0.02620   0.03020   0.03590
 Alpha virt. eigenvalues --    0.04764   0.05005   0.05474   0.05642   0.06205

 Mulliken charges:
               1
     1  Mg   0.837630
     2  C   -0.002049
     3  C   -0.094651
     4  C   -0.046049
     5  C   -0.065579
     6  N   -0.256395
     7  C   -0.053259
     8  C   -0.013290
     9  C   -0.086845
    10  C    0.045614
    11  C    0.104884
    12  C    0.053411
    13  C   -0.071077
    14  H    0.035266
    15  N   -0.433099
    16  C    0.167858
    17  C   -0.177697
    18  C   -0.004319
    19  C    0.148637
    20  C    0.110331
    21  C    0.012146
    22  O   -0.250012
    23  C    0.062631
    24  N   -0.341029
    25  C    0.040896
    26  C   -0.028112
    27  C   -0.023793
    28  C    0.075013
    29  C    0.076190
    30  C    0.035340
    31  C   -0.004892
    32  N   -0.310811
    33  C    0.079211
    34  C   -0.169958
    35  C    0.010410
    36  C    0.083431
    37  C    0.126455
    38  C    0.051803
    39  O   -0.184812
    40  C   -0.007108
    41  C    0.212417
    42  O   -0.247444
    43  O   -0.306653
    44  C    0.156276
    45  H   -0.018051
    46  H   -0.017308
    47  H   -0.041899
    48  H    0.001541
    49  H   -0.004920
    50  H    0.025748
    51  H    0.016397
    52  H    0.016225
    53  H    0.009058
    54  H    0.045152
    55  H    0.018454
    56  H    0.016597
    57  H    0.005333
    58  H    0.026612
    59  H    0.038446
    60  H    0.037157
    61  H    0.035528
    62  H    0.030962
    63  H    0.015866
    64  H    0.009741
    65  H    0.022978
    66  H    0.012836
    67  H    0.004669
    68  H    0.006327
    69  H    0.004657
    70  H    0.008904
    71  H    0.014637
    72  H    0.029765
    73  H    0.050504
    74  H    0.007873
    75  H    0.045920
    76  H    0.034246
    77  H    0.041888
    78  H    0.043523
    79  H    0.058787
    80  Mg   0.836063
    81  C   -0.016705
    82  C   -0.088181
    83  C   -0.045947
    84  C   -0.066287
    85  N   -0.253933
    86  C   -0.050429
    87  C   -0.014443
    88  C   -0.090406
    89  C    0.044804
    90  C    0.114421
    91  C    0.062763
    92  C   -0.077013
    93  H    0.034196
    94  N   -0.423205
    95  C    0.161904
    96  C   -0.175695
    97  C   -0.008618
    98  C    0.151472
    99  C    0.099820
   100  C    0.014920
   101  O   -0.254130
   102  C    0.061473
   103  N   -0.350261
   104  C    0.037147
   105  C   -0.019552
   106  C   -0.035000
   107  C    0.089945
   108  C    0.073724
   109  C    0.034933
   110  C   -0.007478
   111  N   -0.324579
   112  C    0.078718
   113  C   -0.165007
   114  C    0.004888
   115  C    0.094615
   116  C    0.131116
   117  C    0.048666
   118  O   -0.173660
   119  C   -0.000147
   120  C    0.211293
   121  O   -0.252702
   122  O   -0.304420
   123  C    0.152958
   124  H   -0.021430
   125  H   -0.016414
   126  H   -0.041353
   127  H   -0.000820
   128  H   -0.005387
   129  H    0.022500
   130  H    0.013797
   131  H    0.013826
   132  H    0.013674
   133  H    0.038173
   134  H    0.019512
   135  H    0.018841
   136  H    0.007598
   137  H    0.024777
   138  H    0.038777
   139  H    0.037629
   140  H    0.035511
   141  H    0.033480
   142  H    0.013682
   143  H    0.012168
   144  H    0.024317
   145  H    0.012205
   146  H    0.005559
   147  H    0.005529
   148  H    0.002525
   149  H    0.010791
   150  H    0.017296
   151  H    0.030703
   152  H    0.046964
   153  H    0.005022
   154  H    0.052003
   155  H    0.043087
   156  H    0.041417
   157  H    0.047572
   158  H    0.053358
 Sum of Mulliken charges =  -0.00000

 Dipole moment (field-independent basis, Debye):
    X=              1.0529    Y=             -0.6182    Z=              7.8254  Tot=              7.9201
 Quadrupole moment (field-independent basis, Debye-Ang):
   XX=           -508.8697   YY=           -519.5294   ZZ=           -472.0086
   XY=            -23.1489   XZ=              2.5340   YZ=             56.8395

 Normal termination of Gaussian 16 at Fri Sep 10 02:29:54 2021.
