 Gaussian 16, Revision A.03,
 Gaussian 16:  ES64L-G16RevA.03 25-Dec-2016

 -----------------------------------
 #p cam-b3lyp/Def2SVP td=(nstates=5)
 -----------------------------------

 --------------------------------
 TDDFT excited states in gaussian
 --------------------------------
 Symbolic Z-matrix:
 Charge =  0 Multiplicity = 1

                         Standard orientation:
 ---------------------------------------------------------------------
 Center     Atomic      Atomic             Coordinates (Angstroms)
 Number     Number       Type             X           Y           Z
 ---------------------------------------------------------------------
      1         12           0       -6.561931   -0.687244   -0.338362
      2          6           0       -6.908613    1.911833    2.098198
      3          6           0       -7.328898    1.640421   -2.712558
      4          6           0       -6.708241   -3.048361   -2.450314
      5          6           0       -6.945047   -2.974552    2.263003
      6          7           0       -7.036605    1.470612   -0.200551
      7          6           0       -7.077511    2.360307    0.786333
      8          6           0       -7.241737    3.827615    0.288929
      9          6           0       -7.919896    3.539691   -1.125000
     10          6           0       -7.368530    2.147957   -1.379940
     11          6           0       -9.442054    3.461790   -1.066085
     12          6           0       -5.866168    4.557788    0.126482
     13          6           0       -5.948864    6.078132   -0.038046
     14          1           0       -4.907948    6.904295    0.554657
     15          7           0       -6.478854   -0.647974   -2.311787
     16          6           0       -6.813217    0.389731   -3.115937
     17          6           0       -6.578054   -0.074917   -4.499946
     18          6           0       -6.260900   -1.529008   -4.444045
     19          6           0       -6.498755   -1.809308   -3.051122
     20          6           0       -6.616150    0.833337   -5.690481
     21          6           0       -5.824448   -2.512471   -5.483488
     22          8           0       -5.828161   -3.773214   -5.271145
     23          6           0       -5.471918   -1.959823   -6.803846
     24          7           0       -7.011767   -2.718600   -0.168445
     25          6           0       -6.945756   -3.531042   -1.228900
     26          6           0       -7.029705   -4.971541   -0.819198
     27          6           0       -6.922625   -4.984980    0.773946
     28          6           0       -6.875113   -3.456783    1.020172
     29          6           0       -8.299619   -5.717413   -1.251637
     30          6           0       -5.811676   -5.867287    1.396636
     31          6           0       -4.452675   -5.299246    1.053789
     32          7           0       -6.695634   -0.590292    1.825839
     33          6           0       -6.875804   -1.665102    2.708447
     34          6           0       -7.014456   -1.094771    4.061062
     35          6           0       -6.921286    0.282140    3.867982
     36          6           0       -6.762460    0.556022    2.479438
     37          6           0       -7.257799   -1.830081    5.254601
     38          6           0       -6.943649    1.586983    4.508874
     39          8           0       -6.957765    1.979494    5.676447
     40          6           0       -7.058555    2.699888    3.375707
     41          6           0       -6.032333    3.759004    3.673112
     42          8           0       -4.812464    3.507977    3.593919
     43          8           0       -6.639598    4.951631    3.770122
     44          6           0       -5.673663    6.051107    4.035222
     45          1           0       -7.786141    2.224505   -3.513630
     46          1           0       -6.655114   -3.899953   -3.131787
     47          1           0       -6.982708   -3.631397    3.133973
     48          1           0       -7.901909    4.443446    0.899953
     49          1           0       -7.571758    4.231525   -1.891739
     50          1           0       -9.802862    3.488816   -0.037976
     51          1           0       -9.703392    2.513663   -1.536458
     52          1           0       -9.893856    4.237714   -1.684626
     53          1           0       -5.428817    4.290592   -0.835491
     54          1           0       -5.202896    4.320808    0.959090
     55          1           0       -6.935736    6.455147    0.231864
     56          1           0       -5.849756    6.312866   -1.097894
     57          1           0       -7.036832    1.806082   -5.438810
     58          1           0       -7.327422    0.404052   -6.395828
     59          1           0       -5.639540    0.928685   -6.165324
     60          1           0       -6.331528   -1.428353   -7.212696
     61          1           0       -5.098577   -2.798237   -7.390812
     62          1           0       -4.684155   -1.216715   -6.676688
     63          1           0       -6.204125   -5.545842   -1.237552
     64          1           0       -7.839898   -5.342346    1.242533
     65          1           0       -8.102342   -6.609063   -1.847243
     66          1           0       -8.933552   -5.016882   -1.794479
     67          1           0       -8.955824   -6.014795   -0.434094
     68          1           0       -5.851641   -6.874741    0.983858
     69          1           0       -5.885043   -5.950049    2.481080
     70          1           0       -4.261207   -5.707734    0.062170
     71          1           0       -3.704970   -5.643709    1.768978
     72          1           0       -4.487537   -4.213852    0.957924
     73          1           0       -6.600739   -1.405699    6.013641
     74          1           0       -7.063309   -2.892778    5.111593
     75          1           0       -8.314983   -1.616457    5.411387
     76          1           0       -8.074775    3.090166    3.421546
     77          1           0       -6.004863    6.557694    4.941815
     78          1           0       -5.615028    6.639586    3.119439
     79          1           0       -4.666638    5.748681    4.324666
     80         12           0        6.642288   -0.596805    0.356962
     81          6           0        6.569104    1.973719   -2.146258
     82          6           0        7.746128    1.774433    2.546344
     83          6           0        7.147553   -2.917202    2.461222
     84          6           0        6.646194   -2.927080   -2.234463
     85          7           0        7.063614    1.560786    0.112946
     86          6           0        6.940328    2.441656   -0.868501
     87          6           0        7.153264    3.917853   -0.438348
     88          6           0        8.057711    3.660903    0.863512
     89          6           0        7.572850    2.258445    1.225050
     90          6           0        9.544666    3.588353    0.558517
     91          6           0        5.806282    4.633319   -0.069884
     92          6           0        5.901047    6.155108    0.060202
     93          1           0        4.763171    6.962697   -0.370498
     94          7           0        6.868534   -0.517106    2.326994
     95          6           0        7.305698    0.532434    3.054069
     96          6           0        7.311973    0.077905    4.453187
     97          6           0        7.000127   -1.377080    4.475114
     98          6           0        7.014097   -1.671082    3.056149
     99          6           0        7.517101    1.011071    5.611001
    100          6           0        6.745711   -2.346476    5.589449
    101          8           0        6.729991   -3.612512    5.390107
    102          6           0        6.608353   -1.774929    6.937024
    103          7           0        7.078200   -2.618897    0.148525
    104          6           0        7.197032   -3.415080    1.225511
    105          6           0        7.236587   -4.870824    0.825976
    106          6           0        6.874849   -4.898845   -0.731568
    107          6           0        6.771710   -3.380460   -0.994765
    108          6           0        8.568067   -5.586731    1.051904
    109          6           0        5.689923   -5.805906   -1.162676
    110          6           0        4.393244   -5.257559   -0.611944
    111          7           0        6.427970   -0.533502   -1.792019
    112          6           0        6.486387   -1.623787   -2.687529
    113          6           0        6.402135   -1.069547   -4.054339
    114          6           0        6.323091    0.317473   -3.858358
    115          6           0        6.376110    0.608540   -2.468407
    116          6           0        6.453159   -1.821807   -5.261656
    117          6           0        6.217559    1.602265   -4.511730
    118          8           0        6.049525    1.975610   -5.671951
    119          6           0        6.499521    2.739868   -3.438075
    120          6           0        5.426489    3.784920   -3.575940
    121          8           0        4.241984    3.513269   -3.311770
    122          8           0        6.002350    4.982815   -3.785220
    123          6           0        4.978869    6.053711   -3.917423
    124          1           0        8.309765    2.384620    3.252656
    125          1           0        7.213295   -3.763437    3.148999
    126          1           0        6.542302   -3.594689   -3.092479
    127          1           0        7.694775    4.525720   -1.153217
    128          1           0        7.816941    4.363863    1.656754
    129          1           0        9.739324    3.603826   -0.503555
    130          1           0        9.889033    2.658904    0.992777
    131          1           0       10.077258    4.383785    1.087655
    132          1           0        5.533025    4.373288    0.960873
    133          1           0        5.035143    4.377850   -0.770403
    134          1           0        6.833339    6.547764   -0.363591
    135          1           0        5.960827    6.409641    1.121180
    136          1           0        7.887047    1.988934    5.278852
    137          1           0        8.336107    0.600465    6.211409
    138          1           0        6.629273    1.103094    6.240241
    139          1           0        7.512517   -1.226624    7.190624
    140          1           0        6.342021   -2.612916    7.584112
    141          1           0        5.790670   -1.045634    6.926043
    142          1           0        6.493606   -5.441380    1.369622
    143          1           0        7.715231   -5.266615   -1.338493
    144          1           0        8.478402   -6.482365    1.695226
    145          1           0        9.267312   -4.880208    1.479008
    146          1           0        9.082542   -5.901873    0.145709
    147          1           0        5.807029   -6.807497   -0.741652
    148          1           0        5.600122   -5.917122   -2.238107
    149          1           0        4.372016   -5.652117    0.408337
    150          1           0        3.547056   -5.619185   -1.192657
    151          1           0        4.426571   -4.164102   -0.541880
    152          1           0        5.686581   -1.420521   -5.911149
    153          1           0        6.302093   -2.883081   -5.075523
    154          1           0        7.474433   -1.603028   -5.584764
    155          1           0        7.492305    3.143211   -3.641189
    156          1           0        5.159438    6.551756   -4.875039
    157          1           0        5.071781    6.670205   -3.003616
    158          1           0        3.945227    5.748027   -4.029613
 ---------------------------------------------------------------------

 SCF Done:  E(RCAM-B3LYP) =  -4069.81192554     A.U. after   19 cycles

 Excitation energies and oscillator strengths:

 Excited State   1:      Singlet-A      1.6662 eV  744.10 nm  f=0.0159  <S**2>=0.000
     309 -> 315        0.13298
     310 -> 316        0.10847
     311 -> 313        0.53291
     312 -> 314        0.43293
 This state for optimization and/or second-order correction.
 Total Energy, E(TD-HF/TD-DFT) =  -4069.75069288
 Copying the excited state density for this state as the 1-particle RhoCI density.

 Excited State   2:      Singlet-A      1.6891 eV  734.02 nm  f=0.7302  <S**2>=0.000
     309 -> 315       -0.11172
     310 -> 316        0.13812
     311 -> 313       -0.43207
     312 -> 314        0.53176

 Excited State   3:      Singlet-A      2.1856 eV  567.29 nm  f=0.0432  <S**2>=0.000
     309 -> 313        0.61344
     310 -> 314       -0.19302
     311 -> 315       -0.25980

 Excited State   4:      Singlet-A      2.1937 eV  565.19 nm  f=0.1461  <S**2>=0.000
     309 -> 313        0.19151
     310 -> 314        0.61105
     312 -> 316       -0.26616

 Excited State   5:      Singlet-A      2.6957 eV  459.93 nm  f=0.0000  <S**2>=0.000
     312 -> 313        0.70710

 The electronic state is 1-A.
 Alpha  occ. eigenvalues --  -46.87627 -46.87572 -19.26331 -19.26179 -19.19131
 Alpha  occ. eigenvalues --  -19.18902 -19.18627 -19.18610 -19.18031 -19.17997
 Alpha  occ. eigenvalues --  -14.42412 -14.42284 -14.41286 -14.41276 -14.39262
 Alpha  occ. eigenvalues --  -14.39230 -14.38517 -14.38422 -10.39058 -10.38960
 Alpha  occ. eigenvalues --  -10.35286 -10.35258 -10.34252 -10.34176 -10.31761
 Alpha  occ. eigenvalues --  -10.31597 -10.31248 -10.31232 -10.30937 -10.30740
 Alpha  occ. eigenvalues --  -10.30408 -10.30344 -10.30315 -10.30281 -10.30051
 Alpha  occ. eigenvalues --  -10.30038 -10.29818 -10.29767 -10.29464 -10.29346
 Alpha  occ. eigenvalues --  -10.29316 -10.29082 -10.28643 -10.28592 -10.28586
 Alpha  occ. eigenvalues --  -10.28391 -10.28321 -10.28198 -10.28066 -10.27962
 Alpha  occ. eigenvalues --  -10.27921 -10.27630 -10.27584 -10.27561 -10.27438
 Alpha  occ. eigenvalues --  -10.27410 -10.27404 -10.27377 -10.27353 -10.27353
 Alpha  occ. eigenvalues --  -10.27305 -10.27300 -10.27276 -10.27243 -10.27022
 Alpha  occ. eigenvalues --  -10.26998 -10.26607 -10.26535 -10.26285 -10.26187
 Alpha  occ. eigenvalues --  -10.26095 -10.26054 -10.26040 -10.25963 -10.25857
 Alpha  occ. eigenvalues --  -10.25851 -10.25796 -10.25711 -10.25332 -10.25304
 Alpha  occ. eigenvalues --  -10.24796 -10.24674 -10.24633 -10.24626 -10.24608
 Alpha  occ. eigenvalues --  -10.24532  -3.16369  -3.16321  -1.91250  -1.91203
 Alpha  occ. eigenvalues --   -1.90837  -1.90792  -1.90679  -1.90629  -1.16622
 Alpha  occ. eigenvalues --   -1.16525  -1.08609  -1.08493  -1.07028  -1.06916
 Alpha  occ. eigenvalues --   -1.06862  -1.06526  -1.04416  -1.04411  -1.03596
 Alpha  occ. eigenvalues --   -1.03578  -1.03068  -1.02955  -1.02247  -1.02028
 Alpha  occ. eigenvalues --   -0.91915  -0.91817  -0.89413  -0.89364  -0.89075
 Alpha  occ. eigenvalues --   -0.89031  -0.88140  -0.88134  -0.87722  -0.87717
 Alpha  occ. eigenvalues --   -0.87602  -0.87509  -0.87088  -0.87020  -0.84921
 Alpha  occ. eigenvalues --   -0.84823  -0.83800  -0.83789  -0.82831  -0.82781
 Alpha  occ. eigenvalues --   -0.82571  -0.82488  -0.81544  -0.81451  -0.80442
 Alpha  occ. eigenvalues --   -0.80373  -0.78623  -0.78546  -0.77065  -0.77061
 Alpha  occ. eigenvalues --   -0.76833  -0.76790  -0.75778  -0.75774  -0.74752
 Alpha  occ. eigenvalues --   -0.74731  -0.72620  -0.72615  -0.71520  -0.71508
 Alpha  occ. eigenvalues --   -0.69756  -0.69675  -0.68749  -0.68713  -0.67523
 Alpha  occ. eigenvalues --   -0.67480  -0.67112  -0.67050  -0.65198  -0.65131
 Alpha  occ. eigenvalues --   -0.64703  -0.64697  -0.64585  -0.64470  -0.64126
 Alpha  occ. eigenvalues --   -0.64115  -0.62230  -0.62168  -0.60267  -0.60247
 Alpha  occ. eigenvalues --   -0.59718  -0.59645  -0.58917  -0.58832  -0.58353
 Alpha  occ. eigenvalues --   -0.58349  -0.57502  -0.57447  -0.57158  -0.57154
 Alpha  occ. eigenvalues --   -0.56151  -0.56129  -0.55850  -0.55835  -0.55375
 Alpha  occ. eigenvalues --   -0.55352  -0.55199  -0.55182  -0.54428  -0.54389
 Alpha  occ. eigenvalues --   -0.53836  -0.53737  -0.53148  -0.53137  -0.53066
 Alpha  occ. eigenvalues --   -0.53056  -0.52834  -0.52767  -0.52574  -0.52568
 Alpha  occ. eigenvalues --   -0.52318  -0.52288  -0.51823  -0.51772  -0.51576
 Alpha  occ. eigenvalues --   -0.51451  -0.51134  -0.51048  -0.50372  -0.50367
 Alpha  occ. eigenvalues --   -0.49894  -0.49874  -0.49784  -0.49743  -0.49401
 Alpha  occ. eigenvalues --   -0.49350  -0.49128  -0.49057  -0.49038  -0.48947
 Alpha  occ. eigenvalues --   -0.48496  -0.48451  -0.48315  -0.48309  -0.48273
 Alpha  occ. eigenvalues --   -0.48246  -0.47534  -0.47516  -0.47135  -0.47037
 Alpha  occ. eigenvalues --   -0.46641  -0.46632  -0.46476  -0.46398  -0.46201
 Alpha  occ. eigenvalues --   -0.46192  -0.46019  -0.46017  -0.45768  -0.45688
 Alpha  occ. eigenvalues --   -0.45133  -0.45051  -0.44450  -0.44435  -0.44397
 Alpha  occ. eigenvalues --   -0.44336  -0.44057  -0.43998  -0.43986  -0.43936
 Alpha  occ. eigenvalues --   -0.43858  -0.43853  -0.43504  -0.43360  -0.43313
 Alpha  occ. eigenvalues --   -0.43228  -0.42886  -0.42875  -0.42835  -0.42575
 Alpha  occ. eigenvalues --   -0.42509  -0.42468  -0.41885  -0.41859  -0.41600
 Alpha  occ. eigenvalues --   -0.41552  -0.41380  -0.41377  -0.40987  -0.40916
 Alpha  occ. eigenvalues --   -0.40712  -0.40638  -0.40636  -0.40606  -0.40421
 Alpha  occ. eigenvalues --   -0.40416  -0.40140  -0.40067  -0.39340  -0.39289
 Alpha  occ. eigenvalues --   -0.38317  -0.38272  -0.37590  -0.37578  -0.37186
 Alpha  occ. eigenvalues --   -0.37164  -0.37120  -0.37102  -0.36733  -0.36587
 Alpha  occ. eigenvalues --   -0.36149  -0.36050  -0.34174  -0.34124  -0.33822
 Alpha  occ. eigenvalues --   -0.33644  -0.33095  -0.33026  -0.31171  -0.31159
 Alpha  occ. eigenvalues --   -0.30891  -0.30874  -0.29904  -0.29892  -0.29276
 Alpha  occ. eigenvalues --   -0.29238  -0.29159  -0.29133  -0.23954  -0.23917
 Alpha  occ. eigenvalues --   -0.21033  -0.20963
 Alpha virt. eigenvalues --   -0.08708  -0.08607  -0.01597  -0.01583   0.00063
 Alpha virt. eigenvalues --    0.00118   0.02277   0.02352   0.03334   0.03352
 Alpha virt. eigenvalues --    0.04808   0.04877   0.05201   0.05221   0.06248

 Mulliken charges:
               1
     1  Mg   0.839661
     2  C   -0.002859
     3  C   -0.093648
     4  C   -0.045869
     5  C   -0.064060
     6  N   -0.256791
     7  C   -0.052450
     8  C   -0.014128
     9  C   -0.087131
    10  C    0.046608
    11  C    0.104862
    12  C    0.053333
    13  C   -0.071582
    14  H    0.035552
    15  N   -0.433190
    16  C    0.168888
    17  C   -0.176608
    18  C   -0.003655
    19  C    0.148984
    20  C    0.110097
    21  C    0.012719
    22  O   -0.249923
    23  C    0.062129
    24  N   -0.341180
    25  C    0.041329
    26  C   -0.028127
    27  C   -0.023870
    28  C    0.074783
    29  C    0.076269
    30  C    0.035186
    31  C   -0.004497
    32  N   -0.310363
    33  C    0.080300
    34  C   -0.169967
    35  C    0.008063
    36  C    0.082968
    37  C    0.127382
    38  C    0.045873
    39  O   -0.189269
    40  C   -0.005323
    41  C    0.212691
    42  O   -0.256982
    43  O   -0.304805
    44  C    0.157963
    45  H   -0.017655
    46  H   -0.016973
    47  H   -0.041829
    48  H    0.000501
    49  H   -0.003819
    50  H    0.025230
    51  H    0.016387
    52  H    0.016462
    53  H    0.012287
    54  H    0.044200
    55  H    0.017386
    56  H    0.018250
    57  H    0.005824
    58  H    0.026537
    59  H    0.041035
    60  H    0.037028
    61  H    0.035625
    62  H    0.033052
    63  H    0.016514
    64  H    0.009134
    65  H    0.022995
    66  H    0.012487
    67  H    0.004503
    68  H    0.005988
    69  H    0.004536
    70  H    0.008647
    71  H    0.018142
    72  H    0.029438
    73  H    0.047139
    74  H    0.008983
    75  H    0.045639
    76  H    0.034837
    77  H    0.042390
    78  H    0.046463
    79  H    0.053272
    80  Mg   0.838553
    81  C   -0.016797
    82  C   -0.087537
    83  C   -0.045404
    84  C   -0.064874
    85  N   -0.254572
    86  C   -0.049799
    87  C   -0.015251
    88  C   -0.090582
    89  C    0.046013
    90  C    0.114413
    91  C    0.062412
    92  C   -0.077732
    93  H    0.034432
    94  N   -0.423521
    95  C    0.163378
    96  C   -0.174319
    97  C   -0.007472
    98  C    0.152351
    99  C    0.099356
   100  C    0.015965
   101  O   -0.253259
   102  C    0.060920
   103  N   -0.350065
   104  C    0.037614
   105  C   -0.019849
   106  C   -0.034762
   107  C    0.088885
   108  C    0.073739
   109  C    0.034765
   110  C   -0.007739
   111  N   -0.323985
   112  C    0.078345
   113  C   -0.163326
   114  C    0.001904
   115  C    0.096248
   116  C    0.131557
   117  C    0.042134
   118  O   -0.188782
   119  C    0.000984
   120  C    0.211030
   121  O   -0.250985
   122  O   -0.305595
   123  C    0.152343
   124  H   -0.019680
   125  H   -0.015580
   126  H   -0.040632
   127  H   -0.001032
   128  H   -0.004140
   129  H    0.022249
   130  H    0.014397
   131  H    0.016162
   132  H    0.014801
   133  H    0.037733
   134  H    0.020382
   135  H    0.019905
   136  H    0.008735
   137  H    0.025984
   138  H    0.040807
   139  H    0.038021
   140  H    0.036505
   141  H    0.034943
   142  H    0.014491
   143  H    0.012165
   144  H    0.025047
   145  H    0.011556
   146  H    0.005493
   147  H    0.006025
   148  H    0.003561
   149  H    0.010879
   150  H    0.018175
   151  H    0.030421
   152  H    0.045522
   153  H    0.008553
   154  H    0.046632
   155  H    0.034765
   156  H    0.043340
   157  H    0.049651
   158  H    0.053025
 Sum of Mulliken charges =  -0.00000

 Dipole moment (field-independent basis, Debye):
    X=              0.5395    Y=              3.1291    Z=             -0.5447  Tot=              3.2216
 Quadrupole moment (field-independent basis, Debye-Ang):
   XX=           -464.0121   YY=           -460.7256   ZZ=           -539.9532
   XY=              5.0739   XZ=             46.3689   YZ=             -0.5928

 Normal termination of Gaussian 16 at Sat Sep 11 07:01:49 2021.
