 Gaussian 16, Revision A.03,
 Gaussian 16:  ES64L-G16RevA.03 25-Dec-2016

 -----------------------------------
 #p cam-b3lyp/Def2SVP td=(nstates=5)
 -----------------------------------

 --------------------------------
 TDDFT excited states in gaussian
 --------------------------------
 Symbolic Z-matrix:
 Charge =  0 Multiplicity = 1

                         Standard orientation:
 ---------------------------------------------------------------------
 Center     Atomic      Atomic             Coordinates (Angstroms)
 Number     Number       Type             X           Y           Z
 ---------------------------------------------------------------------
      1         12           0       15.774029   -0.804807    0.152927
      2          6           0       16.135259    2.525431   -1.108515
      3          6           0       16.726435    0.404733    3.198087
      4          6           0       15.902535   -3.801734    1.181780
      5          6           0       15.962926   -1.916352   -3.144716
      6          7           0       16.332117    1.226606    0.833032
      7          6           0       16.372320    2.427521    0.264387
      8          6           0       16.615978    3.583965    1.279592
      9          6           0       17.334863    2.755725    2.436839
     10          6           0       16.736395    1.387088    2.163721
     11          6           0       18.849147    2.670870    2.274831
     12          6           0       15.279009    4.226645    1.780800
     13          6           0       15.430815    5.562642    2.513889
     14          1           0       14.403252    6.577997    2.339196
     15          7           0       15.767697   -1.529888    1.990607
     16          6           0       16.175081   -0.892128    3.114256
     17          6           0       15.973629   -1.850220    4.222479
     18          6           0       15.594608   -3.161634    3.626972
     19          6           0       15.767544   -2.886912    2.223406
     20          6           0       16.094531   -1.474263    5.667397
     21          6           0       15.157597   -4.460011    4.228115
     22          8           0       15.101002   -5.540227    3.546569
     23          6           0       14.878692   -4.452897    5.675596
     24          7           0       16.132536   -2.622347   -0.809184
     25          6           0       16.073264   -3.779907   -0.141708
     26          6           0       16.081832   -4.951395   -1.078448
     27          6           0       15.913828   -4.345103   -2.546078
     28          6           0       15.920349   -2.839940   -2.181783
     29          6           0       17.335268   -5.836138   -1.032181
     30          6           0       14.744420   -4.891509   -3.403016
     31          6           0       13.424130   -4.468457   -2.798897
     32          7           0       15.829301    0.118446   -1.810640
     33          6           0       15.931119   -0.535286   -3.047144
     34          6           0       16.041784    0.510362   -4.080798
     35          6           0       16.013144    1.707228   -3.367681
     36          6           0       15.918679    1.426422   -1.974657
     37          6           0       16.208925    0.288377   -5.476227
     38          6           0       16.065180    3.157481   -3.456646
     39          8           0       16.051170    3.970566   -4.381951
     40          6           0       16.269071    3.742482   -1.989666
     41          6           0       15.277051    4.858037   -1.803275
     42          8           0       14.051720    4.624701   -1.764738
     43          8           0       15.929081    5.980725   -1.464201
     44          6           0       15.000153    7.119573   -1.235575
     45          1           0       17.237593    0.622606    4.137868
     46          1           0       15.840104   -4.849115    1.484323
     47          1           0       15.940219   -2.185916   -4.202200
     48          1           0       17.277402    4.372469    0.920143
     49          1           0       17.045073    3.105164    3.427614
     50          1           0       19.171438    3.084923    1.319525
     51          1           0       19.088664    1.608739    2.329622
     52          1           0       19.355885    3.136321    3.120614
     53          1           0       14.867833    3.618565    2.586550
     54          1           0       14.575330    4.345806    0.956201
     55          1           0       16.421491    5.991368    2.360057
     56          1           0       15.381861    5.371467    3.585922
     57          1           0       16.545288   -0.490073    5.788783
     58          1           0       16.813696   -2.159551    6.115607
     59          1           0       15.141460   -1.547028    6.191508
     60          1           0       15.774498   -4.141301    6.213174
     61          1           0       14.493509   -5.444041    5.912486
     62          1           0       14.118131   -3.700120    5.884935
     63          1           0       15.249660   -5.623204   -0.872079
     64          1           0       16.797039   -4.514911   -3.162339
     65          1           0       17.123992   -6.883845   -0.816829
     66          1           0       18.017848   -5.415200   -0.294491
     67          1           0       17.947049   -5.809542   -1.933532
     68          1           0       14.758267   -5.980847   -3.412847
     69          1           0       14.773035   -4.550115   -4.437851
     70          1           0       13.253721   -5.224045   -2.032817
     71          1           0       12.636161   -4.491808   -3.552402
     72          1           0       13.507548   -3.505750   -2.294197
     73          1           0       15.541644    0.988636   -5.978565
     74          1           0       15.976148   -0.742035   -5.743936
     75          1           0       17.267330    0.521071   -5.592363
     76          1           0       17.298112    4.096083   -1.933427
     77          1           0       15.317369    7.929423   -1.892653
     78          1           0       15.000790    7.309275   -0.162067
     79          1           0       13.971192    6.976418   -1.567366
     80         12           0      -15.944428    0.767611    0.313276
     81          6           0      -15.915350   -2.715716   -0.549633
     82          6           0      -15.050922    1.421013   -2.913068
     83          6           0      -15.522198    3.799293    1.148786
     84          6           0      -15.707136   -0.200256    3.652830
     85          7           0      -15.563040   -0.559946   -1.414259
     86          6           0      -15.642734   -1.862754   -1.639391
     87          6           0      -15.496967   -2.267851   -3.130772
     88          6           0      -14.675573   -0.988628   -3.648242
     89          6           0      -15.147539    0.037252   -2.619894
     90          6           0      -13.170141   -1.144383   -3.511322
     91          6           0      -16.883488   -2.391553   -3.854823
     92          6           0      -16.836628   -3.080373   -5.220506
     93          1           0      -17.963351   -3.921465   -5.614853
     94          7           0      -15.852914    2.406405   -0.802321
     95          6           0      -15.492490    2.488128   -2.100274
     96          6           0      -15.568412    3.915083   -2.449832
     97          6           0      -15.843695    4.688146   -1.208334
     98          6           0      -15.727089    3.640349   -0.214054
     99          6           0      -15.465327    4.413503   -3.862049
    100          6           0      -16.147369    6.133984   -0.956296
    101          8           0      -16.117292    6.632504    0.224133
    102          6           0      -16.389364    6.969357   -2.141660
    103          7           0      -15.443926    1.677145    2.114549
    104          6           0      -15.377245    3.016105    2.217855
    105          6           0      -15.273754    3.447353    3.661355
    106          6           0      -15.529390    2.125269    4.524104
    107          6           0      -15.653474    1.096060    3.379247
    108          6           0      -13.942537    4.074782    4.074394
    109          6           0      -16.659146    2.186877    5.588311
    110          6           0      -18.003446    2.308184    4.907484
    111          7           0      -16.015718   -1.097928    1.400816
    112          6           0      -15.869498   -1.279462    2.793564
    113          6           0      -15.876065   -2.735034    3.045948
    114          6           0      -16.003544   -3.304394    1.769988
    115          6           0      -16.051299   -2.276743    0.789605
    116          6           0      -15.724965   -3.359812    4.315969
    117          6           0      -16.097867   -4.541365    1.028568
    118          8           0      -16.197216   -5.729863    1.330768
    119          6           0      -15.917733   -4.218908   -0.517382
    120          6           0      -17.005497   -4.934135   -1.270867
    121          8           0      -18.197699   -4.618182   -1.111418
    122          8           0      -16.447732   -5.718928   -2.210758
    123          6           0      -17.487110   -6.440853   -2.991996
    124          1           0      -14.551713    1.722542   -3.834344
    125          1           0      -15.481092    4.832232    1.502089
    126          1           0      -15.736148   -0.580158    4.676308
    127          1           0      -14.924468   -3.171538   -3.302153
    128          1           0      -14.986902   -0.697318   -4.648033
    129          1           0      -12.905164   -2.044955   -2.977580
    130          1           0      -12.832010   -0.270441   -2.970077
    131          1           0      -12.694767   -1.092268   -4.495005
    132          1           0      -17.218510   -1.391862   -4.160012
    133          1           0      -17.599121   -2.884423   -3.225877
    134          1           0      -15.888372   -3.606568   -5.384432
    135          1           0      -16.854664   -2.312190   -5.997416
    136          1           0      -15.099089    3.631682   -4.538826
    137          1           0      -14.678192    5.175147   -3.875681
    138          1           0      -16.395423    4.860063   -4.220075
    139          1           0      -15.518568    6.934350   -2.792008
    140          1           0      -16.676961    7.948988   -1.755016
    141          1           0      -17.222865    6.539524   -2.708339
    142          1           0      -16.036672    4.177344    3.902536
    143          1           0      -14.641077    1.841139    5.107198
    144          1           0      -14.052187    5.089332    4.501873
    145          1           0      -13.291806    4.094527    3.210273
    146          1           0      -13.360556    3.494844    4.788657
    147          1           0      -16.544948    3.077783    6.210725
    148          1           0      -16.673755    1.329466    6.252862
    149          1           0      -18.082937    3.380950    4.707619
    150          1           0      -18.799260    1.969701    5.567903
    151          1           0      -18.002880    1.791872    3.940489
    152          1           0      -16.456278   -4.155880    4.360306
    153          1           0      -15.860969   -2.648292    5.127767
    154          1           0      -14.690262   -3.704956    4.241673
    155          1           0      -14.924205   -4.560921   -0.809779
    156          1           0      -17.255544   -7.508167   -2.922008
    157          1           0      -17.471489   -5.987127   -4.000777
    158          1           0      -18.502747   -6.419605   -2.614519
 ---------------------------------------------------------------------

 SCF Done:  E(RCAM-B3LYP) =  -4069.81179518     A.U. after   19 cycles

 Excitation energies and oscillator strengths:

 Excited State   1:      Singlet-A      1.6754 eV  740.02 nm  f=0.2679  <S**2>=0.000
     310 -> 316        0.17003
     311 -> 314        0.13752
     312 -> 313        0.67213
     310 <- 316        0.10250
 This state for optimization and/or second-order correction.
 Total Energy, E(TD-HF/TD-DFT) =  -4069.75022502
 Copying the excited state density for this state as the 1-particle RhoCI density.

 Excited State   2:      Singlet-A      1.6801 eV  737.97 nm  f=0.5090  <S**2>=0.000
     309 -> 315        0.17204
     311 -> 314        0.67177
     312 -> 313       -0.13748
     309 <- 315        0.10301

 Excited State   3:      Singlet-A      2.1861 eV  567.14 nm  f=0.0978  <S**2>=0.000
     310 -> 313        0.64225
     312 -> 316       -0.27300

 Excited State   4:      Singlet-A      2.1926 eV  565.47 nm  f=0.1026  <S**2>=0.000
     309 -> 314        0.64047
     311 -> 315       -0.27822

 Excited State   5:      Singlet-A      3.0660 eV  404.39 nm  f=0.0000  <S**2>=0.000
     311 -> 313        0.70711

 The electronic state is 1-A.
 Alpha  occ. eigenvalues --  -46.87796 -46.87660 -19.26348 -19.26287 -19.19161
 Alpha  occ. eigenvalues --  -19.19023 -19.18812 -19.18713 -19.18171 -19.18052
 Alpha  occ. eigenvalues --  -14.42497 -14.42450 -14.41449 -14.41360 -14.39402
 Alpha  occ. eigenvalues --  -14.39352 -14.38600 -14.38587 -10.39090 -10.39082
 Alpha  occ. eigenvalues --  -10.35445 -10.35390 -10.34391 -10.34229 -10.31755
 Alpha  occ. eigenvalues --  -10.31682 -10.31405 -10.31308 -10.31021 -10.30908
 Alpha  occ. eigenvalues --  -10.30570 -10.30508 -10.30398 -10.30360 -10.30206
 Alpha  occ. eigenvalues --  -10.30141 -10.29921 -10.29896 -10.29630 -10.29436
 Alpha  occ. eigenvalues --  -10.29400 -10.29254 -10.28748 -10.28715 -10.28649
 Alpha  occ. eigenvalues --  -10.28537 -10.28404 -10.28365 -10.28136 -10.28116
 Alpha  occ. eigenvalues --  -10.28001 -10.27793 -10.27727 -10.27668 -10.27584
 Alpha  occ. eigenvalues --  -10.27521 -10.27501 -10.27483 -10.27478 -10.27466
 Alpha  occ. eigenvalues --  -10.27461 -10.27449 -10.27403 -10.27379 -10.27160
 Alpha  occ. eigenvalues --  -10.27050 -10.26704 -10.26689 -10.26411 -10.26405
 Alpha  occ. eigenvalues --  -10.26233 -10.26185 -10.26143 -10.26020 -10.26018
 Alpha  occ. eigenvalues --  -10.25935 -10.25854 -10.25847 -10.25435 -10.25401
 Alpha  occ. eigenvalues --  -10.24873 -10.24833 -10.24787 -10.24736 -10.24690
 Alpha  occ. eigenvalues --  -10.24689  -3.16539  -3.16410  -1.91421  -1.91292
 Alpha  occ. eigenvalues --   -1.91007  -1.90881  -1.90849  -1.90718  -1.16642
 Alpha  occ. eigenvalues --   -1.16635  -1.08659  -1.08629  -1.07213  -1.06965
 Alpha  occ. eigenvalues --   -1.06945  -1.06645  -1.04581  -1.04494  -1.03760
 Alpha  occ. eigenvalues --   -1.03663  -1.03234  -1.03039  -1.02411  -1.02112
 Alpha  occ. eigenvalues --   -0.91987  -0.91972  -0.89520  -0.89496  -0.89187
 Alpha  occ. eigenvalues --   -0.89148  -0.88287  -0.88222  -0.87871  -0.87795
 Alpha  occ. eigenvalues --   -0.87683  -0.87673  -0.87272  -0.87118  -0.84997
 Alpha  occ. eigenvalues --   -0.84981  -0.83937  -0.83879  -0.82965  -0.82930
 Alpha  occ. eigenvalues --   -0.82650  -0.82648  -0.81596  -0.81587  -0.80596
 Alpha  occ. eigenvalues --   -0.80442  -0.78796  -0.78635  -0.77218  -0.77143
 Alpha  occ. eigenvalues --   -0.76934  -0.76898  -0.75923  -0.75837  -0.74898
 Alpha  occ. eigenvalues --   -0.74804  -0.72775  -0.72699  -0.71672  -0.71580
 Alpha  occ. eigenvalues --   -0.69908  -0.69761  -0.68872  -0.68825  -0.67641
 Alpha  occ. eigenvalues --   -0.67601  -0.67218  -0.67197  -0.65286  -0.65270
 Alpha  occ. eigenvalues --   -0.64854  -0.64770  -0.64653  -0.64621  -0.64270
 Alpha  occ. eigenvalues --   -0.64205  -0.62299  -0.62278  -0.60441  -0.60339
 Alpha  occ. eigenvalues --   -0.59804  -0.59794  -0.58993  -0.58988  -0.58504
 Alpha  occ. eigenvalues --   -0.58426  -0.57586  -0.57554  -0.57309  -0.57237
 Alpha  occ. eigenvalues --   -0.56310  -0.56204  -0.55980  -0.55885  -0.55519
 Alpha  occ. eigenvalues --   -0.55451  -0.55340  -0.55249  -0.54525  -0.54489
 Alpha  occ. eigenvalues --   -0.53909  -0.53894  -0.53298  -0.53227  -0.53221
 Alpha  occ. eigenvalues --   -0.53140  -0.52915  -0.52901  -0.52754  -0.52665
 Alpha  occ. eigenvalues --   -0.52439  -0.52404  -0.51917  -0.51887  -0.51656
 Alpha  occ. eigenvalues --   -0.51616  -0.51202  -0.51197  -0.50569  -0.50473
 Alpha  occ. eigenvalues --   -0.50031  -0.49978  -0.49917  -0.49868  -0.49513
 Alpha  occ. eigenvalues --   -0.49486  -0.49215  -0.49201  -0.49103  -0.49096
 Alpha  occ. eigenvalues --   -0.48594  -0.48557  -0.48461  -0.48444  -0.48378
 Alpha  occ. eigenvalues --   -0.48337  -0.47694  -0.47593  -0.47296  -0.47117
 Alpha  occ. eigenvalues --   -0.46797  -0.46709  -0.46555  -0.46551  -0.46359
 Alpha  occ. eigenvalues --   -0.46271  -0.46163  -0.46087  -0.45823  -0.45823
 Alpha  occ. eigenvalues --   -0.45210  -0.45201  -0.44579  -0.44514  -0.44505
 Alpha  occ. eigenvalues --   -0.44474  -0.44144  -0.44126  -0.44087  -0.44078
 Alpha  occ. eigenvalues --   -0.44019  -0.43937  -0.43553  -0.43496  -0.43385
 Alpha  occ. eigenvalues --   -0.43385  -0.43027  -0.42930  -0.42901  -0.42700
 Alpha  occ. eigenvalues --   -0.42656  -0.42555  -0.42010  -0.41965  -0.41704
 Alpha  occ. eigenvalues --   -0.41669  -0.41533  -0.41457  -0.41141  -0.40988
 Alpha  occ. eigenvalues --   -0.40869  -0.40821  -0.40720  -0.40697  -0.40572
 Alpha  occ. eigenvalues --   -0.40495  -0.40233  -0.40223  -0.39442  -0.39429
 Alpha  occ. eigenvalues --   -0.38469  -0.38352  -0.37748  -0.37651  -0.37320
 Alpha  occ. eigenvalues --   -0.37267  -0.37263  -0.37198  -0.36771  -0.36715
 Alpha  occ. eigenvalues --   -0.36218  -0.36193  -0.34286  -0.34253  -0.33862
 Alpha  occ. eigenvalues --   -0.33772  -0.33186  -0.33175  -0.31342  -0.31272
 Alpha  occ. eigenvalues --   -0.31035  -0.30973  -0.30031  -0.29956  -0.29448
 Alpha  occ. eigenvalues --   -0.29327  -0.29322  -0.29212  -0.24080  -0.24036
 Alpha  occ. eigenvalues --   -0.21127  -0.21117
 Alpha virt. eigenvalues --   -0.08792  -0.08774  -0.01749  -0.01684  -0.00057
 Alpha virt. eigenvalues --   -0.00027   0.02200   0.02206   0.03121   0.03227
 Alpha virt. eigenvalues --    0.04719   0.04731   0.05096   0.05166   0.06178

 Mulliken charges:
               1
     1  Mg   0.838724
     2  C   -0.002972
     3  C   -0.094102
     4  C   -0.045866
     5  C   -0.063951
     6  N   -0.256787
     7  C   -0.052467
     8  C   -0.014006
     9  C   -0.087014
    10  C    0.046337
    11  C    0.104810
    12  C    0.053459
    13  C   -0.071818
    14  H    0.036127
    15  N   -0.433156
    16  C    0.168438
    17  C   -0.177127
    18  C   -0.003994
    19  C    0.148736
    20  C    0.110171
    21  C    0.012310
    22  O   -0.249598
    23  C    0.062457
    24  N   -0.341135
    25  C    0.041251
    26  C   -0.028185
    27  C   -0.023965
    28  C    0.074817
    29  C    0.076169
    30  C    0.035136
    31  C   -0.004502
    32  N   -0.310460
    33  C    0.080388
    34  C   -0.169757
    35  C    0.008345
    36  C    0.082972
    37  C    0.127323
    38  C    0.046086
    39  O   -0.188506
    40  C   -0.005324
    41  C    0.212873
    42  O   -0.257124
    43  O   -0.304792
    44  C    0.157703
    45  H   -0.017571
    46  H   -0.016814
    47  H   -0.041532
    48  H    0.000928
    49  H   -0.004005
    50  H    0.025464
    51  H    0.016451
    52  H    0.016679
    53  H    0.011227
    54  H    0.044104
    55  H    0.017869
    56  H    0.017984
    57  H    0.005891
    58  H    0.026856
    59  H    0.039605
    60  H    0.037361
    61  H    0.035702
    62  H    0.031531
    63  H    0.016569
    64  H    0.009448
    65  H    0.023233
    66  H    0.012557
    67  H    0.004744
    68  H    0.006368
    69  H    0.004690
    70  H    0.008810
    71  H    0.018095
    72  H    0.028991
    73  H    0.047509
    74  H    0.009083
    75  H    0.045995
    76  H    0.035148
    77  H    0.042921
    78  H    0.046428
    79  H    0.053657
    80  Mg   0.837854
    81  C   -0.016839
    82  C   -0.087741
    83  C   -0.045505
    84  C   -0.064906
    85  N   -0.254571
    86  C   -0.049845
    87  C   -0.015093
    88  C   -0.090508
    89  C    0.045753
    90  C    0.114360
    91  C    0.062515
    92  C   -0.077917
    93  H    0.034899
    94  N   -0.423501
    95  C    0.162909
    96  C   -0.174569
    97  C   -0.007796
    98  C    0.152133
    99  C    0.099337
   100  C    0.015593
   101  O   -0.253191
   102  C    0.061192
   103  N   -0.350053
   104  C    0.037517
   105  C   -0.019827
   106  C   -0.034824
   107  C    0.088941
   108  C    0.073652
   109  C    0.034739
   110  C   -0.007679
   111  N   -0.324096
   112  C    0.078433
   113  C   -0.163167
   114  C    0.002232
   115  C    0.096195
   116  C    0.131494
   117  C    0.042369
   118  O   -0.187893
   119  C    0.000935
   120  C    0.211251
   121  O   -0.251018
   122  O   -0.305627
   123  C    0.152033
   124  H   -0.019568
   125  H   -0.015565
   126  H   -0.040500
   127  H   -0.000625
   128  H   -0.004277
   129  H    0.022466
   130  H    0.014452
   131  H    0.016382
   132  H    0.013924
   133  H    0.037657
   134  H    0.020821
   135  H    0.019631
   136  H    0.008821
   137  H    0.026230
   138  H    0.039825
   139  H    0.038313
   140  H    0.036414
   141  H    0.033899
   142  H    0.014392
   143  H    0.012397
   144  H    0.025133
   145  H    0.011690
   146  H    0.005653
   147  H    0.006238
   148  H    0.003621
   149  H    0.010939
   150  H    0.017909
   151  H    0.030123
   152  H    0.045983
   153  H    0.008478
   154  H    0.046930
   155  H    0.035051
   156  H    0.043908
   157  H    0.049522
   158  H    0.053565
 Sum of Mulliken charges =  -0.00000

 Dipole moment (field-independent basis, Debye):
    X=              4.1086    Y=              1.9654    Z=              0.8106  Tot=              4.6261
 Quadrupole moment (field-independent basis, Debye-Ang):
   XX=           -518.6668   YY=           -542.3959   ZZ=           -456.3619
   XY=            -38.1314   XZ=            119.7628   YZ=             39.5256

 Normal termination of Gaussian 16 at Sun Sep 12 11:23:48 2021.
