 Gaussian 16, Revision A.03,
 Gaussian 16:  ES64L-G16RevA.03 25-Dec-2016

 -----------------------------------
 #p cam-b3lyp/Def2SVP td=(nstates=5)
 -----------------------------------

 --------------------------------
 TDDFT excited states in gaussian
 --------------------------------
 Symbolic Z-matrix:
 Charge =  0 Multiplicity = 1

                         Standard orientation:
 ---------------------------------------------------------------------
 Center     Atomic      Atomic             Coordinates (Angstroms)
 Number     Number       Type             X           Y           Z
 ---------------------------------------------------------------------
      1         12           0        8.036352    0.531876    0.921756
      2          6           0        8.505842   -2.391341   -1.089859
      3          6           0        9.209916    2.352899   -1.714470
      4          6           0        8.060587    3.068438    2.824882
      5          6           0        7.992822   -1.568625    3.702343
      6          7           0        8.735723   -0.058436   -1.093946
      7          6           0        8.809236   -1.205310   -1.762114
      8          6           0        9.166535   -1.021536   -3.267417
      9          6           0        9.900583    0.391173   -3.181254
     10          6           0        9.217273    0.944850   -1.943331
     11          6           0       11.397678    0.284320   -2.909609
     12          6           0        7.893496   -0.951183   -4.176347
     13          6           0        8.153836   -1.100354   -5.678121
     14          1           0        7.173468   -1.802563   -6.492448
     15          7           0        8.088393    2.458535    0.488022
     16          6           0        8.587320    3.021858   -0.638488
     17          6           0        8.394162    4.479883   -0.485082
     18          6           0        7.915764    4.731984    0.902604
     19          6           0        8.028939    3.415370    1.476274
     20          6           0        8.610486    5.460035   -1.596953
     21          6           0        7.443113    5.966069    1.603867
     22          8           0        7.293912    6.012407    2.872790
     23          6           0        7.241429    7.161636    0.765425
     24          7           0        8.247487    0.756129    2.986403
     25          6           0        8.162437    1.960483    3.561975
     26          6           0        8.059995    1.846534    5.054108
     27          6           0        7.847287    0.294888    5.365399
     28          6           0        7.952282   -0.252245    3.920445
     29          6           0        9.265745    2.365962    5.849327
     30          6           0        6.607283   -0.089096    6.211191
     31          6           0        5.344707    0.189775    5.426823
     32          7           0        8.036946   -1.611096    1.266308
     33          6           0        8.039035   -2.265651    2.506561
     34          6           0        8.150191   -3.710155    2.232483
     35          6           0        8.222203   -3.794959    0.843430
     36          6           0        8.186407   -2.484706    0.286431
     37          6           0        8.231830   -4.740131    3.210704
     38          6           0        8.345871   -4.686212   -0.298599
     39          8           0        8.326133   -5.908475   -0.450842
     40          6           0        8.657132   -3.806748   -1.589137
     41          6           0        7.736467   -4.267612   -2.686082
     42          8           0        6.504261   -4.087468   -2.604957
     43          8           0        8.463692   -4.628978   -3.754306
     44          6           0        7.609392   -5.068943   -4.889539
     45          1           0        9.780531    2.999460   -2.384020
     46          1           0        7.959016    3.909297    3.514140
     47          1           0        7.900391   -2.290014    4.516289
     48          1           0        9.848800   -1.771796   -3.667477
     49          1           0        9.682088    1.016753   -4.046488
     50          1           0       11.690697   -0.742544   -2.691408
     51          1           0       11.583419    0.924672   -2.047088
     52          1           0       11.971997    0.713811   -3.730872
     53          1           0        7.493751    0.062670   -4.157157
     54          1           0        7.154714   -1.689824   -3.863398
     55          1           0        9.156280   -1.482593   -5.872823
     56          1           0        8.151280   -0.106388   -6.125585
     57          1           0        9.118254    4.999636   -2.443564
     58          1           0        9.315085    6.206481   -1.230799
     59          1           0        7.683768    5.947097   -1.900755
     60          1           0        8.179428    7.417852    0.272414
     61          1           0        6.817515    7.921016    1.421542
     62          1           0        6.533663    6.920928   -0.028347
     63          1           0        7.205562    2.406942    5.431353
     64          1           0        8.686709   -0.130676    5.915800
     65          1           0        9.011142    3.137026    6.576888
     66          1           0       10.007391    2.728819    5.138281
     67          1           0        9.829860    1.597974    6.377896
     68          1           0        6.563149    0.516305    7.115894
     69          1           0        6.599430   -1.136683    6.512438
     70          1           0        5.175200    1.250649    5.607507
     71          1           0        4.518092   -0.408689    5.811219
     72          1           0        5.505168    0.063182    4.355977
     73          1           0        7.576916   -5.540439    2.866375
     74          1           0        7.931310   -4.377565    4.193474
     75          1           0        9.293462   -4.981721    3.161437
     76          1           0        9.704914   -3.973656   -1.836961
     77          1           0        7.933887   -6.072361   -5.165384
     78          1           0        7.676445   -4.289020   -5.648242
     79          1           0        6.558302   -5.248227   -4.660615
     80         12           0       -7.727764    0.381709   -0.924643
     81          6           0       -9.492457   -1.685769    1.418529
     82          6           0       -9.835907    2.915956   -0.048349
     83          6           0       -6.493839    2.094163   -3.293686
     84          6           0       -6.551371   -2.544125   -2.408333
     85          7           0       -9.406600    0.479865    0.512061
     86          6           0       -9.946422   -0.350630    1.391387
     87          6           0      -10.978070    0.306268    2.347294
     88          6           0      -11.402071    1.550669    1.425030
     89          6           0      -10.125851    1.687447    0.597243
     90          6           0      -12.551667    1.236735    0.482051
     91          6           0      -10.326799    0.783911    3.692547
     92          6           0      -11.323046    1.151761    4.794334
     93          1           0      -10.969776    0.854520    6.179724
     94          7           0       -7.762475    2.339534   -1.247549
     95          6           0       -8.678820    3.222309   -0.797764
     96          6           0       -8.268628    4.532464   -1.326350
     97          6           0       -7.128633    4.325449   -2.260307
     98          6           0       -7.096876    2.877888   -2.320701
     99          6           0       -8.889926    5.822521   -0.875586
    100          6           0       -6.225721    5.273583   -2.989685
    101          8           0       -5.455190    4.877521   -3.934267
    102          6           0       -6.338254    6.694429   -2.629087
    103          7           0       -6.847451   -0.142708   -2.733617
    104          6           0       -6.346866    0.795463   -3.556513
    105          6           0       -5.522552    0.171798   -4.657401
    106          6           0       -5.373389   -1.370427   -4.261339
    107          6           0       -6.250762   -1.391320   -2.990449
    108          6           0       -6.103653    0.281083   -6.066932
    109          6           0       -3.930178   -1.937838   -4.172602
    110          6           0       -3.197967   -1.306526   -3.010411
    111          7           0       -7.807594   -1.730347   -0.476425
    112          6           0       -7.270713   -2.786326   -1.245033
    113          6           0       -7.677937   -4.048814   -0.594863
    114          6           0       -8.448885   -3.636948    0.502636
    115          6           0       -8.534134   -2.218562    0.522694
    116          6           0       -7.373177   -5.359511   -1.058870
    117          6           0       -9.218819   -4.079912    1.642666
    118          8           0       -9.429264   -5.166786    2.179482
    119          6           0      -10.034030   -2.840872    2.214169
    120          6           0       -9.848934   -2.811623    3.706621
    121          8           0       -8.728785   -2.592442    4.200406
    122          8           0      -11.056000   -2.830307    4.300783
    123          6           0      -10.925031   -2.791446    5.781710
    124          1           0      -10.583465    3.708984   -0.014393
    125          1           0       -5.958757    2.640159   -4.074106
    126          1           0       -6.143339   -3.496409   -2.753795
    127          1           0      -11.844951   -0.304525    2.569122
    128          1           0      -11.568198    2.444859    2.020163
    129          1           0      -12.816810    0.190156    0.504444
    130          1           0      -12.208300    1.519020   -0.504587
    131          1           0      -13.405902    1.883967    0.700490
    132          1           0       -9.852940    1.761154    3.533798
    133          1           0       -9.634037    0.052614    4.061212
    134          1           0      -12.335521    0.794210    4.570716
    135          1           0      -11.423105    2.239516    4.822663
    136          1           0       -9.812516    5.648050   -0.308322
    137          1           0       -9.220795    6.350113   -1.776717
    138          1           0       -8.189993    6.459194   -0.330232
    139          1           0       -7.358483    7.030349   -2.798699
    140          1           0       -5.552124    7.201832   -3.191595
    141          1           0       -6.146877    6.799080   -1.555289
    142          1           0       -4.537434    0.619548   -4.703895
    143          1           0       -5.864619   -2.028402   -4.993183
    144          1           0       -5.420842    0.775534   -6.783413
    145          1           0       -7.043715    0.813424   -6.008249
    146          1           0       -6.401059   -0.663874   -6.518377
    147          1           0       -3.365812   -1.679773   -5.072066
    148          1           0       -3.896044   -3.017298   -4.069633
    149          1           0       -2.839882   -0.361036   -3.428613
    150          1           0       -2.369587   -1.936162   -2.692000
    151          1           0       -3.888844   -1.065313   -2.194230
    152          1           0       -7.082401   -5.937085   -0.191494
    153          1           0       -6.584952   -5.342561   -1.808668
    154          1           0       -8.338754   -5.645071   -1.484752
    155          1           0      -11.079003   -2.978867    1.933874
    156          1           0      -11.465386   -3.658919    6.173109
    157          1           0      -11.287659   -1.792099    6.087565
    158          1           0       -9.938678   -2.949420    6.201955
 ---------------------------------------------------------------------

 SCF Done:  E(RCAM-B3LYP) =  -4069.81179785     A.U. after   19 cycles

 Excitation energies and oscillator strengths:

 Excited State   1:      Singlet-A      1.6697 eV  742.56 nm  f=0.0192  <S**2>=0.000
     309 -> 315       -0.10313
     310 -> 316        0.13815
     311 -> 313        0.55110
     312 -> 314       -0.40913
 This state for optimization and/or second-order correction.
 Total Energy, E(TD-HF/TD-DFT) =  -4069.75043817
 Copying the excited state density for this state as the 1-particle RhoCI density.

 Excited State   2:      Singlet-A      1.6851 eV  735.77 nm  f=0.7382  <S**2>=0.000
     309 -> 315        0.14206
     310 -> 316        0.10489
     311 -> 313        0.40862
     312 -> 314        0.55028

 Excited State   3:      Singlet-A      2.1854 eV  567.32 nm  f=0.0748  <S**2>=0.000
     309 -> 314        0.10473
     310 -> 313        0.63409
     311 -> 316       -0.26906

 Excited State   4:      Singlet-A      2.1927 eV  565.43 nm  f=0.1216  <S**2>=0.000
     309 -> 314        0.63220
     310 -> 313       -0.10394
     312 -> 315       -0.27467

 Excited State   5:      Singlet-A      2.8064 eV  441.80 nm  f=0.0000  <S**2>=0.000
     312 -> 313        0.70710

 The electronic state is 1-A.
 Alpha  occ. eigenvalues --  -46.87711 -46.87589 -19.26289 -19.26228 -19.19096
 Alpha  occ. eigenvalues --  -19.18959 -19.18733 -19.18665 -19.18091 -19.17982
 Alpha  occ. eigenvalues --  -14.42430 -14.42368 -14.41364 -14.41285 -14.39318
 Alpha  occ. eigenvalues --  -14.39283 -14.38527 -14.38502 -10.39026 -10.39018
 Alpha  occ. eigenvalues --  -10.35366 -10.35344 -10.34312 -10.34160 -10.31700
 Alpha  occ. eigenvalues --  -10.31633 -10.31324 -10.31239 -10.30962 -10.30830
 Alpha  occ. eigenvalues --  -10.30485 -10.30422 -10.30326 -10.30288 -10.30119
 Alpha  occ. eigenvalues --  -10.30067 -10.29834 -10.29818 -10.29546 -10.29369
 Alpha  occ. eigenvalues --  -10.29331 -10.29169 -10.28679 -10.28662 -10.28605
 Alpha  occ. eigenvalues --  -10.28482 -10.28339 -10.28283 -10.28083 -10.28044
 Alpha  occ. eigenvalues --  -10.27932 -10.27709 -10.27645 -10.27602 -10.27500
 Alpha  occ. eigenvalues --  -10.27423 -10.27416 -10.27415 -10.27407 -10.27400
 Alpha  occ. eigenvalues --  -10.27398 -10.27360 -10.27323 -10.27295 -10.27086
 Alpha  occ. eigenvalues --  -10.26985 -10.26640 -10.26637 -10.26382 -10.26329
 Alpha  occ. eigenvalues --  -10.26166 -10.26075 -10.26003 -10.25974 -10.25931
 Alpha  occ. eigenvalues --  -10.25854 -10.25758 -10.25751 -10.25354 -10.25337
 Alpha  occ. eigenvalues --  -10.24803 -10.24749 -10.24703 -10.24620 -10.24567
 Alpha  occ. eigenvalues --  -10.24565  -3.16454  -3.16339  -1.91335  -1.91221
 Alpha  occ. eigenvalues --   -1.90922  -1.90810  -1.90764  -1.90647  -1.16582
 Alpha  occ. eigenvalues --   -1.16575  -1.08589  -1.08550  -1.07134  -1.06919
 Alpha  occ. eigenvalues --   -1.06881  -1.06582  -1.04499  -1.04428  -1.03676
 Alpha  occ. eigenvalues --   -1.03593  -1.03149  -1.02966  -1.02326  -1.02040
 Alpha  occ. eigenvalues --   -0.91919  -0.91892  -0.89428  -0.89408  -0.89115
 Alpha  occ. eigenvalues --   -0.89091  -0.88197  -0.88133  -0.87784  -0.87717
 Alpha  occ. eigenvalues --   -0.87616  -0.87592  -0.87190  -0.87062  -0.84938
 Alpha  occ. eigenvalues --   -0.84907  -0.83845  -0.83783  -0.82882  -0.82872
 Alpha  occ. eigenvalues --   -0.82591  -0.82573  -0.81528  -0.81514  -0.80519
 Alpha  occ. eigenvalues --   -0.80377  -0.78713  -0.78570  -0.77135  -0.77074
 Alpha  occ. eigenvalues --   -0.76860  -0.76826  -0.75849  -0.75775  -0.74814
 Alpha  occ. eigenvalues --   -0.74727  -0.72689  -0.72625  -0.71592  -0.71514
 Alpha  occ. eigenvalues --   -0.69809  -0.69651  -0.68796  -0.68764  -0.67560
 Alpha  occ. eigenvalues --   -0.67535  -0.67146  -0.67143  -0.65211  -0.65208
 Alpha  occ. eigenvalues --   -0.64774  -0.64697  -0.64585  -0.64542  -0.64180
 Alpha  occ. eigenvalues --   -0.64117  -0.62227  -0.62209  -0.60357  -0.60275
 Alpha  occ. eigenvalues --   -0.59734  -0.59727  -0.58922  -0.58905  -0.58422
 Alpha  occ. eigenvalues --   -0.58354  -0.57511  -0.57487  -0.57225  -0.57163
 Alpha  occ. eigenvalues --   -0.56228  -0.56135  -0.55913  -0.55823  -0.55440
 Alpha  occ. eigenvalues --   -0.55393  -0.55256  -0.55167  -0.54445  -0.54405
 Alpha  occ. eigenvalues --   -0.53853  -0.53822  -0.53215  -0.53158  -0.53145
 Alpha  occ. eigenvalues --   -0.53079  -0.52838  -0.52835  -0.52677  -0.52617
 Alpha  occ. eigenvalues --   -0.52337  -0.52284  -0.51827  -0.51802  -0.51601
 Alpha  occ. eigenvalues --   -0.51542  -0.51125  -0.51114  -0.50488  -0.50420
 Alpha  occ. eigenvalues --   -0.49941  -0.49917  -0.49837  -0.49784  -0.49438
 Alpha  occ. eigenvalues --   -0.49430  -0.49140  -0.49136  -0.49040  -0.49022
 Alpha  occ. eigenvalues --   -0.48518  -0.48494  -0.48377  -0.48367  -0.48301
 Alpha  occ. eigenvalues --   -0.48284  -0.47615  -0.47529  -0.47217  -0.47055
 Alpha  occ. eigenvalues --   -0.46712  -0.46633  -0.46493  -0.46482  -0.46275
 Alpha  occ. eigenvalues --   -0.46196  -0.46081  -0.46012  -0.45750  -0.45745
 Alpha  occ. eigenvalues --   -0.45131  -0.45115  -0.44500  -0.44450  -0.44425
 Alpha  occ. eigenvalues --   -0.44405  -0.44063  -0.44058  -0.44012  -0.43993
 Alpha  occ. eigenvalues --   -0.43941  -0.43881  -0.43480  -0.43420  -0.43320
 Alpha  occ. eigenvalues --   -0.43306  -0.42946  -0.42863  -0.42831  -0.42630
 Alpha  occ. eigenvalues --   -0.42566  -0.42465  -0.41921  -0.41874  -0.41623
 Alpha  occ. eigenvalues --   -0.41599  -0.41458  -0.41388  -0.41062  -0.40924
 Alpha  occ. eigenvalues --   -0.40789  -0.40743  -0.40668  -0.40630  -0.40483
 Alpha  occ. eigenvalues --   -0.40406  -0.40173  -0.40165  -0.39339  -0.39313
 Alpha  occ. eigenvalues --   -0.38382  -0.38270  -0.37677  -0.37593  -0.37233
 Alpha  occ. eigenvalues --   -0.37188  -0.37186  -0.37135  -0.36703  -0.36644
 Alpha  occ. eigenvalues --   -0.36142  -0.36115  -0.34202  -0.34182  -0.33796
 Alpha  occ. eigenvalues --   -0.33706  -0.33105  -0.33104  -0.31263  -0.31224
 Alpha  occ. eigenvalues --   -0.30953  -0.30905  -0.29951  -0.29886  -0.29365
 Alpha  occ. eigenvalues --   -0.29262  -0.29237  -0.29140  -0.23997  -0.23965
 Alpha  occ. eigenvalues --   -0.21046  -0.21043
 Alpha virt. eigenvalues --   -0.08724  -0.08690  -0.01665  -0.01614   0.00024
 Alpha virt. eigenvalues --    0.00030   0.02278   0.02283   0.03220   0.03313
 Alpha virt. eigenvalues --    0.04794   0.04795   0.05162   0.05230   0.06238

 Mulliken charges:
               1
     1  Mg   0.838928
     2  C   -0.003065
     3  C   -0.094116
     4  C   -0.045802
     5  C   -0.063860
     6  N   -0.256781
     7  C   -0.052498
     8  C   -0.014023
     9  C   -0.087013
    10  C    0.046323
    11  C    0.104834
    12  C    0.053479
    13  C   -0.071677
    14  H    0.035736
    15  N   -0.433108
    16  C    0.168460
    17  C   -0.177144
    18  C   -0.003985
    19  C    0.148740
    20  C    0.110189
    21  C    0.012354
    22  O   -0.249705
    23  C    0.062434
    24  N   -0.341163
    25  C    0.041251
    26  C   -0.028138
    27  C   -0.024021
    28  C    0.074919
    29  C    0.076219
    30  C    0.035101
    31  C   -0.004565
    32  N   -0.310475
    33  C    0.080467
    34  C   -0.169550
    35  C    0.008318
    36  C    0.083059
    37  C    0.127272
    38  C    0.046125
    39  O   -0.188512
    40  C   -0.005347
    41  C    0.212883
    42  O   -0.257191
    43  O   -0.304768
    44  C    0.157790
    45  H   -0.017717
    46  H   -0.016886
    47  H   -0.041342
    48  H    0.000827
    49  H   -0.004066
    50  H    0.025412
    51  H    0.016448
    52  H    0.016545
    53  H    0.011360
    54  H    0.044003
    55  H    0.017824
    56  H    0.018024
    57  H    0.005810
    58  H    0.026664
    59  H    0.039739
    60  H    0.037223
    61  H    0.035495
    62  H    0.031767
    63  H    0.016625
    64  H    0.009375
    65  H    0.023119
    66  H    0.012416
    67  H    0.004692
    68  H    0.006301
    69  H    0.004876
    70  H    0.008713
    71  H    0.018758
    72  H    0.028978
    73  H    0.047733
    74  H    0.009319
    75  H    0.045879
    76  H    0.035059
    77  H    0.042880
    78  H    0.046335
    79  H    0.053439
    80  Mg   0.838076
    81  C   -0.016857
    82  C   -0.087900
    83  C   -0.045528
    84  C   -0.064706
    85  N   -0.254571
    86  C   -0.049819
    87  C   -0.015112
    88  C   -0.090493
    89  C    0.045732
    90  C    0.114434
    91  C    0.062550
    92  C   -0.077834
    93  H    0.034834
    94  N   -0.423445
    95  C    0.162869
    96  C   -0.174778
    97  C   -0.007949
    98  C    0.152130
    99  C    0.099420
   100  C    0.015488
   101  O   -0.253495
   102  C    0.061249
   103  N   -0.350140
   104  C    0.037567
   105  C   -0.019710
   106  C   -0.034951
   107  C    0.089106
   108  C    0.073797
   109  C    0.034665
   110  C   -0.007890
   111  N   -0.324179
   112  C    0.078665
   113  C   -0.162750
   114  C    0.002221
   115  C    0.096371
   116  C    0.131390
   117  C    0.042525
   118  O   -0.187784
   119  C    0.000837
   120  C    0.211256
   121  O   -0.250861
   122  O   -0.305694
   123  C    0.152049
   124  H   -0.019889
   125  H   -0.015809
   126  H   -0.039983
   127  H   -0.000734
   128  H   -0.004437
   129  H    0.022395
   130  H    0.014369
   131  H    0.016103
   132  H    0.013951
   133  H    0.037762
   134  H    0.020697
   135  H    0.019513
   136  H    0.008666
   137  H    0.025867
   138  H    0.039656
   139  H    0.038146
   140  H    0.035930
   141  H    0.033972
   142  H    0.014389
   143  H    0.012289
   144  H    0.024773
   145  H    0.011390
   146  H    0.005594
   147  H    0.006167
   148  H    0.004255
   149  H    0.010506
   150  H    0.019969
   151  H    0.029751
   152  H    0.046384
   153  H    0.009068
   154  H    0.046754
   155  H    0.034887
   156  H    0.043840
   157  H    0.049389
   158  H    0.053634
 Sum of Mulliken charges =  -0.00000

 Dipole moment (field-independent basis, Debye):
    X=             -0.2194    Y=              7.0246    Z=             -2.5853  Tot=              7.4885
 Quadrupole moment (field-independent basis, Debye-Ang):
   XX=           -428.0193   YY=           -538.7325   ZZ=           -475.0756
   XY=            -19.8360   XZ=            -26.6440   YZ=              8.0769

 Normal termination of Gaussian 16 at Sat Sep 11 20:51:24 2021.
