 Gaussian 16, Revision A.03,
 Gaussian 16:  ES64L-G16RevA.03 25-Dec-2016

 -----------------------------------
 #p cam-b3lyp/Def2SVP td=(nstates=5)
 -----------------------------------

 --------------------------------
 TDDFT excited states in gaussian
 --------------------------------
 Symbolic Z-matrix:
 Charge =  0 Multiplicity = 1

                         Standard orientation:
 ---------------------------------------------------------------------
 Center     Atomic      Atomic             Coordinates (Angstroms)
 Number     Number       Type             X           Y           Z
 ---------------------------------------------------------------------
      1         12           0        6.457490    0.970715    0.299254
      2          6           0        7.195556   -2.426780   -0.551924
      3          6           0        7.252514    1.792618   -2.915630
      4          6           0        6.252537    4.020682    1.143242
      5          6           0        6.824873    0.058012    3.642555
      6          7           0        7.123707   -0.251298   -1.422224
      7          6           0        7.309788   -1.550499   -1.633463
      8          6           0        7.563764   -1.903008   -3.129661
      9          6           0        8.113903   -0.492909   -3.630625
     10          6           0        7.428856    0.408513   -2.618661
     11          6           0        9.624166   -0.340204   -3.481331
     12          6           0        6.247784   -2.303158   -3.877864
     13          6           0        6.448626   -2.971508   -5.241067
     14          1           0        5.526439   -4.020405   -5.649399
     15          7           0        6.239840    2.593931   -0.805575
     16          6           0        6.604598    2.746541   -2.101317
     17          6           0        6.233994    4.130114   -2.468820
     18          6           0        5.798187    4.829252   -1.228106
     19          6           0        6.108297    3.837772   -0.230019
     20          6           0        6.266112    4.644556   -3.875258
     21          6           0        5.207274    6.181081   -0.980085
     22          8           0        5.117895    6.679337    0.193936
     23          6           0        4.811607    6.953727   -2.171516
     24          7           0        6.742522    1.964525    2.112740
     25          6           0        6.532945    3.281301    2.218385
     26          6           0        6.521762    3.719038    3.653028
     27          6           0        6.525957    2.380488    4.523672
     28          6           0        6.626881    1.350155    3.371936
     29          6           0        7.689658    4.614774    4.088558
     30          6           0        5.389963    2.214803    5.564098
     31          6           0        4.063909    2.054406    4.854909
     32          7           0        6.750504   -0.879984    1.394745
     33          6           0        6.899444   -1.024238    2.781714
     34          6           0        7.180978   -2.448322    3.040155
     35          6           0        7.192750   -3.034399    1.775948
     36          6           0        6.960941   -2.034825    0.788321
     37          6           0        7.443589   -3.028337    4.312575
     38          6           0        7.371681   -4.268248    1.027979
     39          8           0        7.501235   -5.455142    1.331278
     40          6           0        7.501688   -3.903460   -0.516643
     41          6           0        6.593337   -4.828314   -1.280090
     42          8           0        5.353914   -4.755901   -1.153792
     43          8           0        7.305809   -5.484845   -2.208472
     44          6           0        6.458565   -6.397924   -3.021258
     45          1           0        7.700766    2.198722   -3.824526
     46          1           0        6.079000    5.042350    1.487504
     47          1           0        6.867156   -0.315523    4.667317
     48          1           0        8.315483   -2.675373   -3.293357
     49          1           0        7.773360   -0.258133   -4.638907
     50          1           0       10.057199   -1.177874   -2.934785
     51          1           0        9.769705    0.589496   -2.930905
     52          1           0       10.096245   -0.190391   -4.452657
     53          1           0        5.722751   -1.400221   -4.189483
     54          1           0        5.626707   -2.943415   -3.250440
     55          1           0        7.480655   -3.295737   -5.377820
     56          1           0        6.295874   -2.219990   -6.015721
     57          1           0        6.785168    3.956678   -4.541555
     58          1           0        6.886766    5.540374   -3.872525
     59          1           0        5.270358    4.888348   -4.245894
     60          1           0        5.682764    7.101864   -2.810022
     61          1           0        4.327583    7.855446   -1.798056
     62          1           0        4.101244    6.365963   -2.753639
     63          1           0        5.622725    4.290337    3.880569
     64          1           0        7.439862    2.276124    5.108958
     65          1           0        7.375450    5.570806    4.508058
     66          1           0        8.341602    4.760769    3.227776
     67          1           0        8.373718    4.158467    4.803585
     68          1           0        5.314449    3.104744    6.187995
     69          1           0        5.531872    1.358518    6.223559
     70          1           0        3.769068    3.083801    4.654290
     71          1           0        3.341476    1.561221    5.506115
     72          1           0        4.184781    1.556629    3.892571
     73          1           0        6.880162   -3.960793    4.344895
     74          1           0        7.149256   -2.359446    5.121003
     75          1           0        8.523569   -3.162831    4.254171
     76          1           0        8.548300   -4.044017   -0.784913
     77          1           0        6.894715   -7.393960   -2.944320
     78          1           0        6.386439   -5.952418   -4.013592
     79          1           0        5.452137   -6.584330   -2.644835
     80         12           0       -6.624720   -1.040501    0.158361
     81          6           0       -6.917566    2.305384   -1.105897
     82          6           0       -5.982778    0.330289    3.215066
     83          6           0       -5.917597   -3.951235    1.204788
     84          6           0       -6.155047   -2.093659   -3.130403
     85          7           0       -6.494798    1.059540    0.840427
     86          6           0       -6.685491    2.246332    0.284096
     87          6           0       -6.703744    3.431219    1.286725
     88          6           0       -5.844952    2.761053    2.466647
     89          6           0       -6.149131    1.290944    2.185708
     90          6           0       -4.347911    2.975893    2.318156
     91          6           0       -8.155253    3.788000    1.764050
     92          6           0       -8.280273    5.124459    2.498897
     93          1           0       -9.494110    5.913323    2.307132
     94          7           0       -6.519876   -1.749674    2.008943
     95          6           0       -6.273348   -1.049441    3.135967
     96          6           0       -6.280478   -2.032686    4.230186
     97          6           0       -6.387703   -3.393480    3.637346
     98          6           0       -6.255368   -3.078630    2.228997
     99          6           0       -6.270757   -1.638342    5.678578
    100          6           0       -6.565424   -4.754470    4.239283
    101          8           0       -6.394031   -5.822462    3.551644
    102          6           0       -6.854449   -4.801457    5.680024
    103          7           0       -5.901114   -2.742869   -0.790681
    104          6           0       -5.731823   -3.892401   -0.114052
    105          6           0       -5.468434   -5.044783   -1.053759
    106          6           0       -5.736992   -4.471546   -2.522390
    107          6           0       -6.035712   -2.998204   -2.168259
    108          6           0       -4.064716   -5.646516   -0.991419
    109          6           0       -6.758897   -5.242005   -3.402609
    110          6           0       -8.147407   -5.105945   -2.820426
    111          7           0       -6.727859   -0.127304   -1.797009
    112          6           0       -6.469498   -0.743659   -3.040977
    113          6           0       -6.555094    0.308612   -4.074339
    114          6           0       -6.836845    1.477732   -3.351661
    115          6           0       -6.900931    1.179098   -1.963785
    116          6           0       -6.333982    0.125380   -5.468489
    117          6           0       -7.084094    2.898502   -3.446306
    118          8           0       -7.238679    3.693549   -4.372453
    119          6           0       -7.022233    3.520659   -1.984974
    120          6           0       -8.220986    4.411917   -1.808456
    121          8           0       -9.368863    3.933430   -1.802084
    122          8           0       -7.806712    5.643884   -1.460616
    123          6           0       -8.960381    6.561472   -1.263372
    124          1           0       -5.548965    0.653942    4.161605
    125          1           0       -5.772544   -4.992656    1.501253
    126          1           0       -6.117990   -2.359143   -4.189088
    127          1           0       -6.213727    4.331295    0.935244
    128          1           0       -6.224168    3.048928    3.443732
    129          1           0       -4.099488    3.444409    1.377452
    130          1           0       -3.901934    1.991873    2.380152
    131          1           0       -3.960861    3.536650    3.173764
    132          1           0       -8.445675    3.102319    2.570426
    133          1           0       -8.843877    3.761816    0.942025
    134          1           0       -7.389867    5.751446    2.368465
    135          1           0       -8.314612    4.927877    3.573236
    136          1           0       -6.022766   -0.577231    5.804906
    137          1           0       -5.436705   -2.170095    6.149166
    138          1           0       -7.195845   -1.905202    6.193994
    139          1           0       -6.050562   -4.313162    6.225728
    140          1           0       -7.036665   -5.853591    5.907368
    141          1           0       -7.763761   -4.221539    5.873530
    142          1           0       -6.153476   -5.862166   -0.864865
    143          1           0       -4.821713   -4.468780   -3.132371
    144          1           0       -4.064026   -6.730849   -0.771666
    145          1           0       -3.494925   -5.107186   -0.246431
    146          1           0       -3.462616   -5.507901   -1.887778
    147          1           0       -6.526876   -6.309862   -3.405584
    148          1           0       -6.773392   -4.912718   -4.436214
    149          1           0       -8.169344   -5.882873   -2.050375
    150          1           0       -8.902037   -5.285218   -3.583604
    151          1           0       -8.270331   -4.139736   -2.317451
    152          1           0       -7.112216    0.674234   -5.981926
    153          1           0       -6.345964   -0.928710   -5.737783
    154          1           0       -5.336922    0.562905   -5.566997
    155          1           0       -6.085564    4.073479   -1.903671
    156          1           0       -8.798709    7.423324   -1.918164
    157          1           0       -9.004231    6.756674   -0.175384
    158          1           0       -9.933782    6.221770   -1.597377
 ---------------------------------------------------------------------

 SCF Done:  E(RCAM-B3LYP) =  -4069.81181764     A.U. after   19 cycles

 Excitation energies and oscillator strengths:

 Excited State   1:      Singlet-A      1.6674 eV  743.56 nm  f=0.0692  <S**2>=0.000
     309 -> 315        0.10536
     310 -> 316        0.13593
     311 -> 313        0.41999
     312 -> 314        0.54307
 This state for optimization and/or second-order correction.
 Total Energy, E(TD-HF/TD-DFT) =  -4069.75054064
 Copying the excited state density for this state as the 1-particle RhoCI density.

 Excited State   2:      Singlet-A      1.6873 eV  734.81 nm  f=0.6715  <S**2>=0.000
     309 -> 315        0.14032
     310 -> 316       -0.10804
     311 -> 313        0.54200
     312 -> 314       -0.41923

 Excited State   3:      Singlet-A      2.1851 eV  567.42 nm  f=0.0543  <S**2>=0.000
     309 -> 313        0.18348
     310 -> 314        0.61639
     312 -> 316       -0.26077

 Excited State   4:      Singlet-A      2.1936 eV  565.20 nm  f=0.1369  <S**2>=0.000
     309 -> 313        0.61388
     310 -> 314       -0.18198
     311 -> 315       -0.26739

 Excited State   5:      Singlet-A      2.6512 eV  467.65 nm  f=0.0000  <S**2>=0.000
     312 -> 313        0.70710

 The electronic state is 1-A.
 Alpha  occ. eigenvalues --  -46.87854 -46.87554 -19.26325 -19.26294 -19.19099
 Alpha  occ. eigenvalues --  -19.19063 -19.18863 -19.18600 -19.18215 -19.17977
 Alpha  occ. eigenvalues --  -14.42503 -14.42392 -14.41511 -14.41247 -14.39457
 Alpha  occ. eigenvalues --  -14.39246 -14.38642 -14.38500 -10.39123 -10.39027
 Alpha  occ. eigenvalues --  -10.35495 -10.35276 -10.34435 -10.34155 -10.31718
 Alpha  occ. eigenvalues --  -10.31710 -10.31456 -10.31214 -10.30957 -10.30918
 Alpha  occ. eigenvalues --  -10.30623 -10.30566 -10.30295 -10.30271 -10.30268
 Alpha  occ. eigenvalues --  -10.30022 -10.29988 -10.29781 -10.29683 -10.29328
 Alpha  occ. eigenvalues --  -10.29308 -10.29305 -10.28790 -10.28627 -10.28584
 Alpha  occ. eigenvalues --  -10.28572 -10.28415 -10.28304 -10.28156 -10.28042
 Alpha  occ. eigenvalues --  -10.27905 -10.27843 -10.27778 -10.27634 -10.27593
 Alpha  occ. eigenvalues --  -10.27566 -10.27538 -10.27505 -10.27456 -10.27387
 Alpha  occ. eigenvalues --  -10.27382 -10.27369 -10.27365 -10.27226 -10.27204
 Alpha  occ. eigenvalues --  -10.26974 -10.26743 -10.26613 -10.26435 -10.26309
 Alpha  occ. eigenvalues --  -10.26302 -10.26269 -10.26083 -10.26030 -10.25912
 Alpha  occ. eigenvalues --  -10.25899 -10.25830 -10.25794 -10.25517 -10.25183
 Alpha  occ. eigenvalues --  -10.24883 -10.24849 -10.24841 -10.24779 -10.24634
 Alpha  occ. eigenvalues --  -10.24575  -3.16597  -3.16304  -1.91478  -1.91186
 Alpha  occ. eigenvalues --   -1.91065  -1.90907  -1.90775  -1.90612  -1.16674
 Alpha  occ. eigenvalues --   -1.16586  -1.08672  -1.08588  -1.07265  -1.06884
 Alpha  occ. eigenvalues --   -1.06850  -1.06685  -1.04633  -1.04393  -1.03820
 Alpha  occ. eigenvalues --   -1.03557  -1.03290  -1.02930  -1.02468  -1.02006
 Alpha  occ. eigenvalues --   -0.92024  -0.91893  -0.89600  -0.89385  -0.89231
 Alpha  occ. eigenvalues --   -0.89055  -0.88367  -0.88096  -0.87923  -0.87726
 Alpha  occ. eigenvalues --   -0.87709  -0.87581  -0.87316  -0.87017  -0.85029
 Alpha  occ. eigenvalues --   -0.84902  -0.84024  -0.83754  -0.83017  -0.82819
 Alpha  occ. eigenvalues --   -0.82696  -0.82554  -0.81635  -0.81517  -0.80647
 Alpha  occ. eigenvalues --   -0.80351  -0.78843  -0.78538  -0.77279  -0.77047
 Alpha  occ. eigenvalues --   -0.76988  -0.76800  -0.75970  -0.75748  -0.74969
 Alpha  occ. eigenvalues --   -0.74670  -0.72831  -0.72600  -0.71728  -0.71467
 Alpha  occ. eigenvalues --   -0.70007  -0.69640  -0.68920  -0.68731  -0.67694
 Alpha  occ. eigenvalues --   -0.67501  -0.67262  -0.67107  -0.65335  -0.65179
 Alpha  occ. eigenvalues --   -0.64911  -0.64679  -0.64672  -0.64560  -0.64344
 Alpha  occ. eigenvalues --   -0.64090  -0.62350  -0.62197  -0.60495  -0.60230
 Alpha  occ. eigenvalues --   -0.59850  -0.59700  -0.59046  -0.58889  -0.58560
 Alpha  occ. eigenvalues --   -0.58327  -0.57633  -0.57478  -0.57370  -0.57130
 Alpha  occ. eigenvalues --   -0.56359  -0.56113  -0.56024  -0.55808  -0.55568
 Alpha  occ. eigenvalues --   -0.55412  -0.55361  -0.55141  -0.54591  -0.54387
 Alpha  occ. eigenvalues --   -0.53938  -0.53817  -0.53354  -0.53266  -0.53128
 Alpha  occ. eigenvalues --   -0.53048  -0.52970  -0.52812  -0.52797  -0.52565
 Alpha  occ. eigenvalues --   -0.52541  -0.52296  -0.51969  -0.51814  -0.51658
 Alpha  occ. eigenvalues --   -0.51567  -0.51255  -0.51112  -0.50610  -0.50367
 Alpha  occ. eigenvalues --   -0.50111  -0.49963  -0.49875  -0.49740  -0.49559
 Alpha  occ. eigenvalues --   -0.49388  -0.49262  -0.49140  -0.49111  -0.49013
 Alpha  occ. eigenvalues --   -0.48644  -0.48527  -0.48491  -0.48470  -0.48257
 Alpha  occ. eigenvalues --   -0.48230  -0.47747  -0.47494  -0.47348  -0.47008
 Alpha  occ. eigenvalues --   -0.46860  -0.46607  -0.46599  -0.46456  -0.46418
 Alpha  occ. eigenvalues --   -0.46223  -0.46169  -0.45980  -0.45873  -0.45740
 Alpha  occ. eigenvalues --   -0.45276  -0.45070  -0.44630  -0.44560  -0.44425
 Alpha  occ. eigenvalues --   -0.44379  -0.44213  -0.44135  -0.44065  -0.44032
 Alpha  occ. eigenvalues --   -0.43974  -0.43845  -0.43547  -0.43471  -0.43442
 Alpha  occ. eigenvalues --   -0.43284  -0.43084  -0.42855  -0.42804  -0.42770
 Alpha  occ. eigenvalues --   -0.42722  -0.42439  -0.42085  -0.41863  -0.41759
 Alpha  occ. eigenvalues --   -0.41583  -0.41574  -0.41361  -0.41195  -0.40930
 Alpha  occ. eigenvalues --   -0.40879  -0.40870  -0.40646  -0.40620  -0.40595
 Alpha  occ. eigenvalues --   -0.40376  -0.40274  -0.40136  -0.39549  -0.39311
 Alpha  occ. eigenvalues --   -0.38546  -0.38225  -0.37794  -0.37564  -0.37392
 Alpha  occ. eigenvalues --   -0.37310  -0.37155  -0.37103  -0.36768  -0.36695
 Alpha  occ. eigenvalues --   -0.36252  -0.36110  -0.34342  -0.34151  -0.33816
 Alpha  occ. eigenvalues --   -0.33792  -0.33242  -0.33073  -0.31394  -0.31158
 Alpha  occ. eigenvalues --   -0.31091  -0.30867  -0.30074  -0.29883  -0.29499
 Alpha  occ. eigenvalues --   -0.29373  -0.29226  -0.29118  -0.24137  -0.23931
 Alpha  occ. eigenvalues --   -0.21183  -0.21012
 Alpha virt. eigenvalues --   -0.08827  -0.08690  -0.01808  -0.01574  -0.00105
 Alpha virt. eigenvalues --    0.00075   0.02147   0.02297   0.03053   0.03322
 Alpha virt. eigenvalues --    0.04666   0.04833   0.05054   0.05231   0.06134

 Mulliken charges:
               1
     1  Mg   0.838574
     2  C   -0.002892
     3  C   -0.093837
     4  C   -0.046101
     5  C   -0.064135
     6  N   -0.256761
     7  C   -0.052454
     8  C   -0.014011
     9  C   -0.087034
    10  C    0.046288
    11  C    0.104763
    12  C    0.053390
    13  C   -0.071814
    14  H    0.035982
    15  N   -0.433188
    16  C    0.168410
    17  C   -0.176882
    18  C   -0.003975
    19  C    0.148699
    20  C    0.110064
    21  C    0.012204
    22  O   -0.249987
    23  C    0.062440
    24  N   -0.341077
    25  C    0.041232
    26  C   -0.028129
    27  C   -0.023897
    28  C    0.074650
    29  C    0.076158
    30  C    0.035262
    31  C   -0.004383
    32  N   -0.310452
    33  C    0.080283
    34  C   -0.169820
    35  C    0.008449
    36  C    0.082903
    37  C    0.127333
    38  C    0.046146
    39  O   -0.188283
    40  C   -0.005356
    41  C    0.212948
    42  O   -0.257174
    43  O   -0.304740
    44  C    0.157677
    45  H   -0.017317
    46  H   -0.017026
    47  H   -0.041736
    48  H    0.001029
    49  H   -0.003803
    50  H    0.025505
    51  H    0.016444
    52  H    0.016870
    53  H    0.011316
    54  H    0.043994
    55  H    0.017973
    56  H    0.018173
    57  H    0.006069
    58  H    0.026988
    59  H    0.040132
    60  H    0.037553
    61  H    0.035699
    62  H    0.031955
    63  H    0.016059
    64  H    0.009554
    65  H    0.023044
    66  H    0.012827
    67  H    0.004799
    68  H    0.006044
    69  H    0.004712
    70  H    0.008270
    71  H    0.017094
    72  H    0.029400
    73  H    0.047633
    74  H    0.008816
    75  H    0.046094
    76  H    0.035268
    77  H    0.043078
    78  H    0.046425
    79  H    0.053593
    80  Mg   0.838068
    81  C   -0.016987
    82  C   -0.087782
    83  C   -0.045032
    84  C   -0.064685
    85  N   -0.254605
    86  C   -0.049913
    87  C   -0.015115
    88  C   -0.090527
    89  C    0.045889
    90  C    0.114359
    91  C    0.062559
    92  C   -0.077799
    93  H    0.034517
    94  N   -0.423641
    95  C    0.163167
    96  C   -0.174375
    97  C   -0.007423
    98  C    0.152235
    99  C    0.099277
   100  C    0.015787
   101  O   -0.252682
   102  C    0.061190
   103  N   -0.349994
   104  C    0.037954
   105  C   -0.020152
   106  C   -0.034576
   107  C    0.088879
   108  C    0.073160
   109  C    0.034734
   110  C   -0.007620
   111  N   -0.323991
   112  C    0.078328
   113  C   -0.163430
   114  C    0.001971
   115  C    0.096157
   116  C    0.131559
   117  C    0.042006
   118  O   -0.188701
   119  C    0.001039
   120  C    0.211161
   121  O   -0.251103
   122  O   -0.305632
   123  C    0.152126
   124  H   -0.019647
   125  H   -0.014992
   126  H   -0.040821
   127  H   -0.000744
   128  H   -0.004513
   129  H    0.022484
   130  H    0.014893
   131  H    0.016366
   132  H    0.013857
   133  H    0.037521
   134  H    0.020864
   135  H    0.019544
   136  H    0.008621
   137  H    0.026484
   138  H    0.039636
   139  H    0.038432
   140  H    0.036488
   141  H    0.033578
   142  H    0.014198
   143  H    0.012575
   144  H    0.025405
   145  H    0.013292
   146  H    0.006419
   147  H    0.006337
   148  H    0.003180
   149  H    0.011010
   150  H    0.017524
   151  H    0.030009
   152  H    0.045602
   153  H    0.008360
   154  H    0.046319
   155  H    0.034751
   156  H    0.043601
   157  H    0.049573
   158  H    0.053440
 Sum of Mulliken charges =  -0.00000

 Dipole moment (field-independent basis, Debye):
    X=              3.6792    Y=              2.8961    Z=              0.6864  Tot=              4.7323
 Quadrupole moment (field-independent basis, Debye-Ang):
   XX=           -521.9058   YY=           -540.6310   ZZ=           -456.7392
   XY=             19.4263   XZ=            -58.9625   YZ=             37.0354

 Normal termination of Gaussian 16 at Sat Sep  4 08:44:24 2021.
