 Gaussian 16, Revision A.03,
 Gaussian 16:  ES64L-G16RevA.03 25-Dec-2016

 -----------------------------------
 #p cam-b3lyp/Def2SVP td=(nstates=5)
 -----------------------------------

 --------------------------------
 TDDFT excited states in gaussian
 --------------------------------
 Symbolic Z-matrix:
 Charge =  0 Multiplicity = 1

                         Standard orientation:
 ---------------------------------------------------------------------
 Center     Atomic      Atomic             Coordinates (Angstroms)
 Number     Number       Type             X           Y           Z
 ---------------------------------------------------------------------
      1         12           0       -7.957881   -0.548176    0.051611
      2          6           0       -8.058126    3.028112    0.162642
      3          6           0       -8.806755   -0.321183   -3.245502
      4          6           0       -8.320032   -3.698626    0.040019
      5          6           0       -8.239502   -0.516743    3.525134
      6          7           0       -8.353160    1.189646   -1.261544
      7          6           0       -8.299730    2.509411   -1.111415
      8          6           0       -8.449823    3.290206   -2.451268
      9          6           0       -9.229615    2.187835   -3.299030
     10          6           0       -8.741200    0.940720   -2.583432
     11          6           0      -10.746164    2.272072   -3.159440
     12          6           0       -7.065537    3.635668   -3.096357
     13          6           0       -7.110431    4.670274   -4.224599
     14          1           0       -6.006456    5.608702   -4.358537
     15          7           0       -8.005384   -1.826803   -1.453616
     16          6           0       -8.359325   -1.558298   -2.733427
     17          6           0       -8.231942   -2.835340   -3.468013
     18          6           0       -7.958360   -3.908027   -2.471725
     19          6           0       -8.111621   -3.182304   -1.236728
     20          6           0       -8.320327   -2.938859   -4.959731
     21          6           0       -7.623827   -5.359569   -2.610449
     22          8           0       -7.653627   -6.162496   -1.615967
     23          6           0       -7.342668   -5.841434   -3.974926
     24          7           0       -8.460019   -1.925316    1.537874
     25          6           0       -8.490853   -3.237539    1.280771
     26          6           0       -8.593248   -4.039254    2.544380
     27          6           0       -8.380644   -3.005212    3.742425
     28          6           0       -8.268043   -1.702522    2.912612
     29          6           0       -9.912343   -4.796249    2.751645
     30          6           0       -7.259383   -3.330077    4.761078
     31          6           0       -5.908828   -3.223851    4.088906
     32          7           0       -7.943792    0.961725    1.610792
     33          6           0       -8.098929    0.752269    2.988738
     34          6           0       -8.128784    2.081096    3.627014
     35          6           0       -8.004778    2.977565    2.567387
     36          6           0       -7.930243    2.255311    1.342198
     37          6           0       -8.315344    2.335162    5.014487
     38          6           0       -7.942673    4.378353    2.182948
     39          8           0       -7.866351    5.443535    2.796996
     40          6           0       -8.097297    4.471048    0.600758
     41          6           0       -7.020230    5.389897    0.091883
     42          8           0       -5.816998    5.066749    0.163808
     43          8           0       -7.581281    6.387617   -0.608345
     44          6           0       -6.565202    7.319449   -1.166401
     45          1           0       -9.297519   -0.381689   -4.218863
     46          1           0       -8.339690   -4.789158    0.092842
     47          1           0       -8.239950   -0.430852    4.613286
     48          1           0       -9.047774    4.199177   -2.383079
     49          1           0       -8.911471    2.175769   -4.341316
     50          1           0      -11.036558    2.995357   -2.397567
     51          1           0      -11.068432    1.270037   -2.875605
     52          1           0      -11.213202    2.475195   -4.123490
     53          1           0       -6.702069    2.771117   -3.651789
     54          1           0       -6.356122    3.962668   -2.335353
     55          1           0       -8.064563    5.197686   -4.244006
     56          1           0       -7.074779    4.139716   -5.176144
     57          1           0       -8.692012   -2.016297   -5.403886
     58          1           0       -9.090400   -3.677120   -5.182595
     59          1           0       -7.375013   -3.247386   -5.406414
     60          1           0       -8.210221   -5.655063   -4.608305
     61          1           0       -7.036266   -6.881539   -3.869343
     62          1           0       -6.524853   -5.255146   -4.394918
     63          1           0       -7.816166   -4.801263    2.588086
     64          1           0       -9.275568   -2.900902    4.356351
     65          1           0       -9.783798   -5.869901    2.891116
     66          1           0      -10.558372   -4.587178    1.899456
     67          1           0      -10.521725   -4.434542    3.579436
     68          1           0       -7.358937   -4.353566    5.120948
     69          1           0       -7.262870   -2.671332    5.629579
     70          1           0       -5.797059   -4.196943    3.612008
     71          1           0       -5.126473   -3.060512    4.830831
     72          1           0       -5.915328   -2.472628    3.298901
     73          1           0       -7.595911    3.108879    5.282343
     74          1           0       -8.164858    1.432408    5.606089
     75          1           0       -9.352357    2.670454    5.020726
     76          1           0       -9.095216    4.862509    0.405724
     77          1           0       -6.818859    8.319342   -0.814113
     78          1           0       -6.549009    7.151403   -2.243389
     79          1           0       -5.551288    7.215616   -0.778412
     80         12           0        7.919325   -1.004440    0.142827
     81          6           0        8.467625    2.539621    0.277222
     82          6           0        7.693449   -0.690293   -3.246117
     83          6           0        6.989791   -4.035790    0.023357
     84          6           0        7.059300   -0.859219    3.516982
     85          7           0        8.078266    0.750241   -1.194373
     86          6           0        8.349561    2.036883   -1.035323
     87          6           0        8.582469    2.813526   -2.359012
     88          6           0        7.759046    1.853882   -3.348928
     89          6           0        7.875667    0.543851   -2.572481
     90          6           0        6.287297    2.217651   -3.453648
     91          6           0       10.099598    2.880271   -2.753838
     92          6           0       10.432038    3.880822   -3.862959
     93          1           0       11.704109    4.594995   -3.797734
     94          7           0        7.895370   -2.281467   -1.376125
     95          6           0        7.823633   -1.981868   -2.690040
     96          6           0        7.816269   -3.271939   -3.397027
     97          6           0        7.723248   -4.360237   -2.386256
     98          6           0        7.506833   -3.583712   -1.181986
     99          6           0        7.972953   -3.384910   -4.885687
    100          6           0        7.801660   -5.853410   -2.488637
    101          8           0        7.456656   -6.614042   -1.516405
    102          6           0        8.205305   -6.400864   -3.792047
    103          7           0        6.935851   -2.232244    1.502087
    104          6           0        6.700060   -3.525711    1.220513
    105          6           0        6.233280   -4.274441    2.446037
    106          6           0        6.437012   -3.265100    3.669682
    107          6           0        6.924056   -2.021714    2.893697
    108          6           0        4.782616   -4.755317    2.419422
    109          6           0        7.289963   -3.771331    4.865040
    110          6           0        8.729477   -3.942262    4.436124
    111          7           0        7.954993    0.499420    1.693686
    112          6           0        7.525923    0.355602    3.031329
    113          6           0        7.637845    1.683201    3.669583
    114          6           0        8.106171    2.518852    2.644467
    115          6           0        8.255040    1.769533    1.446203
    116          6           0        7.280249    1.993707    5.011906
    117          6           0        8.498332    3.866734    2.300786
    118          8           0        8.659575    4.911675    2.929955
    119          6           0        8.629379    3.967365    0.719936
    120          6           0        9.929039    4.655761    0.404480
    121          8           0       11.014082    4.118013    0.687540
    122          8           0        9.683038    5.727969   -0.370271
    123          6           0       10.942689    6.437554   -0.718982
    124          1           0        7.379703   -0.670117   -4.290169
    125          1           0        6.757496   -5.102411    0.066332
    126          1           0        6.903527   -0.751954    4.592582
    127          1           0        8.165689    3.813367   -2.378412
    128          1           0        8.249182    1.769255   -4.315348
    129          1           0        6.012487    2.990915   -2.751734
    130          1           0        5.743306    1.305902   -3.244276
    131          1           0        6.038069    2.487482   -4.483896
    132          1           0       10.380841    1.944742   -3.254267
    133          1           0       10.708797    3.078816   -1.893566
    134          1           0        9.607667    4.580251   -4.047802
    135          1           0       10.535922    3.334417   -4.803521
    136          1           0        7.854115   -2.411661   -5.377684
    137          1           0        7.128825   -3.979248   -5.251866
    138          1           0        8.903791   -3.877315   -5.175092
    139          1           0        7.508969   -6.064242   -4.556417
    140          1           0        8.290078   -7.478986   -3.642582
    141          1           0        9.185724   -5.988931   -4.056056
    142          1           0        6.838432   -5.156904    2.613908
    143          1           0        5.478965   -2.989941    4.134731
    144          1           0        4.682066   -5.847441    2.565153
    145          1           0        4.340650   -4.454943    1.478685
    146          1           0        4.125227   -4.280290    3.145631
    147          1           0        6.943168   -4.756159    5.187533
    148          1           0        7.252400   -3.117523    5.729980
    149          1           0        8.731756   -4.931236    3.968150
    150          1           0        9.392314   -3.912162    5.298551
    151          1           0        8.999641   -3.211893    3.664619
    152          1           0        8.067315    2.622610    5.406260
    153          1           0        7.153960    1.092535    5.608322
    154          1           0        6.332253    2.512463    4.846186
    155          1           0        7.769102    4.529803    0.355043
    156          1           0       10.821101    7.478267   -0.403042
    157          1           0       11.100000    6.253947   -1.798462
    158          1           0       11.841144    6.157056   -0.181814
 ---------------------------------------------------------------------

 SCF Done:  E(RCAM-B3LYP) =  -4069.81169181     A.U. after   19 cycles

 Excitation energies and oscillator strengths:

 Excited State   1:      Singlet-A      1.6698 eV  742.50 nm  f=0.0163  <S**2>=0.000
     309 -> 315        0.10359
     310 -> 316       -0.13787
     311 -> 313        0.41088
     312 -> 314        0.54979
 This state for optimization and/or second-order correction.
 Total Energy, E(TD-HF/TD-DFT) =  -4069.75032680
 Copying the excited state density for this state as the 1-particle RhoCI density.

 Excited State   2:      Singlet-A      1.6853 eV  735.69 nm  f=0.7406  <S**2>=0.000
     309 -> 315        0.14176
     310 -> 316        0.10537
     311 -> 313        0.54896
     312 -> 314       -0.41034

 Excited State   3:      Singlet-A      2.1854 eV  567.34 nm  f=0.0596  <S**2>=0.000
     309 -> 313       -0.13766
     310 -> 314        0.62784
     312 -> 316        0.26633

 Excited State   4:      Singlet-A      2.1929 eV  565.39 nm  f=0.1340  <S**2>=0.000
     309 -> 313        0.62584
     310 -> 314        0.13657
     311 -> 315       -0.27212

 Excited State   5:      Singlet-A      2.7699 eV  447.62 nm  f=0.0000  <S**2>=0.000
     312 -> 313        0.70710

 The electronic state is 1-A.
 Alpha  occ. eigenvalues --  -46.87820 -46.87589 -19.26301 -19.26283 -19.19094
 Alpha  occ. eigenvalues --  -19.19037 -19.18837 -19.18657 -19.18185 -19.17972
 Alpha  occ. eigenvalues --  -14.42475 -14.42427 -14.41473 -14.41287 -14.39426
 Alpha  occ. eigenvalues --  -14.39282 -14.38609 -14.38526 -10.39097 -10.39023
 Alpha  occ. eigenvalues --  -10.35470 -10.35336 -10.34406 -10.34150 -10.31696
 Alpha  occ. eigenvalues --  -10.31694 -10.31429 -10.31236 -10.30957 -10.30935
 Alpha  occ. eigenvalues --  -10.30593 -10.30529 -10.30324 -10.30287 -10.30231
 Alpha  occ. eigenvalues --  -10.30072 -10.29942 -10.29818 -10.29653 -10.29368
 Alpha  occ. eigenvalues --  -10.29331 -10.29278 -10.28778 -10.28655 -10.28608
 Alpha  occ. eigenvalues --  -10.28580 -10.28388 -10.28334 -10.28145 -10.28075
 Alpha  occ. eigenvalues --  -10.27928 -10.27814 -10.27752 -10.27607 -10.27601
 Alpha  occ. eigenvalues --  -10.27523 -10.27512 -10.27470 -10.27445 -10.27427
 Alpha  occ. eigenvalues --  -10.27421 -10.27412 -10.27399 -10.27302 -10.27177
 Alpha  occ. eigenvalues --  -10.26973 -10.26742 -10.26638 -10.26435 -10.26374
 Alpha  occ. eigenvalues --  -10.26259 -10.26209 -10.26073 -10.26042 -10.25952
 Alpha  occ. eigenvalues --  -10.25861 -10.25857 -10.25757 -10.25453 -10.25316
 Alpha  occ. eigenvalues --  -10.24853 -10.24810 -10.24798 -10.24717 -10.24671
 Alpha  occ. eigenvalues --  -10.24618  -3.16563  -3.16339  -1.91445  -1.91221
 Alpha  occ. eigenvalues --   -1.91032  -1.90874  -1.90809  -1.90646  -1.16649
 Alpha  occ. eigenvalues --   -1.16577  -1.08642  -1.08578  -1.07237  -1.06911
 Alpha  occ. eigenvalues --   -1.06878  -1.06659  -1.04605  -1.04425  -1.03784
 Alpha  occ. eigenvalues --   -1.03592  -1.03257  -1.02966  -1.02434  -1.02039
 Alpha  occ. eigenvalues --   -0.91994  -0.91914  -0.89543  -0.89424  -0.89216
 Alpha  occ. eigenvalues --   -0.89086  -0.88309  -0.88149  -0.87890  -0.87714
 Alpha  occ. eigenvalues --   -0.87698  -0.87615  -0.87299  -0.87061  -0.85010
 Alpha  occ. eigenvalues --   -0.84935  -0.83959  -0.83806  -0.82991  -0.82875
 Alpha  occ. eigenvalues --   -0.82674  -0.82590  -0.81606  -0.81527  -0.80619
 Alpha  occ. eigenvalues --   -0.80375  -0.78821  -0.78570  -0.77243  -0.77078
 Alpha  occ. eigenvalues --   -0.76959  -0.76832  -0.75946  -0.75771  -0.74919
 Alpha  occ. eigenvalues --   -0.74731  -0.72797  -0.72626  -0.71695  -0.71509
 Alpha  occ. eigenvalues --   -0.69931  -0.69690  -0.68899  -0.68763  -0.67664
 Alpha  occ. eigenvalues --   -0.67533  -0.67249  -0.67142  -0.65313  -0.65206
 Alpha  occ. eigenvalues --   -0.64876  -0.64700  -0.64644  -0.64586  -0.64292
 Alpha  occ. eigenvalues --   -0.64134  -0.62317  -0.62210  -0.60466  -0.60276
 Alpha  occ. eigenvalues --   -0.59830  -0.59729  -0.59010  -0.58921  -0.58526
 Alpha  occ. eigenvalues --   -0.58355  -0.57603  -0.57480  -0.57330  -0.57167
 Alpha  occ. eigenvalues --   -0.56332  -0.56135  -0.55999  -0.55821  -0.55543
 Alpha  occ. eigenvalues --   -0.55389  -0.55360  -0.55176  -0.54544  -0.54419
 Alpha  occ. eigenvalues --   -0.53923  -0.53848  -0.53321  -0.53247  -0.53160
 Alpha  occ. eigenvalues --   -0.53077  -0.52937  -0.52837  -0.52782  -0.52613
 Alpha  occ. eigenvalues --   -0.52462  -0.52335  -0.51932  -0.51799  -0.51644
 Alpha  occ. eigenvalues --   -0.51598  -0.51217  -0.51130  -0.50599  -0.50422
 Alpha  occ. eigenvalues --   -0.50055  -0.49943  -0.49916  -0.49799  -0.49539
 Alpha  occ. eigenvalues --   -0.49426  -0.49236  -0.49135  -0.49121  -0.49034
 Alpha  occ. eigenvalues --   -0.48614  -0.48489  -0.48483  -0.48466  -0.48303
 Alpha  occ. eigenvalues --   -0.48278  -0.47719  -0.47531  -0.47320  -0.47054
 Alpha  occ. eigenvalues --   -0.46821  -0.46640  -0.46583  -0.46491  -0.46382
 Alpha  occ. eigenvalues --   -0.46202  -0.46183  -0.46011  -0.45841  -0.45748
 Alpha  occ. eigenvalues --   -0.45223  -0.45136  -0.44597  -0.44533  -0.44445
 Alpha  occ. eigenvalues --   -0.44410  -0.44168  -0.44114  -0.44059  -0.44041
 Alpha  occ. eigenvalues --   -0.44013  -0.43876  -0.43514  -0.43485  -0.43411
 Alpha  occ. eigenvalues --   -0.43317  -0.43049  -0.42863  -0.42829  -0.42719
 Alpha  occ. eigenvalues --   -0.42676  -0.42487  -0.42034  -0.41898  -0.41726
 Alpha  occ. eigenvalues --   -0.41597  -0.41562  -0.41395  -0.41164  -0.40919
 Alpha  occ. eigenvalues --   -0.40897  -0.40848  -0.40665  -0.40637  -0.40595
 Alpha  occ. eigenvalues --   -0.40423  -0.40267  -0.40171  -0.39466  -0.39358
 Alpha  occ. eigenvalues --   -0.38493  -0.38280  -0.37779  -0.37594  -0.37344
 Alpha  occ. eigenvalues --   -0.37291  -0.37196  -0.37133  -0.36732  -0.36704
 Alpha  occ. eigenvalues --   -0.36214  -0.36148  -0.34309  -0.34182  -0.33794
 Alpha  occ. eigenvalues --   -0.33789  -0.33209  -0.33104  -0.31366  -0.31216
 Alpha  occ. eigenvalues --   -0.31058  -0.30902  -0.30044  -0.29876  -0.29472
 Alpha  occ. eigenvalues --   -0.29343  -0.29260  -0.29136  -0.24104  -0.23964
 Alpha  occ. eigenvalues --   -0.21151  -0.21046
 Alpha virt. eigenvalues --   -0.08797  -0.08721  -0.01773  -0.01613  -0.00081
 Alpha virt. eigenvalues --    0.00035   0.02181   0.02283   0.03092   0.03291
 Alpha virt. eigenvalues --    0.04691   0.04798   0.05080   0.05234   0.06144

 Mulliken charges:
               1
     1  Mg   0.838667
     2  C   -0.003007
     3  C   -0.094242
     4  C   -0.045836
     5  C   -0.063965
     6  N   -0.256762
     7  C   -0.052482
     8  C   -0.014008
     9  C   -0.086976
    10  C    0.046282
    11  C    0.104811
    12  C    0.053524
    13  C   -0.071700
    14  H    0.035921
    15  N   -0.433143
    16  C    0.168382
    17  C   -0.177235
    18  C   -0.004000
    19  C    0.148679
    20  C    0.110204
    21  C    0.012294
    22  O   -0.249521
    23  C    0.062488
    24  N   -0.341149
    25  C    0.041218
    26  C   -0.028176
    27  C   -0.024014
    28  C    0.074866
    29  C    0.076143
    30  C    0.035123
    31  C   -0.004494
    32  N   -0.310501
    33  C    0.080417
    34  C   -0.169657
    35  C    0.008432
    36  C    0.082987
    37  C    0.127292
    38  C    0.046192
    39  O   -0.188199
    40  C   -0.005341
    41  C    0.212903
    42  O   -0.257108
    43  O   -0.304792
    44  C    0.157636
    45  H   -0.017654
    46  H   -0.016782
    47  H   -0.041431
    48  H    0.001009
    49  H   -0.004175
    50  H    0.025538
    51  H    0.016491
    52  H    0.016631
    53  H    0.011004
    54  H    0.044128
    55  H    0.017996
    56  H    0.017769
    57  H    0.005781
    58  H    0.026861
    59  H    0.039332
    60  H    0.037319
    61  H    0.035764
    62  H    0.031340
    63  H    0.016571
    64  H    0.009535
    65  H    0.023270
    66  H    0.012566
    67  H    0.004798
    68  H    0.006413
    69  H    0.004763
    70  H    0.008823
    71  H    0.017943
    72  H    0.028967
    73  H    0.047729
    74  H    0.009115
    75  H    0.046088
    76  H    0.035198
    77  H    0.043120
    78  H    0.046238
    79  H    0.053788
    80  Mg   0.837988
    81  C   -0.016826
    82  C   -0.087869
    83  C   -0.045517
    84  C   -0.064604
    85  N   -0.254564
    86  C   -0.049639
    87  C   -0.015118
    88  C   -0.090550
    89  C    0.045821
    90  C    0.114392
    91  C    0.062578
    92  C   -0.077782
    93  H    0.034723
    94  N   -0.423458
    95  C    0.162874
    96  C   -0.174802
    97  C   -0.007922
    98  C    0.152086
    99  C    0.099468
   100  C    0.015460
   101  O   -0.253241
   102  C    0.061250
   103  N   -0.350016
   104  C    0.037571
   105  C   -0.019867
   106  C   -0.034850
   107  C    0.088967
   108  C    0.073610
   109  C    0.034726
   110  C   -0.007639
   111  N   -0.324196
   112  C    0.078573
   113  C   -0.162876
   114  C    0.002451
   115  C    0.096231
   116  C    0.131427
   117  C    0.042610
   118  O   -0.187637
   119  C    0.000854
   120  C    0.211206
   121  O   -0.251149
   122  O   -0.305536
   123  C    0.152078
   124  H   -0.019964
   125  H   -0.015636
   126  H   -0.040302
   127  H   -0.000537
   128  H   -0.004620
   129  H    0.022927
   130  H    0.014574
   131  H    0.015893
   132  H    0.013814
   133  H    0.037664
   134  H    0.020793
   135  H    0.019402
   136  H    0.008551
   137  H    0.025817
   138  H    0.039567
   139  H    0.038058
   140  H    0.036234
   141  H    0.033800
   142  H    0.014241
   143  H    0.012710
   144  H    0.024999
   145  H    0.011838
   146  H    0.005907
   147  H    0.006174
   148  H    0.003693
   149  H    0.010843
   150  H    0.017817
   151  H    0.030098
   152  H    0.045930
   153  H    0.008445
   154  H    0.047757
   155  H    0.035451
   156  H    0.043947
   157  H    0.049344
   158  H    0.053487
 Sum of Mulliken charges =  -0.00000

 Dipole moment (field-independent basis, Debye):
    X=             -3.5857    Y=             -2.1782    Z=             -7.9076  Tot=              8.9516
 Quadrupole moment (field-independent basis, Debye-Ang):
   XX=           -509.0531   YY=           -553.4331   ZZ=           -446.5429
   XY=             -2.3279   XZ=            -13.5499   YZ=            -44.5920

 Normal termination of Gaussian 16 at Sat Sep 11 20:58:05 2021.
