 Gaussian 16, Revision A.03,
 Gaussian 16:  ES64L-G16RevA.03 25-Dec-2016

 -----------------------------------
 #p cam-b3lyp/Def2SVP td=(nstates=5)
 -----------------------------------

 --------------------------------
 TDDFT excited states in gaussian
 --------------------------------
 Symbolic Z-matrix:
 Charge =  0 Multiplicity = 1

                         Standard orientation:
 ---------------------------------------------------------------------
 Center     Atomic      Atomic             Coordinates (Angstroms)
 Number     Number       Type             X           Y           Z
 ---------------------------------------------------------------------
      1         12           0       -5.198130    0.577689   -0.555350
      2          6           0       -5.422725   -2.792986    0.627999
      3          6           0       -6.391371    1.566924    2.484495
      4          6           0       -5.439081    3.514577   -1.727210
      5          6           0       -5.120122   -0.718989   -3.789264
      6          7           0       -5.793064   -0.562397    1.246567
      7          6           0       -5.774788   -1.845894    1.592215
      8          6           0       -6.092277   -2.084595    3.098733
      9          6           0       -6.912910   -0.750685    3.397472
     10          6           0       -6.305909    0.150625    2.336759
     11          6           0       -8.409004   -0.883358    3.131762
     12          6           0       -4.796296   -2.167960    3.973498
     13          6           0       -4.997032   -2.719934    5.387847
     14          1           0       -3.949431   -3.542456    5.973797
     15          7           0       -5.352183    2.317099    0.368539
     16          6           0       -5.846526    2.533058    1.611226
     17          6           0       -5.747145    3.990325    1.841834
     18          6           0       -5.331303    4.626381    0.560974
     19          6           0       -5.383635    3.499905   -0.335514
     20          6           0       -5.985265    4.630548    3.174936
     21          6           0       -4.957772    6.029272    0.199721
     22          8           0       -4.853942    6.414142   -1.015050
     23          6           0       -4.801010    6.976189    1.318567
     24          7           0       -5.491012    1.316833   -2.485511
     25          6           0       -5.498176    2.632372   -2.726944
     26          6           0       -5.438722    2.917804   -4.198315
     27          6           0       -5.143001    1.518524   -4.908470
     28          6           0       -5.166575    0.608440   -3.655689
     29          6           0       -6.699473    3.544174   -4.810014
     30          6           0       -3.910860    1.451972   -5.845390
     31          6           0       -2.642077    1.601168   -5.036052
     32          7           0       -5.080534   -1.396815   -1.448965
     33          6           0       -5.084275   -1.704664   -2.817135
     34          6           0       -5.098655   -3.174809   -2.929092
     35          6           0       -5.119156   -3.622813   -1.609730
     36          6           0       -5.144188   -2.503317   -0.729733
     37          6           0       -5.150326   -3.917796   -4.141418
     38          6           0       -5.150617   -4.786777   -0.739066
     39          8           0       -5.051913   -6.002368   -0.912531
     40          6           0       -5.471412   -4.296403    0.741626
     41          6           0       -4.488571   -4.964014    1.664464
     42          8           0       -3.272902   -4.686713    1.613270
     43          8           0       -5.156662   -5.638872    2.612494
     44          6           0       -4.240018   -6.300768    3.578833
     45          1           0       -6.977469    1.977170    3.309194
     46          1           0       -5.411553    4.510689   -2.173799
     47          1           0       -5.011343   -1.195815   -4.765101
     48          1           0       -6.714215   -2.957140    3.299441
     49          1           0       -6.704001   -0.358631    4.392646
     50          1           0       -8.646457   -1.835317    2.657093
     51          1           0       -8.661736   -0.054562    2.470159
     52          1           0       -8.980617   -0.721926    4.046079
     53          1           0       -4.459482   -1.159594    4.213945
     54          1           0       -4.025000   -2.748418    3.466057
     55          1           0       -5.967481   -3.206036    5.491976
     56          1           0       -5.039733   -1.878814    6.079868
     57          1           0       -6.435803    3.932697    3.879609
     58          1           0       -6.745523    5.397547    3.028550
     59          1           0       -5.080119    5.082805    3.580531
     60          1           0       -5.735871    7.031744    1.876687
     61          1           0       -4.445877    7.906821    0.877371
     62          1           0       -4.053964    6.585249    2.009970
     63          1           0       -4.632782    3.613094   -4.429527
     64          1           0       -5.972982    1.195536   -5.537345
     65          1           0       -6.516331    4.493293   -5.314333
     66          1           0       -7.437649    3.658879   -4.016774
     67          1           0       -7.233362    2.904148   -5.511974
     68          1           0       -3.933555    2.273502   -6.560596
     69          1           0       -3.849667    0.521850   -6.410526
     70          1           0       -2.543169    2.681406   -4.935377
     71          1           0       -1.794014    1.180216   -5.577163
     72          1           0       -2.758873    1.189787   -4.033251
     73          1           0       -4.437101   -4.734329   -4.029386
     74          1           0       -4.905152   -3.292648   -4.999721
     75          1           0       -6.193170   -4.234546   -4.139836
     76          1           0       -6.498352   -4.591963    0.954139
     77          1           0       -4.493855   -7.360827    3.587556
     78          1           0       -4.328858   -5.751484    4.516276
     79          1           0       -3.188205   -6.343361    3.293852
     80         12           0        5.341550    0.855730    0.445863
     81          6           0        5.377343   -2.322586   -1.220290
     82          6           0        4.241466   -0.783023    3.227752
     83          6           0        4.868731    3.684157    1.803761
     84          6           0        5.330271    2.349890   -2.702635
     85          7           0        4.904628   -1.278189    0.830275
     86          6           0        5.014049   -2.403418    0.140197
     87          6           0        4.795504   -3.693730    0.975004
     88          6           0        3.903784   -3.068449    2.155139
     89          6           0        4.400482   -1.625277    2.098412
     90          6           0        2.414771   -3.073383    1.851573
     91          6           0        6.141051   -4.285693    1.523724
     92          6           0        6.037841   -5.706285    2.083209
     93          1           0        7.166934   -6.612754    1.893622
     94          7           0        5.131537    1.343239    2.358144
     95          6           0        4.693979    0.548443    3.357200
     96          6           0        4.702438    1.383247    4.568489
     97          6           0        5.023573    2.781346    4.172384
     98          6           0        4.999405    2.658450    2.728644
     99          6           0        4.501289    0.820894    5.945701
    100          6           0        5.293523    4.026157    4.962176
    101          8           0        5.315505    5.182544    4.409805
    102          6           0        5.438727    3.861640    6.415917
    103          7           0        4.916579    2.737950   -0.328075
    104          6           0        4.811885    3.809255    0.477705
    105          6           0        4.778087    5.090813   -0.320321
    106          6           0        5.126753    4.670309   -1.823377
    107          6           0        5.218126    3.139119   -1.643050
    108          6           0        3.453096    5.852631   -0.299598
    109          6           0        6.313651    5.406672   -2.502875
    110          6           0        7.611489    5.027289   -1.826816
    111          7           0        5.537218    0.180235   -1.597042
    112          6           0        5.478042    0.970213   -2.766022
    113          6           0        5.547204    0.048410   -3.918381
    114          6           0        5.619199   -1.225693   -3.335315
    115          6           0        5.576156   -1.107705   -1.919783
    116          6           0        5.490663    0.425401   -5.289799
    117          6           0        5.711126   -2.644321   -3.595604
    118          8           0        5.866952   -3.334532   -4.602112
    119          6           0        5.431147   -3.425969   -2.240224
    120          6           0        6.496393   -4.475928   -2.080994
    121          8           0        7.684766   -4.150220   -1.912835
    122          8           0        5.911270   -5.678850   -1.936126
    123          6           0        6.926847   -6.751566   -1.763781
    124          1           0        3.680026   -1.161588    4.082363
    125          1           0        4.814141    4.691952    2.221906
    126          1           0        5.431062    2.744097   -3.716107
    127          1           0        4.244143   -4.475673    0.466730
    128          1           0        4.146847   -3.517934    3.114432
    129          1           0        2.211011   -3.389549    0.839311
    130          1           0        2.079944   -2.055803    2.004749
    131          1           0        1.881712   -3.680294    2.589030
    132          1           0        6.424682   -3.744745    2.435687
    133          1           0        6.907803   -4.247195    0.774566
    134          1           0        5.099547   -6.195638    1.794984
    135          1           0        5.985482   -5.647063    3.173052
    136          1           0        4.122404   -0.207933    5.908718
    137          1           0        3.690005    1.392621    6.409190
    138          1           0        5.393833    0.904707    6.569402
    139          1           0        4.533326    3.416099    6.821144
    140          1           0        5.715798    4.847118    6.795304
    141          1           0        6.251696    3.152638    6.608281
    142          1           0        5.529228    5.786453    0.033212
    143          1           0        4.283582    4.856733   -2.504661
    144          1           0        3.553829    6.893779    0.060863
    145          1           0        2.753077    5.303228    0.315768
    146          1           0        2.932925    5.900502   -1.254767
    147          1           0        6.206411    6.487700   -2.384388
    148          1           0        6.395013    5.205715   -3.565878
    149          1           0        7.643846    5.696306   -0.961679
    150          1           0        8.454969    5.201085   -2.491928
    151          1           0        7.571896    3.999575   -1.447477
    152          1           0        6.249156   -0.150931   -5.802648
    153          1           0        5.649958    1.494367   -5.415166
    154          1           0        4.465324    0.132167   -5.530570
    155          1           0        4.434154   -3.862097   -2.313507
    156          1           0        6.735034   -7.500550   -2.538324
    157          1           0        6.837830   -7.080961   -0.711490
    158          1           0        7.961400   -6.499312   -1.965087
 ---------------------------------------------------------------------

 SCF Done:  E(RCAM-B3LYP) =  -4069.81207730     A.U. after   19 cycles

 Excitation energies and oscillator strengths:

 Excited State   1:      Singlet-A      1.6625 eV  745.79 nm  f=0.1085  <S**2>=0.000
     309 -> 315       -0.10828
     310 -> 316        0.13137
     311 -> 313       -0.43437
     312 -> 314        0.53199
 This state for optimization and/or second-order correction.
 Total Energy, E(TD-HF/TD-DFT) =  -4069.75098325
 Copying the excited state density for this state as the 1-particle RhoCI density.

 Excited State   2:      Singlet-A      1.6893 eV  733.96 nm  f=0.6042  <S**2>=0.000
     309 -> 315        0.13815
     310 -> 316        0.11115
     311 -> 313        0.53055
     312 -> 314        0.43323

 Excited State   3:      Singlet-A      2.1826 eV  568.06 nm  f=0.0592  <S**2>=0.000
     309 -> 313       -0.20449
     310 -> 314        0.61046
     312 -> 316       -0.25541

 Excited State   4:      Singlet-A      2.1946 eV  564.95 nm  f=0.1301  <S**2>=0.000
     309 -> 313        0.60700
     310 -> 314        0.20211
     311 -> 315       -0.26566

 Excited State   5:      Singlet-A      2.4769 eV  500.56 nm  f=0.0000  <S**2>=0.000
     312 -> 313        0.70709

 The electronic state is 1-A.
 Alpha  occ. eigenvalues --  -46.87892 -46.87472 -19.26504 -19.26110 -19.19242
 Alpha  occ. eigenvalues --  -19.18940 -19.18883 -19.18605 -19.18281 -19.17862
 Alpha  occ. eigenvalues --  -14.42553 -14.42284 -14.41540 -14.41176 -14.39495
 Alpha  occ. eigenvalues --  -14.39173 -14.38683 -14.38414 -10.39291 -10.38866
 Alpha  occ. eigenvalues --  -10.35514 -10.35287 -10.34506 -10.34032 -10.31932
 Alpha  occ. eigenvalues --  -10.31522 -10.31514 -10.31076 -10.31023 -10.30807
 Alpha  occ. eigenvalues --  -10.30667 -10.30596 -10.30285 -10.30227 -10.30173
 Alpha  occ. eigenvalues --  -10.30007 -10.29976 -10.29720 -10.29718 -10.29338
 Alpha  occ. eigenvalues --  -10.29267 -10.29238 -10.28904 -10.28780 -10.28466
 Alpha  occ. eigenvalues --  -10.28412 -10.28399 -10.28250 -10.28216 -10.27881
 Alpha  occ. eigenvalues --  -10.27828 -10.27825 -10.27787 -10.27669 -10.27561
 Alpha  occ. eigenvalues --  -10.27554 -10.27516 -10.27512 -10.27460 -10.27370
 Alpha  occ. eigenvalues --  -10.27357 -10.27310 -10.27299 -10.27282 -10.27227
 Alpha  occ. eigenvalues --  -10.26918 -10.26819 -10.26452 -10.26437 -10.26352
 Alpha  occ. eigenvalues --  -10.26350 -10.26227 -10.26100 -10.26012 -10.25892
 Alpha  occ. eigenvalues --  -10.25761 -10.25715 -10.25494 -10.25471 -10.25249
 Alpha  occ. eigenvalues --  -10.24925 -10.24878 -10.24733 -10.24696 -10.24614
 Alpha  occ. eigenvalues --  -10.24516  -3.16635  -3.16222  -1.91517  -1.91104
 Alpha  occ. eigenvalues --   -1.91103  -1.90945  -1.90693  -1.90530  -1.16852
 Alpha  occ. eigenvalues --   -1.16408  -1.08746  -1.08464  -1.07284  -1.06862
 Alpha  occ. eigenvalues --   -1.06859  -1.06724  -1.04687  -1.04282  -1.03853
 Alpha  occ. eigenvalues --   -1.03473  -1.03325  -1.02861  -1.02504  -1.01927
 Alpha  occ. eigenvalues --   -0.92084  -0.91783  -0.89598  -0.89329  -0.89328
 Alpha  occ. eigenvalues --   -0.88843  -0.88364  -0.88059  -0.87951  -0.87780
 Alpha  occ. eigenvalues --   -0.87626  -0.87479  -0.87351  -0.86987  -0.85117
 Alpha  occ. eigenvalues --   -0.84747  -0.84015  -0.83720  -0.83035  -0.82816
 Alpha  occ. eigenvalues --   -0.82772  -0.82423  -0.81735  -0.81388  -0.80715
 Alpha  occ. eigenvalues --   -0.80248  -0.78879  -0.78480  -0.77321  -0.77071
 Alpha  occ. eigenvalues --   -0.76943  -0.76661  -0.76054  -0.75572  -0.74986
 Alpha  occ. eigenvalues --   -0.74623  -0.72864  -0.72514  -0.71775  -0.71354
 Alpha  occ. eigenvalues --   -0.69973  -0.69604  -0.68997  -0.68591  -0.67744
 Alpha  occ. eigenvalues --   -0.67424  -0.67360  -0.66994  -0.65423  -0.65024
 Alpha  occ. eigenvalues --   -0.64971  -0.64740  -0.64574  -0.64437  -0.64353
 Alpha  occ. eigenvalues --   -0.64033  -0.62455  -0.62071  -0.60520  -0.60193
 Alpha  occ. eigenvalues --   -0.59927  -0.59536  -0.59089  -0.58801  -0.58609
 Alpha  occ. eigenvalues --   -0.58235  -0.57728  -0.57403  -0.57345  -0.57069
 Alpha  occ. eigenvalues --   -0.56409  -0.56153  -0.56026  -0.55671  -0.55615
 Alpha  occ. eigenvalues --   -0.55446  -0.55276  -0.55070  -0.54651  -0.54302
 Alpha  occ. eigenvalues --   -0.54039  -0.53623  -0.53389  -0.53340  -0.53061
 Alpha  occ. eigenvalues --   -0.53051  -0.52940  -0.52850  -0.52701  -0.52504
 Alpha  occ. eigenvalues --   -0.52483  -0.52258  -0.51991  -0.51748  -0.51729
 Alpha  occ. eigenvalues --   -0.51432  -0.51306  -0.51007  -0.50638  -0.50354
 Alpha  occ. eigenvalues --   -0.50108  -0.50007  -0.49783  -0.49698  -0.49627
 Alpha  occ. eigenvalues --   -0.49323  -0.49282  -0.49221  -0.49001  -0.48820
 Alpha  occ. eigenvalues --   -0.48721  -0.48556  -0.48531  -0.48329  -0.48220
 Alpha  occ. eigenvalues --   -0.48179  -0.47802  -0.47393  -0.47393  -0.46951
 Alpha  occ. eigenvalues --   -0.46896  -0.46696  -0.46513  -0.46456  -0.46293
 Alpha  occ. eigenvalues --   -0.46263  -0.46100  -0.45946  -0.45907  -0.45613
 Alpha  occ. eigenvalues --   -0.45282  -0.45037  -0.44694  -0.44607  -0.44325
 Alpha  occ. eigenvalues --   -0.44252  -0.44241  -0.44206  -0.44125  -0.43923
 Alpha  occ. eigenvalues --   -0.43862  -0.43760  -0.43633  -0.43498  -0.43343
 Alpha  occ. eigenvalues --   -0.43162  -0.43131  -0.42878  -0.42739  -0.42722
 Alpha  occ. eigenvalues --   -0.42693  -0.42399  -0.42111  -0.41812  -0.41778
 Alpha  occ. eigenvalues --   -0.41668  -0.41465  -0.41247  -0.41228  -0.40992
 Alpha  occ. eigenvalues --   -0.40915  -0.40751  -0.40656  -0.40571  -0.40473
 Alpha  occ. eigenvalues --   -0.40404  -0.40288  -0.39982  -0.39506  -0.39279
 Alpha  occ. eigenvalues --   -0.38559  -0.38169  -0.37916  -0.37424  -0.37407
 Alpha  occ. eigenvalues --   -0.37395  -0.37081  -0.36968  -0.36889  -0.36560
 Alpha  occ. eigenvalues --   -0.36319  -0.36019  -0.34385  -0.34060  -0.33972
 Alpha  occ. eigenvalues --   -0.33649  -0.33288  -0.32990  -0.31415  -0.31161
 Alpha  occ. eigenvalues --   -0.31136  -0.30778  -0.30144  -0.29761  -0.29535
 Alpha  occ. eigenvalues --   -0.29412  -0.29171  -0.29037  -0.24179  -0.23844
 Alpha  occ. eigenvalues --   -0.21220  -0.20929
 Alpha virt. eigenvalues --   -0.08865  -0.08616  -0.01841  -0.01504  -0.00147
 Alpha virt. eigenvalues --    0.00138   0.02103   0.02385   0.03009   0.03399
 Alpha virt. eigenvalues --    0.04589   0.04901   0.04959   0.05388   0.05984

 Mulliken charges:
               1
     1  Mg   0.838581
     2  C   -0.003603
     3  C   -0.094389
     4  C   -0.045695
     5  C   -0.063513
     6  N   -0.256739
     7  C   -0.052780
     8  C   -0.013942
     9  C   -0.086977
    10  C    0.046116
    11  C    0.104754
    12  C    0.053645
    13  C   -0.071190
    14  H    0.033835
    15  N   -0.433173
    16  C    0.168456
    17  C   -0.177001
    18  C   -0.003709
    19  C    0.148694
    20  C    0.110085
    21  C    0.012437
    22  O   -0.249597
    23  C    0.062332
    24  N   -0.341079
    25  C    0.041313
    26  C   -0.028212
    27  C   -0.024015
    28  C    0.074706
    29  C    0.076103
    30  C    0.035021
    31  C   -0.004530
    32  N   -0.310450
    33  C    0.080242
    34  C   -0.169297
    35  C    0.008261
    36  C    0.082805
    37  C    0.127271
    38  C    0.045882
    39  O   -0.188531
    40  C   -0.005346
    41  C    0.213164
    42  O   -0.258743
    43  O   -0.304267
    44  C    0.158117
    45  H   -0.017543
    46  H   -0.016653
    47  H   -0.040883
    48  H    0.000967
    49  H   -0.004300
    50  H    0.025573
    51  H    0.016808
    52  H    0.016748
    53  H    0.010954
    54  H    0.042825
    55  H    0.018592
    56  H    0.018086
    57  H    0.005655
    58  H    0.027073
    59  H    0.039974
    60  H    0.037365
    61  H    0.035958
    62  H    0.032083
    63  H    0.016506
    64  H    0.009734
    65  H    0.023331
    66  H    0.012562
    67  H    0.005012
    68  H    0.006452
    69  H    0.005396
    70  H    0.008214
    71  H    0.018768
    72  H    0.028904
    73  H    0.047926
    74  H    0.009777
    75  H    0.046097
    76  H    0.035394
    77  H    0.043430
    78  H    0.046208
    79  H    0.051964
    80  Mg   0.837805
    81  C   -0.016746
    82  C   -0.087628
    83  C   -0.046171
    84  C   -0.065261
    85  N   -0.254858
    86  C   -0.048633
    87  C   -0.015346
    88  C   -0.090804
    89  C    0.046263
    90  C    0.114987
    91  C    0.062441
    92  C   -0.077671
    93  H    0.033743
    94  N   -0.423422
    95  C    0.162912
    96  C   -0.175052
    97  C   -0.008508
    98  C    0.152230
    99  C    0.099692
   100  C    0.014987
   101  O   -0.253848
   102  C    0.061401
   103  N   -0.350124
   104  C    0.037656
   105  C   -0.019810
   106  C   -0.034766
   107  C    0.089105
   108  C    0.073663
   109  C    0.034832
   110  C   -0.007575
   111  N   -0.324147
   112  C    0.078739
   113  C   -0.163462
   114  C    0.002481
   115  C    0.096195
   116  C    0.131490
   117  C    0.042302
   118  O   -0.187977
   119  C    0.000981
   120  C    0.211065
   121  O   -0.251637
   122  O   -0.304821
   123  C    0.152299
   124  H   -0.019502
   125  H   -0.016356
   126  H   -0.040990
   127  H    0.001415
   128  H   -0.005446
   129  H    0.026350
   130  H    0.013718
   131  H    0.019397
   132  H    0.013146
   133  H    0.037079
   134  H    0.022317
   135  H    0.018999
   136  H    0.008830
   137  H    0.024823
   138  H    0.039241
   139  H    0.037477
   140  H    0.035694
   141  H    0.033950
   142  H    0.013906
   143  H    0.012482
   144  H    0.024502
   145  H    0.011333
   146  H    0.006548
   147  H    0.005996
   148  H    0.003386
   149  H    0.010687
   150  H    0.017554
   151  H    0.030296
   152  H    0.045749
   153  H    0.008113
   154  H    0.046554
   155  H    0.037191
   156  H    0.043949
   157  H    0.049702
   158  H    0.052906
 Sum of Mulliken charges =  -0.00000

 Dipole moment (field-independent basis, Debye):
    X=             -4.9093    Y=              1.9400    Z=              6.4508  Tot=              8.3353
 Quadrupole moment (field-independent basis, Debye-Ang):
   XX=           -518.2653   YY=           -534.7284   ZZ=           -465.3228
   XY=             -9.5490   XZ=              0.7501   YZ=            -33.6775

 Normal termination of Gaussian 16 at Sat Sep 11 00:13:07 2021.
