 Gaussian 16, Revision A.03,
 Gaussian 16:  ES64L-G16RevA.03 25-Dec-2016

 -----------------------------------
 #p cam-b3lyp/Def2SVP td=(nstates=5)
 -----------------------------------

 --------------------------------
 TDDFT excited states in gaussian
 --------------------------------
 Symbolic Z-matrix:
 Charge =  0 Multiplicity = 1

                         Standard orientation:
 ---------------------------------------------------------------------
 Center     Atomic      Atomic             Coordinates (Angstroms)
 Number     Number       Type             X           Y           Z
 ---------------------------------------------------------------------
      1         12           0        8.063479   -0.600124    0.665780
      2          6           0        8.412222    2.321765   -1.372149
      3          6           0        8.709224    1.386346    3.363930
      4          6           0        8.210348   -3.230854    2.430521
      5          6           0        8.572195   -2.491337   -2.216958
      6          7           0        8.488948    1.564924    0.845194
      7          6           0        8.534729    2.584990   -0.006005
      8          6           0        8.649673    3.970984    0.696265
      9          6           0        9.296307    3.501300    2.075852
     10          6           0        8.772364    2.076623    2.117109
     11          6           0       10.820946    3.463452    2.052464
     12          6           0        7.252836    4.642960    0.917678
     13          6           0        7.293980    6.126520    1.295448
     14          1           0        6.249581    7.006334    0.792948
     15          7           0        7.926327   -0.839963    2.621929
     16          6           0        8.213505    0.081176    3.572885
     17          6           0        7.952534   -0.577842    4.870680
     18          6           0        7.672543   -2.015843    4.602623
     19          6           0        7.954605   -2.092933    3.191993
     20          6           0        7.936384    0.154883    6.177050
     21          6           0        7.232348   -3.144161    5.480835
     22          8           0        7.272515   -4.362273    5.094616
     23          6           0        6.831001   -2.789624    6.854249
     24          7           0        8.567117   -2.577930    0.227297
     25          6           0        8.492383   -3.532363    1.161350
     26          6           0        8.622433   -4.899074    0.557095
     27          6           0        8.558677   -4.690921   -1.024790
     28          6           0        8.480576   -3.144579   -1.056377
     29          6           0        9.898040   -5.672250    0.919087
     30          6           0        7.486748   -5.499520   -1.797807
     31          6           0        6.105560   -5.013022   -1.420004
     32          7           0        8.253043   -0.197630   -1.458628
     33          6           0        8.483078   -1.134008   -2.476937
     34          6           0        8.644179   -0.376748   -3.731796
     35          6           0        8.512301    0.957241   -3.351102
     36          6           0        8.309491    1.030202   -1.943325
     37          6           0        8.937446   -0.932124   -5.008505
     38          6           0        8.520109    2.339311   -3.802410
     39          8           0        8.556106    2.892040   -4.902723
     40          6           0        8.577276    3.284235   -2.521911
     41          6           0        7.533925    4.353494   -2.699150
     42          8           0        6.318847    4.069048   -2.692559
     43          8           0        8.114329    5.560046   -2.610240
     44          6           0        7.129372    6.665949   -2.748053
     45          1           0        9.130342    1.861384    4.252153
     46          1           0        8.159654   -4.170579    2.984402
     47          1           0        8.649311   -3.018512   -3.169635
     48          1           0        9.310860    4.679804    0.197435
     49          1           0        8.910873    4.071419    2.920913
     50          1           0       11.208559    3.641873    1.049546
     51          1           0       11.092552    2.464205    2.393386
     52          1           0       11.236867    4.153903    2.786673
     53          1           0        6.796368    4.234523    1.819275
     54          1           0        6.618213    4.511747    0.040544
     55          1           0        8.278283    6.557707    1.110691
     56          1           0        7.160658    6.208086    2.374231
     57          1           0        8.339856    1.161687    6.076548
     58          1           0        8.638647   -0.354591    6.836573
     59          1           0        6.945301    0.162724    6.630950
     60          1           0        7.666072   -2.303416    7.359034
     61          1           0        6.462531   -3.709559    7.306798
     62          1           0        6.029069   -2.052222    6.808527
     63          1           0        7.800126   -5.543107    0.866059
     64          1           0        9.496682   -4.960217   -1.510897
     65          1           0        9.706581   -6.642509    1.378047
     66          1           0       10.499849   -5.042094    1.573320
     67          1           0       10.583089   -5.838501    0.088133
     68          1           0        7.540125   -6.553917   -1.528840
     69          1           0        7.591304   -5.427722   -2.880473
     70          1           0        5.897458   -5.560478   -0.501408
     71          1           0        5.386016   -5.268833   -2.198483
     72          1           0        6.111355   -3.951349   -1.172408
     73          1           0        8.290926   -0.418863   -5.720224
     74          1           0        8.765138   -2.008112   -5.021313
     75          1           0        9.992949   -0.677123   -5.102016
     76          1           0        9.584545    3.697696   -2.482162
     77          1           0        7.472431    7.301421   -3.564582
     78          1           0        7.031754    7.118731   -1.761207
     79          1           0        6.138183    6.386705   -3.107089
     80         12           0       -7.752355   -0.700868   -0.613296
     81          6           0       -9.915686    1.629217    1.050968
     82          6           0       -6.453857    1.952227   -2.319056
     83          6           0       -6.155110   -2.767798   -2.414419
     84          6           0       -9.957042   -3.222368    0.349543
     85          7           0       -8.207883    1.462735   -0.553635
     86          6           0       -9.006477    2.239948    0.162282
     87          6           0       -8.764550    3.761230   -0.029454
     88          6           0       -8.092427    3.715984   -1.487211
     89          6           0       -7.514745    2.302735   -1.446265
     90          6           0       -9.104271    3.785773   -2.618870
     91          6           0       -7.778132    4.349033    1.039877
     92          6           0       -7.736447    5.877364    1.104942
     93          1           0       -7.546913    6.513741    2.405547
     94          7           0       -6.166432   -0.433567   -1.776045
     95          6           0       -5.774738    0.714936   -2.366626
     96          6           0       -4.562908    0.381317   -3.131038
     97          6           0       -4.364903   -1.092636   -3.076574
     98          6           0       -5.592839   -1.499600   -2.423380
     99          6           0       -3.680542    1.424196   -3.753341
    100          6           0       -3.259840   -1.988909   -3.547438
    101          8           0       -3.405008   -3.260838   -3.610285
    102          6           0       -2.035528   -1.326865   -4.020981
    103          7           0       -8.121691   -2.671555   -1.163164
    104          6           0       -7.239632   -3.357509   -1.911067
    105          6           0       -7.582698   -4.827666   -1.947947
    106          6           0       -8.744896   -5.024875   -0.867224
    107          6           0       -8.942996   -3.554672   -0.437513
    108          6           0       -8.048023   -5.368469   -3.299762
    109          6           0       -8.506226   -6.091712    0.236209
    110          6           0       -7.385254   -5.648646    1.148622
    111          7           0       -9.500960   -0.840055    0.648079
    112          6           0      -10.287319   -1.987230    0.892437
    113          6           0      -11.433443   -1.560947    1.721359
    114          6           0      -11.245210   -0.180126    1.883810
    115          6           0      -10.076067    0.229051    1.187269
    116          6           0      -12.490403   -2.400024    2.174020
    117          6           0      -11.775518    1.026214    2.477299
    118          8           0      -12.698298    1.281059    3.250118
    119          6           0      -11.007628    2.273189    1.859404
    120          6           0      -10.601487    3.176207    2.991706
    121          8           0       -9.772196    2.796153    3.836960
    122          8           0      -11.090493    4.409704    2.768725
    123          6           0      -10.704827    5.344357    3.859374
    124          1           0       -6.137243    2.678132   -3.068515
    125          1           0       -5.581622   -3.541480   -2.930163
    126          1           0      -10.635554   -3.966105    0.772824
    127          1           0       -9.663969    4.364773   -0.053267
    128          1           0       -7.296650    4.450704   -1.578229
    129          1           0      -10.119747    3.735055   -2.255054
    130          1           0       -8.888898    2.939966   -3.258621
    131          1           0       -8.927784    4.676973   -3.227925
    132          1           0       -6.746402    4.146164    0.725062
    133          1           0       -7.990479    3.951571    2.013311
    134          1           0       -8.578255    6.335735    0.571846
    135          1           0       -6.854239    6.223897    0.561222
    136          1           0       -4.168538    2.406543   -3.769365
    137          1           0       -3.568753    1.159172   -4.810287
    138          1           0       -2.691012    1.467756   -3.293343
    139          1           0       -2.280556   -0.661464   -4.845399
    140          1           0       -1.329898   -2.133007   -4.230974
    141          1           0       -1.643778   -0.697343   -3.214221
    142          1           0       -6.730137   -5.431033   -1.661245
    143          1           0       -9.687080   -5.344960   -1.335906
    144          1           0       -7.433838   -6.212190   -3.667168
    145          1           0       -8.042306   -4.555050   -4.013091
    146          1           0       -9.085146   -5.697785   -3.333188
    147          1           0       -8.186632   -7.035541   -0.212347
    148          1           0       -9.387943   -6.300893    0.832703
    149          1           0       -6.487596   -5.957313    0.604546
    150          1           0       -7.454718   -6.149746    2.112005
    151          1           0       -7.357987   -4.556335    1.236787
    152          1           0      -12.670863   -2.142432    3.209182
    153          1           0      -12.237570   -3.452489    2.063677
    154          1           0      -13.287505   -2.095516    1.490527
    155          1           0      -11.689545    2.767188    1.166198
    156          1           0      -11.630256    5.778573    4.250174
    157          1           0       -9.971839    6.040872    3.410660
    158          1           0      -10.276061    4.916384    4.757959
 ---------------------------------------------------------------------

 SCF Done:  E(RCAM-B3LYP) =  -4069.81202204     A.U. after   19 cycles

 Excitation energies and oscillator strengths:

 Excited State   1:      Singlet-A      1.6708 eV  742.06 nm  f=0.1544  <S**2>=0.000
     309 -> 315        0.10460
     310 -> 316        0.13783
     311 -> 313        0.41358
     312 -> 314        0.54768
 This state for optimization and/or second-order correction.
 Total Energy, E(TD-HF/TD-DFT) =  -4069.75062092
 Copying the excited state density for this state as the 1-particle RhoCI density.

 Excited State   2:      Singlet-A      1.6847 eV  735.93 nm  f=0.6165  <S**2>=0.000
     309 -> 315        0.14119
     310 -> 316       -0.10608
     311 -> 313        0.54696
     312 -> 314       -0.41317

 Excited State   3:      Singlet-A      2.1871 eV  566.90 nm  f=0.0544  <S**2>=0.000
     309 -> 313       -0.15284
     310 -> 314        0.62416
     312 -> 316       -0.26567

 Excited State   4:      Singlet-A      2.1935 eV  565.24 nm  f=0.1386  <S**2>=0.000
     309 -> 313        0.62231
     310 -> 314        0.15188
     311 -> 315       -0.27080

 Excited State   5:      Singlet-A      2.7696 eV  447.67 nm  f=0.0000  <S**2>=0.000
     312 -> 313        0.70705

 The electronic state is 1-A.
 Alpha  occ. eigenvalues --  -46.87830 -46.87574 -19.26388 -19.26305 -19.19125
 Alpha  occ. eigenvalues --  -19.19111 -19.18822 -19.18581 -19.18226 -19.17976
 Alpha  occ. eigenvalues --  -14.42486 -14.42412 -14.41477 -14.41275 -14.39434
 Alpha  occ. eigenvalues --  -14.39260 -14.38624 -14.38515 -10.39179 -10.39039
 Alpha  occ. eigenvalues --  -10.35454 -10.35251 -10.34448 -10.34156 -10.31798
 Alpha  occ. eigenvalues --  -10.31724 -10.31447 -10.31230 -10.30947 -10.30931
 Alpha  occ. eigenvalues --  -10.30608 -10.30539 -10.30311 -10.30276 -10.30224
 Alpha  occ. eigenvalues --  -10.30048 -10.29948 -10.29818 -10.29662 -10.29338
 Alpha  occ. eigenvalues --  -10.29302 -10.29281 -10.28803 -10.28645 -10.28619
 Alpha  occ. eigenvalues --  -10.28602 -10.28402 -10.28313 -10.28163 -10.28062
 Alpha  occ. eigenvalues --  -10.27909 -10.27828 -10.27760 -10.27612 -10.27579
 Alpha  occ. eigenvalues --  -10.27503 -10.27495 -10.27453 -10.27443 -10.27443
 Alpha  occ. eigenvalues --  -10.27399 -10.27361 -10.27303 -10.27294 -10.27222
 Alpha  occ. eigenvalues --  -10.26982 -10.26778 -10.26628 -10.26400 -10.26275
 Alpha  occ. eigenvalues --  -10.26211 -10.26167 -10.26071 -10.26045 -10.25950
 Alpha  occ. eigenvalues --  -10.25884 -10.25849 -10.25784 -10.25436 -10.25329
 Alpha  occ. eigenvalues --  -10.24872 -10.24815 -10.24785 -10.24665 -10.24658
 Alpha  occ. eigenvalues --  -10.24604  -3.16573  -3.16324  -1.91455  -1.91206
 Alpha  occ. eigenvalues --   -1.91041  -1.90883  -1.90795  -1.90632  -1.16736
 Alpha  occ. eigenvalues --   -1.16598  -1.08689  -1.08588  -1.07222  -1.06895
 Alpha  occ. eigenvalues --   -1.06832  -1.06746  -1.04618  -1.04409  -1.03790
 Alpha  occ. eigenvalues --   -1.03576  -1.03266  -1.02952  -1.02443  -1.02025
 Alpha  occ. eigenvalues --   -0.92017  -0.91906  -0.89536  -0.89414  -0.89237
 Alpha  occ. eigenvalues --   -0.89076  -0.88300  -0.88143  -0.87908  -0.87713
 Alpha  occ. eigenvalues --   -0.87709  -0.87599  -0.87293  -0.86988  -0.85027
 Alpha  occ. eigenvalues --   -0.84919  -0.83949  -0.83802  -0.82975  -0.82801
 Alpha  occ. eigenvalues --   -0.82689  -0.82553  -0.81649  -0.81529  -0.80640
 Alpha  occ. eigenvalues --   -0.80359  -0.78823  -0.78524  -0.77249  -0.77058
 Alpha  occ. eigenvalues --   -0.76983  -0.76829  -0.75973  -0.75760  -0.74919
 Alpha  occ. eigenvalues --   -0.74726  -0.72806  -0.72613  -0.71707  -0.71501
 Alpha  occ. eigenvalues --   -0.69908  -0.69684  -0.68914  -0.68742  -0.67676
 Alpha  occ. eigenvalues --   -0.67514  -0.67265  -0.67105  -0.65335  -0.65195
 Alpha  occ. eigenvalues --   -0.64897  -0.64690  -0.64661  -0.64578  -0.64288
 Alpha  occ. eigenvalues --   -0.64126  -0.62365  -0.62215  -0.60461  -0.60226
 Alpha  occ. eigenvalues --   -0.59848  -0.59715  -0.59023  -0.58911  -0.58541
 Alpha  occ. eigenvalues --   -0.58343  -0.57648  -0.57486  -0.57338  -0.57146
 Alpha  occ. eigenvalues --   -0.56347  -0.56113  -0.56053  -0.55818  -0.55550
 Alpha  occ. eigenvalues --   -0.55373  -0.55348  -0.55177  -0.54569  -0.54421
 Alpha  occ. eigenvalues --   -0.53945  -0.53835  -0.53327  -0.53261  -0.53136
 Alpha  occ. eigenvalues --   -0.53047  -0.52966  -0.52824  -0.52780  -0.52532
 Alpha  occ. eigenvalues --   -0.52439  -0.52328  -0.51956  -0.51812  -0.51662
 Alpha  occ. eigenvalues --   -0.51564  -0.51237  -0.51125  -0.50580  -0.50326
 Alpha  occ. eigenvalues --   -0.50042  -0.49941  -0.49878  -0.49777  -0.49551
 Alpha  occ. eigenvalues --   -0.49379  -0.49256  -0.49143  -0.49107  -0.49028
 Alpha  occ. eigenvalues --   -0.48645  -0.48488  -0.48482  -0.48469  -0.48302
 Alpha  occ. eigenvalues --   -0.48217  -0.47728  -0.47500  -0.47326  -0.47016
 Alpha  occ. eigenvalues --   -0.46828  -0.46629  -0.46604  -0.46470  -0.46392
 Alpha  occ. eigenvalues --   -0.46200  -0.46181  -0.46010  -0.45878  -0.45756
 Alpha  occ. eigenvalues --   -0.45217  -0.45130  -0.44628  -0.44531  -0.44438
 Alpha  occ. eigenvalues --   -0.44391  -0.44172  -0.44127  -0.44057  -0.44044
 Alpha  occ. eigenvalues --   -0.43990  -0.43823  -0.43554  -0.43490  -0.43420
 Alpha  occ. eigenvalues --   -0.43306  -0.43064  -0.42866  -0.42825  -0.42777
 Alpha  occ. eigenvalues --   -0.42671  -0.42467  -0.42035  -0.41891  -0.41743
 Alpha  occ. eigenvalues --   -0.41590  -0.41577  -0.41381  -0.41176  -0.40909
 Alpha  occ. eigenvalues --   -0.40905  -0.40840  -0.40636  -0.40589  -0.40588
 Alpha  occ. eigenvalues --   -0.40419  -0.40290  -0.40142  -0.39437  -0.39353
 Alpha  occ. eigenvalues --   -0.38487  -0.38276  -0.37804  -0.37583  -0.37341
 Alpha  occ. eigenvalues --   -0.37312  -0.37187  -0.37117  -0.36788  -0.36716
 Alpha  occ. eigenvalues --   -0.36240  -0.36145  -0.34321  -0.34170  -0.33864
 Alpha  occ. eigenvalues --   -0.33805  -0.33224  -0.33090  -0.31353  -0.31144
 Alpha  occ. eigenvalues --   -0.31069  -0.30885  -0.30088  -0.29884  -0.29478
 Alpha  occ. eigenvalues --   -0.29359  -0.29225  -0.29123  -0.24115  -0.23952
 Alpha  occ. eigenvalues --   -0.21159  -0.21028
 Alpha virt. eigenvalues --   -0.08806  -0.08699  -0.01778  -0.01594  -0.00084
 Alpha virt. eigenvalues --    0.00081   0.02159   0.02290   0.03077   0.03307
 Alpha virt. eigenvalues --    0.04675   0.04807   0.05006   0.05220   0.06112

 Mulliken charges:
               1
     1  Mg   0.838447
     2  C   -0.003300
     3  C   -0.094176
     4  C   -0.045650
     5  C   -0.063796
     6  N   -0.256812
     7  C   -0.052609
     8  C   -0.014001
     9  C   -0.087015
    10  C    0.046308
    11  C    0.104780
    12  C    0.053491
    13  C   -0.071650
    14  H    0.035386
    15  N   -0.433196
    16  C    0.168511
    17  C   -0.177040
    18  C   -0.003782
    19  C    0.148753
    20  C    0.110137
    21  C    0.012500
    22  O   -0.249276
    23  C    0.062377
    24  N   -0.341133
    25  C    0.041323
    26  C   -0.028260
    27  C   -0.023990
    28  C    0.074824
    29  C    0.076130
    30  C    0.035059
    31  C   -0.004597
    32  N   -0.310345
    33  C    0.080157
    34  C   -0.169909
    35  C    0.008144
    36  C    0.082712
    37  C    0.127389
    38  C    0.045739
    39  O   -0.188943
    40  C   -0.005194
    41  C    0.212911
    42  O   -0.257948
    43  O   -0.304540
    44  C    0.157936
    45  H   -0.017487
    46  H   -0.016518
    47  H   -0.041366
    48  H    0.000861
    49  H   -0.004004
    50  H    0.025459
    51  H    0.016601
    52  H    0.016751
    53  H    0.011275
    54  H    0.043539
    55  H    0.018036
    56  H    0.018191
    57  H    0.005863
    58  H    0.027025
    59  H    0.039876
    60  H    0.037338
    61  H    0.036042
    62  H    0.031715
    63  H    0.016918
    64  H    0.009470
    65  H    0.023454
    66  H    0.012476
    67  H    0.004808
    68  H    0.006665
    69  H    0.004715
    70  H    0.009168
    71  H    0.018821
    72  H    0.028447
    73  H    0.047126
    74  H    0.009308
    75  H    0.046043
    76  H    0.035228
    77  H    0.042929
    78  H    0.046518
    79  H    0.052860
    80  Mg   0.837656
    81  C   -0.016931
    82  C   -0.087597
    83  C   -0.045487
    84  C   -0.064931
    85  N   -0.254569
    86  C   -0.050034
    87  C   -0.015096
    88  C   -0.090499
    89  C    0.045723
    90  C    0.114354
    91  C    0.062476
    92  C   -0.077727
    93  H    0.034323
    94  N   -0.423569
    95  C    0.162970
    96  C   -0.174296
    97  C   -0.007540
    98  C    0.152134
    99  C    0.099164
   100  C    0.015598
   101  O   -0.253497
   102  C    0.061254
   103  N   -0.350025
   104  C    0.037569
   105  C   -0.019829
   106  C   -0.034716
   107  C    0.088722
   108  C    0.073705
   109  C    0.034804
   110  C   -0.007655
   111  N   -0.324012
   112  C    0.078167
   113  C   -0.163388
   114  C    0.002073
   115  C    0.096022
   116  C    0.131552
   117  C    0.042151
   118  O   -0.188373
   119  C    0.001005
   120  C    0.211192
   121  O   -0.251175
   122  O   -0.305599
   123  C    0.152134
   124  H   -0.019315
   125  H   -0.015541
   126  H   -0.040726
   127  H   -0.000844
   128  H   -0.004160
   129  H    0.022309
   130  H    0.014521
   131  H    0.016331
   132  H    0.014103
   133  H    0.037487
   134  H    0.020719
   135  H    0.019746
   136  H    0.008811
   137  H    0.026681
   138  H    0.041598
   139  H    0.038818
   140  H    0.036653
   141  H    0.035047
   142  H    0.014399
   143  H    0.012223
   144  H    0.025069
   145  H    0.011712
   146  H    0.005521
   147  H    0.006106
   148  H    0.003465
   149  H    0.010995
   150  H    0.017734
   151  H    0.030177
   152  H    0.045706
   153  H    0.008335
   154  H    0.046714
   155  H    0.034868
   156  H    0.043716
   157  H    0.049456
   158  H    0.053364
 Sum of Mulliken charges =  -0.00000

 Dipole moment (field-independent basis, Debye):
    X=              3.6419    Y=              3.0524    Z=              0.6914  Tot=              4.8020
 Quadrupole moment (field-independent basis, Debye-Ang):
   XX=           -526.8759   YY=           -464.3530   ZZ=           -524.2638
   XY=             10.0639   XZ=             71.3815   YZ=             21.2367

 Normal termination of Gaussian 16 at Sat Sep 11 20:01:33 2021.
