 Gaussian 16, Revision A.03,
 Gaussian 16:  ES64L-G16RevA.03 25-Dec-2016

 -----------------------------------
 #p cam-b3lyp/Def2SVP td=(nstates=5)
 -----------------------------------

 --------------------------------
 TDDFT excited states in gaussian
 --------------------------------
 Symbolic Z-matrix:
 Charge =  0 Multiplicity = 1

                         Standard orientation:
 ---------------------------------------------------------------------
 Center     Atomic      Atomic             Coordinates (Angstroms)
 Number     Number       Type             X           Y           Z
 ---------------------------------------------------------------------
      1         12           0        6.730415   -0.579088    0.736920
      2          6           0        7.119242    2.353828   -1.277784
      3          6           0        7.293730    1.397994    3.460317
      4          6           0        6.842905   -3.217199    2.493148
      5          6           0        7.325612   -2.454495   -2.139579
      6          7           0        7.140209    1.587135    0.937402
      7          6           0        7.203759    2.611330    0.092323
      8          6           0        7.292972    3.994605    0.803637
      9          6           0        7.904685    3.521680    2.197964
     10          6           0        7.386874    2.094317    2.218750
     11          6           0        9.429571    3.491293    2.215341
     12          6           0        5.887392    4.658807    0.990487
     13          6           0        5.911054    6.140788    1.375877
     14          1           0        4.876170    7.017866    0.849475
     15          7           0        6.542034   -0.828615    2.687586
     16          6           0        6.799044    0.089497    3.650032
     17          6           0        6.506620   -0.576757    4.937384
     18          6           0        6.241033   -2.014838    4.655459
     19          6           0        6.561207   -2.084053    3.252577
     20          6           0        6.451814    0.149842    6.246124
     21          6           0        5.783026   -3.149309    5.516468
     22          8           0        5.839560   -4.365417    5.126005
     23          6           0        5.343239   -2.803058    6.880190
     24          7           0        7.255406   -2.552396    0.303245
     25          6           0        7.160366   -3.511481    1.230665
     26          6           0        7.313333   -4.874745    0.623993
     27          6           0        7.291000   -4.659599   -0.958084
     28          6           0        7.206129   -3.113522   -0.984818
     29          6           0        8.582579   -5.643423    1.016624
     30          6           0        6.244202   -5.469780   -1.763217
     31          6           0        4.850988   -4.991698   -1.420447
     32          7           0        6.974898   -0.165879   -1.379807
     33          6           0        7.236790   -1.096425   -2.395765
     34          6           0        7.427744   -0.332610   -3.642437
     35          6           0        7.279109    0.998955   -3.259440
     36          6           0        7.038254    1.064436   -1.857301
     37          6           0        7.757891   -0.880665   -4.913292
     38          6           0        7.292184    2.383116   -3.704170
     39          8           0        7.354947    2.941086   -4.800629
     40          6           0        7.310313    3.322382   -2.418371
     41          6           0        6.266817    4.387404   -2.618755
     42          8           0        5.053421    4.097074   -2.646060
     43          8           0        6.838654    5.596317   -2.508884
     44          6           0        5.852291    6.698082   -2.668125
     45          1           0        7.688519    1.870951    4.361647
     46          1           0        6.782021   -4.159706    3.041247
     47          1           0        7.430859   -2.976887   -3.092198
     48          1           0        7.963787    4.708900    0.325921
     49          1           0        7.493909    4.086025    3.034923
     50          1           0        9.843057    3.676210    1.224001
     51          1           0        9.696872    2.491803    2.558945
     52          1           0        9.822231    4.180344    2.963541
     53          1           0        5.408932    4.244015    1.877664
     54          1           0        5.277181    4.528587    0.096054
     55          1           0        6.897813    6.577566    1.219545
     56          1           0        5.748443    6.216728    2.451047
     57          1           0        6.852853    1.159033    6.161007
     58          1           0        7.138646   -0.359280    6.921969
     59          1           0        5.448887    0.150807    6.673286
     60          1           0        6.162055   -2.315164    7.409386
     61          1           0        4.967316   -3.726838    7.318553
     62          1           0        4.539185   -2.069327    6.816266
     63          1           0        6.486229   -5.524155    0.907880
     64          1           0        8.243026   -4.922122   -1.420039
     65          1           0        8.383679   -6.616704    1.465922
     66          1           0        9.163501   -5.013400    1.689597
     67          1           0        9.290483   -5.802530    0.203621
     68          1           0        6.295558   -6.525138   -1.497647
     69          1           0        6.377402   -5.392480   -2.842352
     70          1           0        4.621033   -5.544387   -0.510234
     71          1           0        4.153857   -5.247379   -2.219100
     72          1           0        4.844891   -3.931165   -1.168024
     73          1           0        7.128164   -0.367247   -5.639799
     74          1           0        7.591311   -1.957401   -4.935548
     75          1           0        8.814249   -0.620148   -4.977290
     76          1           0        8.314097    3.740507   -2.349743
     77          1           0        6.213981    7.338964   -3.472291
     78          1           0        5.726003    7.145826   -1.682234
     79          1           0        4.872482    6.415722   -3.054888
     80         12           0       -6.414386   -0.720617   -0.681944
     81          6           0       -8.633061    1.591300    0.934087
     82          6           0       -5.083739    1.946547   -2.340304
     83          6           0       -4.759196   -2.771480   -2.448795
     84          6           0       -8.631610   -3.257149    0.210053
     85          7           0       -6.882042    1.440466   -0.624827
     86          6           0       -7.703374    2.210506    0.072877
     87          6           0       -7.463929    3.733804   -0.105461
     88          6           0       -6.752731    3.698532   -1.544848
     89          6           0       -6.169374    2.287911   -1.494751
     90          6           0       -7.734191    3.768665   -2.702937
     91          6           0       -6.509465    4.321413    0.992590
     92          6           0       -6.477095    5.849611    1.065597
     93          1           0       -6.325653    6.480883    2.373665
     94          7           0       -4.799190   -0.440305   -1.800482
     95          6           0       -4.397478    0.712789   -2.375186
     96          6           0       -3.163949    0.388550   -3.108272
     97          6           0       -2.960188   -1.084667   -3.055136
     98          6           0       -4.203164   -1.500558   -2.436970
     99          6           0       -2.270374    1.438534   -3.701990
    100          6           0       -1.838465   -1.973415   -3.500180
    101          8           0       -1.975616   -3.245727   -3.572599
    102          6           0       -0.605181   -1.303295   -3.937713
    103          7           0       -6.759082   -2.690501   -1.250362
    104          6           0       -5.853900   -3.368743   -1.977378
    105          6           0       -6.188579   -4.840341   -2.030059
    106          6           0       -7.378366   -5.048141   -0.981821
    107          6           0       -7.595189   -3.580911   -0.550981
    108          6           0       -6.614802   -5.377135   -3.396281
    109          6           0       -7.164096   -6.118898    0.122827
    110          6           0       -6.070204   -5.674648    1.066980
    111          7           0       -8.195474   -0.874057    0.531402
    112          6           0       -8.982422   -2.026126    0.749414
    113          6           0      -10.152461   -1.609208    1.549175
    114          6           0       -9.975493   -0.228261    1.722812
    115          6           0       -8.790115    0.189763    1.059751
    116          6           0      -11.217018   -2.455463    1.969531
    117          6           0      -10.527486    0.972754    2.307257
    118          8           0      -11.471913    1.219575    3.056173
    119          6           0       -9.749475    2.226258    1.715799
    120          6           0       -9.378309    3.125987    2.862638
    121          8           0       -8.570128    2.746037    3.728133
    122          8           0       -9.867255    4.358127    2.632156
    123          6           0       -9.515605    5.289584    3.736937
    124          1           0       -4.750722    2.677434   -3.077727
    125          1           0       -4.168262   -3.540009   -2.952425
    126          1           0       -9.317545   -4.006086    0.611618
    127          1           0       -8.365356    4.333097   -0.150712
    128          1           0       -5.958441    4.437494   -1.611175
    129          1           0       -8.758799    3.711371   -2.366733
    130          1           0       -7.497559    2.926869   -3.340455
    131          1           0       -7.545832    4.663509   -3.303018
    132          1           0       -5.468670    4.124979    0.704668
    133          1           0       -6.745875    3.918442    1.958170
    134          1           0       -7.306559    6.306375    0.512157
    135          1           0       -5.582336    6.202902    0.547316
    136          1           0       -2.762619    2.418580   -3.726690
    137          1           0       -2.128958    1.178937   -4.756730
    138          1           0       -1.293767    1.484741   -3.215395
    139          1           0       -0.831306   -0.635285   -4.765419
    140          1           0        0.109795   -2.105048   -4.132305
    141          1           0       -0.238337   -0.675634   -3.117914
    142          1           0       -5.341053   -5.440908   -1.723277
    143          1           0       -8.306047   -5.370599   -1.477057
    144          1           0       -5.986829   -6.216180   -3.750851
    145          1           0       -6.593984   -4.560412   -4.105554
    146          1           0       -7.649022   -5.711291   -3.459024
    147          1           0       -6.827932   -7.059094   -0.321221
    148          1           0       -8.060450   -6.335080    0.694492
    149          1           0       -5.156761   -5.976468    0.545817
    150          1           0       -6.163015   -6.180522    2.025901
    151          1           0       -6.050724   -4.582639    1.160752
    152          1           0      -11.426452   -2.203517    3.000631
    153          1           0      -10.956119   -3.506166    1.861304
    154          1           0      -11.997011   -2.151641    1.266268
    155          1           0      -10.414978    2.720159    1.006763
    156          1           0      -10.453327    5.717522    4.104696
    157          1           0       -8.774298    5.991690    3.311190
    158          1           0       -9.108993    4.859539    4.644777
 ---------------------------------------------------------------------

 SCF Done:  E(RCAM-B3LYP) =  -4069.81231813     A.U. after   19 cycles

 Excitation energies and oscillator strengths:

 Excited State   1:      Singlet-A      1.6660 eV  744.19 nm  f=0.1514  <S**2>=0.000
     309 -> 315        0.11257
     310 -> 316        0.13009
     311 -> 313       -0.44799
     312 -> 314        0.52027
 This state for optimization and/or second-order correction.
 Total Energy, E(TD-HF/TD-DFT) =  -4069.75109270
 Copying the excited state density for this state as the 1-particle RhoCI density.

 Excited State   2:      Singlet-A      1.6890 eV  734.08 nm  f=0.6133  <S**2>=0.000
     309 -> 315       -0.13499
     310 -> 316        0.11556
     311 -> 313        0.51918
     312 -> 314        0.44722

 Excited State   3:      Singlet-A      2.1874 eV  566.80 nm  f=0.0318  <S**2>=0.000
     309 -> 313       -0.23809
     310 -> 314        0.59703
     311 -> 315       -0.10084
     312 -> 316       -0.25418

 Excited State   4:      Singlet-A      2.1944 eV  564.99 nm  f=0.1565  <S**2>=0.000
     309 -> 313        0.59497
     310 -> 314        0.23653
     311 -> 315        0.25961
     312 -> 316       -0.10326

 Excited State   5:      Singlet-A      2.6470 eV  468.39 nm  f=0.0000  <S**2>=0.000
     312 -> 313        0.70700

 The electronic state is 1-A.
 Alpha  occ. eigenvalues --  -46.87859 -46.87521 -19.26465 -19.26279 -19.19211
 Alpha  occ. eigenvalues --  -19.19082 -19.18834 -19.18508 -19.18271 -19.17929
 Alpha  occ. eigenvalues --  -14.42515 -14.42360 -14.41499 -14.41224 -14.39459
 Alpha  occ. eigenvalues --  -14.39204 -14.38657 -14.38463 -10.39259 -10.39009
 Alpha  occ. eigenvalues --  -10.35465 -10.35173 -10.34495 -10.34110 -10.31877
 Alpha  occ. eigenvalues --  -10.31706 -10.31481 -10.31181 -10.30977 -10.30874
 Alpha  occ. eigenvalues --  -10.30640 -10.30566 -10.30260 -10.30237 -10.30221
 Alpha  occ. eigenvalues --  -10.29991 -10.29970 -10.29774 -10.29689 -10.29303
 Alpha  occ. eigenvalues --  -10.29276 -10.29239 -10.28843 -10.28670 -10.28602
 Alpha  occ. eigenvalues --  -10.28577 -10.28434 -10.28256 -10.28197 -10.28016
 Alpha  occ. eigenvalues --  -10.27857 -10.27850 -10.27787 -10.27637 -10.27522
 Alpha  occ. eigenvalues --  -10.27509 -10.27495 -10.27476 -10.27452 -10.27401
 Alpha  occ. eigenvalues --  -10.27348 -10.27293 -10.27273 -10.27264 -10.27148
 Alpha  occ. eigenvalues --  -10.26940 -10.26829 -10.26593 -10.26400 -10.26304
 Alpha  occ. eigenvalues --  -10.26133 -10.26089 -10.26064 -10.26035 -10.25915
 Alpha  occ. eigenvalues --  -10.25905 -10.25797 -10.25740 -10.25437 -10.25296
 Alpha  occ. eigenvalues --  -10.24906 -10.24837 -10.24730 -10.24629 -10.24598
 Alpha  occ. eigenvalues --  -10.24554  -3.16602  -3.16272  -1.91484  -1.91154
 Alpha  occ. eigenvalues --   -1.91070  -1.90912  -1.90743  -1.90579  -1.16813
 Alpha  occ. eigenvalues --   -1.16571  -1.08738  -1.08543  -1.07232  -1.06867
 Alpha  occ. eigenvalues --   -1.06828  -1.06760  -1.04649  -1.04357  -1.03813
 Alpha  occ. eigenvalues --   -1.03523  -1.03293  -1.02899  -1.02470  -1.01971
 Alpha  occ. eigenvalues --   -0.92053  -0.91856  -0.89543  -0.89367  -0.89272
 Alpha  occ. eigenvalues --   -0.89031  -0.88306  -0.88099  -0.87940  -0.87737
 Alpha  occ. eigenvalues --   -0.87662  -0.87547  -0.87312  -0.86899  -0.85061
 Alpha  occ. eigenvalues --   -0.84872  -0.83951  -0.83761  -0.82982  -0.82727
 Alpha  occ. eigenvalues --   -0.82718  -0.82485  -0.81695  -0.81489  -0.80673
 Alpha  occ. eigenvalues --   -0.80309  -0.78846  -0.78449  -0.77271  -0.77015
 Alpha  occ. eigenvalues --   -0.77003  -0.76788  -0.76009  -0.75709  -0.74932
 Alpha  occ. eigenvalues --   -0.74681  -0.72831  -0.72559  -0.71733  -0.71453
 Alpha  occ. eigenvalues --   -0.69896  -0.69642  -0.68945  -0.68691  -0.67705
 Alpha  occ. eigenvalues --   -0.67461  -0.67298  -0.67049  -0.65371  -0.65150
 Alpha  occ. eigenvalues --   -0.64931  -0.64688  -0.64642  -0.64532  -0.64297
 Alpha  occ. eigenvalues --   -0.64081  -0.62413  -0.62176  -0.60478  -0.60152
 Alpha  occ. eigenvalues --   -0.59882  -0.59666  -0.59050  -0.58862  -0.58571
 Alpha  occ. eigenvalues --   -0.58293  -0.57700  -0.57445  -0.57358  -0.57090
 Alpha  occ. eigenvalues --   -0.56379  -0.56106  -0.56054  -0.55776  -0.55575
 Alpha  occ. eigenvalues --   -0.55395  -0.55284  -0.55135  -0.54597  -0.54383
 Alpha  occ. eigenvalues --   -0.53982  -0.53790  -0.53349  -0.53292  -0.53084
 Alpha  occ. eigenvalues --   -0.53006  -0.52987  -0.52801  -0.52777  -0.52442
 Alpha  occ. eigenvalues --   -0.52421  -0.52286  -0.51990  -0.51765  -0.51696
 Alpha  occ. eigenvalues --   -0.51505  -0.51265  -0.51078  -0.50589  -0.50228
 Alpha  occ. eigenvalues --   -0.50045  -0.49956  -0.49808  -0.49722  -0.49580
 Alpha  occ. eigenvalues --   -0.49315  -0.49290  -0.49177  -0.49044  -0.48982
 Alpha  occ. eigenvalues --   -0.48687  -0.48513  -0.48483  -0.48434  -0.48259
 Alpha  occ. eigenvalues --   -0.48142  -0.47751  -0.47440  -0.47350  -0.46947
 Alpha  occ. eigenvalues --   -0.46849  -0.46640  -0.46580  -0.46420  -0.46419
 Alpha  occ. eigenvalues --   -0.46227  -0.46122  -0.45964  -0.45920  -0.45715
 Alpha  occ. eigenvalues --   -0.45225  -0.45085  -0.44666  -0.44549  -0.44392
 Alpha  occ. eigenvalues --   -0.44340  -0.44198  -0.44145  -0.44084  -0.43996
 Alpha  occ. eigenvalues --   -0.43937  -0.43746  -0.43596  -0.43452  -0.43445
 Alpha  occ. eigenvalues --   -0.43259  -0.43091  -0.42841  -0.42829  -0.42776
 Alpha  occ. eigenvalues --   -0.42667  -0.42415  -0.42046  -0.41848  -0.41773
 Alpha  occ. eigenvalues --   -0.41607  -0.41542  -0.41336  -0.41203  -0.40929
 Alpha  occ. eigenvalues --   -0.40861  -0.40856  -0.40594  -0.40591  -0.40522
 Alpha  occ. eigenvalues --   -0.40376  -0.40329  -0.40092  -0.39418  -0.39312
 Alpha  occ. eigenvalues --   -0.38496  -0.38234  -0.37844  -0.37543  -0.37353
 Alpha  occ. eigenvalues --   -0.37348  -0.37141  -0.37066  -0.36848  -0.36685
 Alpha  occ. eigenvalues --   -0.36270  -0.36103  -0.34351  -0.34119  -0.33940
 Alpha  occ. eigenvalues --   -0.33772  -0.33254  -0.33038  -0.31366  -0.31097
 Alpha  occ. eigenvalues --   -0.31074  -0.30832  -0.30135  -0.29838  -0.29505
 Alpha  occ. eigenvalues --   -0.29392  -0.29162  -0.29065  -0.24144  -0.23900
 Alpha  occ. eigenvalues --   -0.21185  -0.20973
 Alpha virt. eigenvalues --   -0.08833  -0.08640  -0.01801  -0.01541  -0.00109
 Alpha virt. eigenvalues --    0.00148   0.02125   0.02340   0.03033   0.03351
 Alpha virt. eigenvalues --    0.04644   0.04853   0.04932   0.05252   0.06068

 Mulliken charges:
               1
     1  Mg   0.838104
     2  C   -0.003675
     3  C   -0.094187
     4  C   -0.045466
     5  C   -0.063672
     6  N   -0.256853
     7  C   -0.052749
     8  C   -0.013962
     9  C   -0.087032
    10  C    0.046309
    11  C    0.104757
    12  C    0.053493
    13  C   -0.071611
    14  H    0.035033
    15  N   -0.433264
    16  C    0.168591
    17  C   -0.176933
    18  C   -0.003627
    19  C    0.148817
    20  C    0.110095
    21  C    0.012668
    22  O   -0.249064
    23  C    0.062303
    24  N   -0.341180
    25  C    0.041441
    26  C   -0.028293
    27  C   -0.023988
    28  C    0.074876
    29  C    0.076112
    30  C    0.034970
    31  C   -0.004728
    32  N   -0.310211
    33  C    0.079840
    34  C   -0.170202
    35  C    0.007943
    36  C    0.082235
    37  C    0.127472
    38  C    0.045263
    39  O   -0.189217
    40  C   -0.005030
    41  C    0.213083
    42  O   -0.258967
    43  O   -0.304299
    44  C    0.158046
    45  H   -0.017396
    46  H   -0.016306
    47  H   -0.041184
    48  H    0.000847
    49  H   -0.003941
    50  H    0.025466
    51  H    0.016694
    52  H    0.016840
    53  H    0.011369
    54  H    0.042969
    55  H    0.018172
    56  H    0.018401
    57  H    0.005881
    58  H    0.027131
    59  H    0.040147
    60  H    0.037319
    61  H    0.036212
    62  H    0.031923
    63  H    0.017210
    64  H    0.009429
    65  H    0.023561
    66  H    0.012379
    67  H    0.004851
    68  H    0.006775
    69  H    0.004723
    70  H    0.009358
    71  H    0.020434
    72  H    0.027685
    73  H    0.046744
    74  H    0.009546
    75  H    0.046121
    76  H    0.035360
    77  H    0.043082
    78  H    0.046676
    79  H    0.052280
    80  Mg   0.837430
    81  C   -0.016968
    82  C   -0.087338
    83  C   -0.045570
    84  C   -0.064962
    85  N   -0.254537
    86  C   -0.050218
    87  C   -0.015086
    88  C   -0.090506
    89  C    0.045635
    90  C    0.114355
    91  C    0.062463
    92  C   -0.077602
    93  H    0.033888
    94  N   -0.423630
    95  C    0.162912
    96  C   -0.174031
    97  C   -0.007520
    98  C    0.152157
    99  C    0.098845
   100  C    0.015339
   101  O   -0.254156
   102  C    0.061523
   103  N   -0.350025
   104  C    0.037654
   105  C   -0.019811
   106  C   -0.034658
   107  C    0.088607
   108  C    0.073756
   109  C    0.034845
   110  C   -0.007604
   111  N   -0.323944
   112  C    0.077959
   113  C   -0.163567
   114  C    0.001984
   115  C    0.095862
   116  C    0.131586
   117  C    0.042014
   118  O   -0.188686
   119  C    0.001033
   120  C    0.211177
   121  O   -0.251313
   122  O   -0.305572
   123  C    0.152202
   124  H   -0.019026
   125  H   -0.015693
   126  H   -0.040909
   127  H   -0.000969
   128  H   -0.004047
   129  H    0.022222
   130  H    0.014582
   131  H    0.016326
   132  H    0.014207
   133  H    0.037331
   134  H    0.020701
   135  H    0.019786
   136  H    0.008866
   137  H    0.026946
   138  H    0.044141
   139  H    0.039569
   140  H    0.035788
   141  H    0.036300
   142  H    0.014277
   143  H    0.012106
   144  H    0.024882
   145  H    0.011751
   146  H    0.005454
   147  H    0.005947
   148  H    0.003383
   149  H    0.010948
   150  H    0.017643
   151  H    0.030226
   152  H    0.045523
   153  H    0.008212
   154  H    0.046580
   155  H    0.034777
   156  H    0.043630
   157  H    0.049403
   158  H    0.053214
 Sum of Mulliken charges =  -0.00000

 Dipole moment (field-independent basis, Debye):
    X=              3.7354    Y=              3.0231    Z=              0.8002  Tot=              4.8716
 Quadrupole moment (field-independent basis, Debye-Ang):
   XX=           -530.8384   YY=           -464.4877   ZZ=           -522.2376
   XY=             10.0998   XZ=             61.6198   YZ=             22.0528

 Normal termination of Gaussian 16 at Sat Sep 11 04:35:01 2021.
