 Gaussian 16, Revision A.03,
 Gaussian 16:  ES64L-G16RevA.03 25-Dec-2016

 -----------------------------------
 #p cam-b3lyp/Def2SVP td=(nstates=5)
 -----------------------------------

 --------------------------------
 TDDFT excited states in gaussian
 --------------------------------
 Symbolic Z-matrix:
 Charge =  0 Multiplicity = 1

                         Standard orientation:
 ---------------------------------------------------------------------
 Center     Atomic      Atomic             Coordinates (Angstroms)
 Number     Number       Type             X           Y           Z
 ---------------------------------------------------------------------
      1         12           0       15.778329    0.657339    0.444066
      2          6           0       16.127660   -2.529473   -1.147916
      3          6           0       16.602813    2.075760   -2.547819
      4          6           0       15.920934    3.453837    1.932651
      5          6           0       16.101503   -0.996354    3.494725
      6          7           0       16.278018   -0.220793   -1.525665
      7          6           0       16.317991   -1.454534   -2.019079
      8          6           0       16.506413   -1.495822   -3.565095
      9          6           0       17.198035   -0.074322   -3.772444
     10          6           0       16.632584    0.649608   -2.563265
     11          6           0       18.718283   -0.113488   -3.654917
     12          6           0       15.142073   -1.585871   -4.328115
     13          6           0       15.245602   -1.957276   -5.810240
     14          1           0       14.207904   -2.791497   -6.397271
     15          7           0       15.719666    2.496240   -0.275553
     16          6           0       16.076591    2.890009   -1.521682
     17          6           0       15.852473    4.350957   -1.567321
     18          6           0       15.516659    4.803072   -0.188584
     19          6           0       15.734123    3.591087    0.559199
     20          6           0       15.916251    5.154132   -2.830092
     21          6           0       15.080675    6.121332    0.368409
     22          8           0       15.066181    6.357572    1.624814
     23          6           0       14.751050    7.171949   -0.611689
     24          7           0       16.200851    1.196444    2.415988
     25          6           0       16.137626    2.472714    2.811108
     26          6           0       16.198737    2.585280    4.305610
     27          6           0       16.072201    1.095663    4.866664
     28          6           0       16.040660    0.337014    3.516951
     29          6           0       17.464452    3.239748    4.876265
     30          6           0       14.942932    0.824000    5.892028
     31          6           0       13.595334    0.959131    5.219112
     32          7           0       15.886988   -1.408005    1.102541
     33          6           0       16.043109   -1.866229    2.418721
     34          6           0       16.172421   -3.333541    2.352824
     35          6           0       16.098677   -3.627355    0.992648
     36          6           0       15.960098   -2.417822    0.253650
     37          6           0       16.392146   -4.201276    3.458803
     38          6           0       16.129450   -4.679698   -0.010091
     39          8           0       16.134282   -5.911054    0.025000
     40          6           0       16.271870   -4.001600   -1.443872
     41          6           0       15.255330   -4.639290   -2.351235
     42          8           0       14.033492   -4.469608   -2.162330
     43          8           0       15.876117   -5.146631   -3.427233
     44          6           0       14.920747   -5.768376   -4.382668
     45          1           0       17.076937    2.622475   -3.365284
     46          1           0       15.865513    4.387902    2.495580
     47          1           0       16.120459   -1.587035    4.412433
     48          1           0       17.166717   -2.286634   -3.921520
     49          1           0       16.867818    0.408662   -4.691904
     50          1           0       19.066914   -1.090168   -3.319546
     51          1           0       18.973526    0.653598   -2.923532
     52          1           0       19.187134    0.195706   -4.589452
     53          1           0       14.713132   -0.587743   -4.416496
     54          1           0       14.465873   -2.280629   -3.828725
     55          1           0       16.233730   -2.347799   -6.055195
     56          1           0       15.162262   -1.043093   -6.398054
     57          1           0       16.345882    4.578939   -3.649308
     58          1           0       16.630642    5.959292   -2.659585
     59          1           0       14.946725    5.573713   -3.098984
     60          1           0       15.622075    7.365923   -1.237978
     61          1           0       14.374482    8.015045   -0.033557
     62          1           0       13.971078    6.801497   -1.277541
     63          1           0       15.371229    3.182116    4.686980
     64          1           0       16.979226    0.772889    5.378324
     65          1           0       17.263366    4.108095    5.504153
     66          1           0       18.113554    3.502658    4.041498
     67          1           0       18.106964    2.570640    5.448008
     68          1           0       14.975402    1.559102    6.695469
     69          1           0       15.002121   -0.165581    6.345325
     70          1           0       13.410846    2.032147    5.256967
     71          1           0       12.834804    0.412290    5.777476
     72          1           0       13.644811    0.673889    4.168077
     73          1           0       15.731249   -5.055512    3.312296
     74          1           0       16.186241   -3.698582    4.403528
     75          1           0       17.449920   -4.429698    3.329216
     76          1           0       17.292221   -4.186644   -1.778183
     77          1           0       15.247193   -6.796481   -4.539724
     78          1           0       14.880516   -5.111876   -5.252032
     79          1           0       13.906616   -5.928379   -4.014869
     80         12           0      -15.948628   -0.737711    0.331508
     81          6           0      -15.867186    2.256189   -1.645608
     82          6           0      -15.166195    1.199778    3.027522
     83          6           0      -15.569779   -3.402586    2.011481
     84          6           0      -15.590640   -2.537980   -2.631021
     85          7           0      -15.589084    1.434945    0.537796
     86          6           0      -15.646235    2.482277   -0.271017
     87          6           0      -15.535781    3.854932    0.445343
     88          6           0      -14.758984    3.374949    1.766350
     89          6           0      -15.223046    1.920442    1.807887
     90          6           0      -13.247034    3.389747    1.614255
     91          6           0      -16.940077    4.462179    0.793486
     92          6           0      -16.918382    5.933809    1.212517
     93          1           0      -18.037210    6.785987    0.819455
     94          7           0      -15.927008   -1.025958    2.294926
     95          6           0      -15.607214   -0.123836    3.246337
     96          6           0      -15.725429   -0.833414    4.529567
     97          6           0      -15.980956   -2.272253    4.248161
     98          6           0      -15.811430   -2.293546    2.809103
     99          6           0      -15.675517   -0.131120    5.855354
    100          6           0      -16.309316   -3.438795    5.129941
    101          8           0      -16.255373   -4.644735    4.699094
    102          6           0      -16.605054   -3.133899    6.537445
    103          7           0      -15.415341   -2.675645   -0.199860
    104          6           0      -15.375624   -3.657904    0.717482
    105          6           0      -15.238992   -5.011375    0.061869
    106          6           0      -15.439223   -4.752633   -1.503554
    107          6           0      -15.574166   -3.214127   -1.490535
    108          6           0      -13.910489   -5.731248    0.292606
    109          6           0      -16.537967   -5.584964   -2.219558
    110          6           0      -17.904274   -5.175143   -1.718923
    111          7           0      -15.945787   -0.275138   -1.778966
    112          6           0      -15.754244   -1.176021   -2.849387
    113          6           0      -15.720711   -0.376118   -4.090946
    114          6           0      -15.873243    0.947432   -3.651128
    115          6           0      -15.973104    0.972605   -2.233774
    116          6           0      -15.518007   -0.886518   -5.404151
    117          6           0      -15.961820    2.329976   -4.062760
    118          8           0      -16.025505    2.911751   -5.144990
    119          6           0      -15.834954    3.250343   -2.773101
    120          6           0      -16.928313    4.281813   -2.829191
    121          8           0      -18.122038    3.942544   -2.748311
    122          8           0      -16.381285    5.508545   -2.750127
    123          6           0      -17.426982    6.565288   -2.790590
    124          1           0      -14.701445    1.676824    3.890843
    125          1           0      -15.541337   -4.361745    2.533683
    126          1           0      -15.580725   -3.034008   -3.603929
    127          1           0      -14.948534    4.596805   -0.082419
    128          1           0      -15.106299    3.911248    2.645623
    129          1           0      -12.946219    3.608618    0.600481
    130          1           0      -12.912626    2.401964    1.903226
    131          1           0      -12.802366    4.081440    2.335474
    132          1           0      -17.306320    4.007554    1.722962
    133          1           0      -17.625506    4.328358   -0.020714
    134          1           0      -15.963872    6.417100    0.971101
    135          1           0      -16.976680    5.985162    2.302460
    136          1           0      -15.312124    0.898723    5.751599
    137          1           0      -14.906391   -0.631576    6.453551
    138          1           0      -16.625607   -0.176297    6.391976
    139          1           0      -15.753399   -2.625835    6.983553
    140          1           0      -16.902913   -4.083688    6.985852
    141          1           0      -17.445192   -2.431450    6.574189
    142          1           0      -16.010569   -5.688252    0.407695
    143          1           0      -14.527844   -4.983333   -2.074522
    144          1           0      -14.030087   -6.733528    0.745593
    145          1           0      -13.286317   -5.104441    0.915556
    146          1           0      -13.294701   -5.860198   -0.595870
    147          1           0      -16.425321   -6.645458   -1.981212
    148          1           0      -16.513629   -5.493442   -3.300313
    149          1           0      -18.013664   -5.755051   -0.797598
    150          1           0      -18.672339   -5.437210   -2.443788
    151          1           0      -17.920871   -4.113996   -1.444437
    152          1           0      -16.229670   -0.384974   -6.046410
    153          1           0      -15.645742   -1.966568   -5.435031
    154          1           0      -14.478493   -0.591219   -5.569878
    155          1           0      -14.843133    3.703737   -2.790482
    156          1           0      -17.169580    7.238075   -3.614471
    157          1           0      -17.451483    7.000410   -1.773825
    158          1           0      -18.431176    6.266343   -3.067495
 ---------------------------------------------------------------------

 SCF Done:  E(RCAM-B3LYP) =  -4069.81178125     A.U. after   19 cycles

 Excitation energies and oscillator strengths:

 Excited State   1:      Singlet-A      1.6755 eV  739.99 nm  f=0.3389  <S**2>=0.000
     310 -> 316        0.17217
     312 -> 313        0.68037
     310 <- 316        0.10378
 This state for optimization and/or second-order correction.
 Total Energy, E(TD-HF/TD-DFT) =  -4069.75020791
 Copying the excited state density for this state as the 1-particle RhoCI density.

 Excited State   2:      Singlet-A      1.6799 eV  738.03 nm  f=0.4376  <S**2>=0.000
     309 -> 315        0.17410
     311 -> 314        0.68001
     309 <- 315        0.10425

 Excited State   3:      Singlet-A      2.1861 eV  567.14 nm  f=0.1002  <S**2>=0.000
     310 -> 313        0.64235
     312 -> 316       -0.27307

 Excited State   4:      Singlet-A      2.1925 eV  565.48 nm  f=0.1005  <S**2>=0.000
     309 -> 314        0.64058
     311 -> 315       -0.27823

 Excited State   5:      Singlet-A      3.0657 eV  404.43 nm  f=0.0000  <S**2>=0.000
     311 -> 313        0.70711

 The electronic state is 1-A.
 Alpha  occ. eigenvalues --  -46.87796 -46.87661 -19.26355 -19.26280 -19.19165
 Alpha  occ. eigenvalues --  -19.19016 -19.18815 -19.18712 -19.18168 -19.18054
 Alpha  occ. eigenvalues --  -14.42498 -14.42449 -14.41449 -14.41359 -14.39402
 Alpha  occ. eigenvalues --  -14.39352 -14.38601 -14.38586 -10.39095 -10.39076
 Alpha  occ. eigenvalues --  -10.35449 -10.35389 -10.34388 -10.34232 -10.31763
 Alpha  occ. eigenvalues --  -10.31673 -10.31403 -10.31310 -10.31023 -10.30907
 Alpha  occ. eigenvalues --  -10.30569 -10.30507 -10.30398 -10.30362 -10.30207
 Alpha  occ. eigenvalues --  -10.30140 -10.29921 -10.29895 -10.29630 -10.29437
 Alpha  occ. eigenvalues --  -10.29401 -10.29254 -10.28745 -10.28720 -10.28657
 Alpha  occ. eigenvalues --  -10.28531 -10.28405 -10.28364 -10.28141 -10.28113
 Alpha  occ. eigenvalues --  -10.28002 -10.27792 -10.27726 -10.27669 -10.27584
 Alpha  occ. eigenvalues --  -10.27516 -10.27504 -10.27485 -10.27479 -10.27467
 Alpha  occ. eigenvalues --  -10.27463 -10.27452 -10.27402 -10.27373 -10.27156
 Alpha  occ. eigenvalues --  -10.27053 -10.26699 -10.26695 -10.26411 -10.26410
 Alpha  occ. eigenvalues --  -10.26230 -10.26189 -10.26137 -10.26025 -10.26019
 Alpha  occ. eigenvalues --  -10.25935 -10.25854 -10.25844 -10.25439 -10.25392
 Alpha  occ. eigenvalues --  -10.24874 -10.24832 -10.24788 -10.24731 -10.24693
 Alpha  occ. eigenvalues --  -10.24690  -3.16539  -3.16411  -1.91420  -1.91293
 Alpha  occ. eigenvalues --   -1.91007  -1.90881  -1.90849  -1.90718  -1.16649
 Alpha  occ. eigenvalues --   -1.16628  -1.08662  -1.08626  -1.07216  -1.06964
 Alpha  occ. eigenvalues --   -1.06950  -1.06639  -1.04580  -1.04496  -1.03760
 Alpha  occ. eigenvalues --   -1.03663  -1.03233  -1.03039  -1.02411  -1.02112
 Alpha  occ. eigenvalues --   -0.91988  -0.91971  -0.89521  -0.89494  -0.89184
 Alpha  occ. eigenvalues --   -0.89152  -0.88288  -0.88219  -0.87870  -0.87796
 Alpha  occ. eigenvalues --   -0.87684  -0.87671  -0.87273  -0.87119  -0.85001
 Alpha  occ. eigenvalues --   -0.84979  -0.83939  -0.83876  -0.82967  -0.82930
 Alpha  occ. eigenvalues --   -0.82653  -0.82646  -0.81599  -0.81583  -0.80595
 Alpha  occ. eigenvalues --   -0.80444  -0.78796  -0.78636  -0.77218  -0.77145
 Alpha  occ. eigenvalues --   -0.76932  -0.76900  -0.75921  -0.75840  -0.74899
 Alpha  occ. eigenvalues --   -0.74802  -0.72774  -0.72700  -0.71671  -0.71581
 Alpha  occ. eigenvalues --   -0.69910  -0.69757  -0.68871  -0.68828  -0.67640
 Alpha  occ. eigenvalues --   -0.67602  -0.67216  -0.67201  -0.65284  -0.65273
 Alpha  occ. eigenvalues --   -0.64853  -0.64771  -0.64655  -0.64619  -0.64270
 Alpha  occ. eigenvalues --   -0.64204  -0.62295  -0.62281  -0.60442  -0.60339
 Alpha  occ. eigenvalues --   -0.59802  -0.59798  -0.58993  -0.58987  -0.58503
 Alpha  occ. eigenvalues --   -0.58426  -0.57582  -0.57557  -0.57309  -0.57237
 Alpha  occ. eigenvalues --   -0.56309  -0.56205  -0.55975  -0.55889  -0.55519
 Alpha  occ. eigenvalues --   -0.55453  -0.55340  -0.55248  -0.54523  -0.54489
 Alpha  occ. eigenvalues --   -0.53914  -0.53891  -0.53298  -0.53228  -0.53220
 Alpha  occ. eigenvalues --   -0.53143  -0.52913  -0.52904  -0.52754  -0.52667
 Alpha  occ. eigenvalues --   -0.52441  -0.52401  -0.51915  -0.51888  -0.51659
 Alpha  occ. eigenvalues --   -0.51614  -0.51203  -0.51195  -0.50571  -0.50473
 Alpha  occ. eigenvalues --   -0.50033  -0.49979  -0.49917  -0.49866  -0.49513
 Alpha  occ. eigenvalues --   -0.49488  -0.49213  -0.49203  -0.49106  -0.49093
 Alpha  occ. eigenvalues --   -0.48591  -0.48560  -0.48462  -0.48444  -0.48376
 Alpha  occ. eigenvalues --   -0.48338  -0.47693  -0.47595  -0.47296  -0.47118
 Alpha  occ. eigenvalues --   -0.46797  -0.46710  -0.46555  -0.46552  -0.46359
 Alpha  occ. eigenvalues --   -0.46271  -0.46162  -0.46086  -0.45825  -0.45820
 Alpha  occ. eigenvalues --   -0.45207  -0.45203  -0.44576  -0.44516  -0.44506
 Alpha  occ. eigenvalues --   -0.44477  -0.44145  -0.44128  -0.44086  -0.44078
 Alpha  occ. eigenvalues --   -0.44018  -0.43939  -0.43556  -0.43493  -0.43387
 Alpha  occ. eigenvalues --   -0.43384  -0.43026  -0.42933  -0.42903  -0.42697
 Alpha  occ. eigenvalues --   -0.42655  -0.42553  -0.42010  -0.41965  -0.41703
 Alpha  occ. eigenvalues --   -0.41671  -0.41531  -0.41460  -0.41140  -0.40990
 Alpha  occ. eigenvalues --   -0.40867  -0.40822  -0.40722  -0.40698  -0.40572
 Alpha  occ. eigenvalues --   -0.40493  -0.40229  -0.40228  -0.39444  -0.39425
 Alpha  occ. eigenvalues --   -0.38470  -0.38350  -0.37744  -0.37655  -0.37321
 Alpha  occ. eigenvalues --   -0.37266  -0.37261  -0.37200  -0.36775  -0.36711
 Alpha  occ. eigenvalues --   -0.36218  -0.36191  -0.34285  -0.34254  -0.33866
 Alpha  occ. eigenvalues --   -0.33767  -0.33186  -0.33176  -0.31345  -0.31271
 Alpha  occ. eigenvalues --   -0.31035  -0.30973  -0.30027  -0.29959  -0.29448
 Alpha  occ. eigenvalues --   -0.29327  -0.29321  -0.29213  -0.24080  -0.24037
 Alpha  occ. eigenvalues --   -0.21127  -0.21117
 Alpha virt. eigenvalues --   -0.08792  -0.08773  -0.01749  -0.01684  -0.00057
 Alpha virt. eigenvalues --   -0.00028   0.02201   0.02205   0.03122   0.03224
 Alpha virt. eigenvalues --    0.04720   0.04729   0.05102   0.05161   0.06180

 Mulliken charges:
               1
     1  Mg   0.838747
     2  C   -0.002957
     3  C   -0.094089
     4  C   -0.045912
     5  C   -0.063980
     6  N   -0.256780
     7  C   -0.052463
     8  C   -0.014024
     9  C   -0.087007
    10  C    0.046335
    11  C    0.104810
    12  C    0.053467
    13  C   -0.071849
    14  H    0.036195
    15  N   -0.433157
    16  C    0.168422
    17  C   -0.177126
    18  C   -0.004005
    19  C    0.148736
    20  C    0.110165
    21  C    0.012269
    22  O   -0.249664
    23  C    0.062479
    24  N   -0.341165
    25  C    0.041270
    26  C   -0.028166
    27  C   -0.023980
    28  C    0.074839
    29  C    0.076180
    30  C    0.035155
    31  C   -0.004500
    32  N   -0.310464
    33  C    0.080401
    34  C   -0.169738
    35  C    0.008353
    36  C    0.082996
    37  C    0.127317
    38  C    0.046118
    39  O   -0.188435
    40  C   -0.005327
    41  C    0.212869
    42  O   -0.257098
    43  O   -0.304791
    44  C    0.157677
    45  H   -0.017570
    46  H   -0.016866
    47  H   -0.041525
    48  H    0.000951
    49  H   -0.003992
    50  H    0.025472
    51  H    0.016433
    52  H    0.016689
    53  H    0.011220
    54  H    0.044119
    55  H    0.017876
    56  H    0.017987
    57  H    0.005911
    58  H    0.026832
    59  H    0.039590
    60  H    0.037367
    61  H    0.035625
    62  H    0.031527
    63  H    0.016517
    64  H    0.009449
    65  H    0.023178
    66  H    0.012565
    67  H    0.004741
    68  H    0.006317
    69  H    0.004711
    70  H    0.008754
    71  H    0.018093
    72  H    0.029019
    73  H    0.047558
    74  H    0.009078
    75  H    0.046007
    76  H    0.035160
    77  H    0.042955
    78  H    0.046434
    79  H    0.053697
    80  Mg   0.837801
    81  C   -0.016841
    82  C   -0.087791
    83  C   -0.045479
    84  C   -0.064870
    85  N   -0.254578
    86  C   -0.049843
    87  C   -0.015078
    88  C   -0.090495
    89  C    0.045774
    90  C    0.114361
    91  C    0.062501
    92  C   -0.077894
    93  H    0.034876
    94  N   -0.423494
    95  C    0.162946
    96  C   -0.174592
    97  C   -0.007762
    98  C    0.152132
    99  C    0.099349
   100  C    0.015591
   101  O   -0.253133
   102  C    0.061193
   103  N   -0.350051
   104  C    0.037532
   105  C   -0.019850
   106  C   -0.034809
   107  C    0.088915
   108  C    0.073625
   109  C    0.034721
   110  C   -0.007678
   111  N   -0.324090
   112  C    0.078424
   113  C   -0.163153
   114  C    0.002224
   115  C    0.096203
   116  C    0.131490
   117  C    0.042370
   118  O   -0.187942
   119  C    0.000919
   120  C    0.211262
   121  O   -0.251026
   122  O   -0.305640
   123  C    0.152040
   124  H   -0.019615
   125  H   -0.015513
   126  H   -0.040457
   127  H   -0.000671
   128  H   -0.004313
   129  H    0.022447
   130  H    0.014472
   131  H    0.016313
   132  H    0.013930
   133  H    0.037668
   134  H    0.020782
   135  H    0.019613
   136  H    0.008776
   137  H    0.026217
   138  H    0.039817
   139  H    0.038293
   140  H    0.036443
   141  H    0.033883
   142  H    0.014417
   143  H    0.012450
   144  H    0.025199
   145  H    0.011687
   146  H    0.005726
   147  H    0.006301
   148  H    0.003637
   149  H    0.010953
   150  H    0.017918
   151  H    0.030084
   152  H    0.045971
   153  H    0.008518
   154  H    0.046929
   155  H    0.035011
   156  H    0.043877
   157  H    0.049504
   158  H    0.053573
 Sum of Mulliken charges =  -0.00000

 Dipole moment (field-independent basis, Debye):
    X=              3.8159    Y=              4.1803    Z=              1.1488  Tot=              5.7755
 Quadrupole moment (field-independent basis, Debye-Ang):
   XX=           -518.4196   YY=           -525.4770   ZZ=           -473.2637
   XY=             34.5523   XZ=           -110.6168   YZ=             24.2125

 Normal termination of Gaussian 16 at Sun Sep 12 15:14:45 2021.
