 Gaussian 16, Revision A.03,
 Gaussian 16:  ES64L-G16RevA.03 25-Dec-2016

 -----------------------------------
 #p cam-b3lyp/Def2SVP td=(nstates=5)
 -----------------------------------

 --------------------------------
 TDDFT excited states in gaussian
 --------------------------------
 Symbolic Z-matrix:
 Charge =  0 Multiplicity = 1

                         Standard orientation:
 ---------------------------------------------------------------------
 Center     Atomic      Atomic             Coordinates (Angstroms)
 Number     Number       Type             X           Y           Z
 ---------------------------------------------------------------------
      1         12           0        5.201611   -0.587547   -0.523878
      2          6           0        5.408958    2.818223    0.557767
      3          6           0        6.375348   -1.480396    2.553171
      4          6           0        5.458597   -3.558081   -1.603926
      5          6           0        5.143688    0.609806   -3.796286
      6          7           0        5.780545    0.608552    1.246667
      7          6           0        5.756465    1.901925    1.552897
      8          6           0        6.062421    2.187289    3.053674
      9          6           0        6.884298    0.865394    3.398797
     10          6           0        6.287315   -0.069498    2.361728
     11          6           0        8.381931    0.994089    3.139886
     12          6           0        4.759929    2.293641    3.916190
     13          6           0        4.948997    2.888996    5.314460
     14          1           0        3.895066    3.726055    5.867553
     15          7           0        5.353444   -2.297572    0.453675
     16          6           0        5.839330   -2.474198    1.705875
     17          6           0        5.742031   -3.924036    1.980073
     18          6           0        5.337113   -4.599970    0.716250
     19          6           0        5.393038   -3.501181   -0.213757
     20          6           0        5.972137   -4.522690    3.333740
     21          6           0        4.969818   -6.014251    0.395258
     22          8           0        4.875779   -6.436232   -0.807931
     23          6           0        4.807395   -6.927083    1.541294
     24          7           0        5.510364   -1.384318   -2.428468
     25          6           0        5.522661   -2.706575   -2.629636
     26          6           0        5.474598   -3.036855   -4.092012
     27          6           0        5.180428   -1.660687   -4.846583
     28          6           0        5.192588   -0.712804   -3.621986
     29          6           0        6.741353   -3.678044   -4.675293
     30          6           0        3.954937   -1.626144   -5.793894
     31          6           0        2.680714   -1.754162   -4.989491
     32          7           0        5.085409    1.358487   -1.478076
     33          6           0        5.098266    1.624529   -2.854931
     34          6           0        5.109674    3.090616   -3.011538
     35          6           0        5.119467    3.578655   -1.706330
     36          6           0        5.141006    2.486556   -0.792466
     37          6           0        5.168211    3.796473   -4.245545
     38          6           0        5.141627    4.768682   -0.871344
     39          8           0        5.041055    5.978144   -1.082480
     40          6           0        5.452952    4.324533    0.625865
     41          6           0        4.461740    5.017195    1.520865
     42          8           0        3.247191    4.735071    1.469444
     43          8           0        5.121210    5.722479    2.452646
     44          6           0        4.195891    6.410940    3.391775
     45          1           0        6.956513   -1.863694    3.394165
     46          1           0        5.436868   -4.567406   -2.020133
     47          1           0        5.040753    1.056381   -4.786956
     48          1           0        6.680642    3.067275    3.232143
     49          1           0        6.669198    0.503252    4.403937
     50          1           0        8.620364    1.931808    2.638136
     51          1           0        8.641579    0.146235    2.505677
     52          1           0        8.947321    0.862178    4.062767
     53          1           0        4.423978    1.292129    4.184842
     54          1           0        3.990836    2.856217    3.385784
     55          1           0        5.917412    3.380753    5.410671
     56          1           0        4.988849    2.069467    6.032083
     57          1           0        6.415763   -3.802444    4.020024
     58          1           0        6.735407   -5.291666    3.216246
     59          1           0        5.065245   -4.964909    3.746440
     60          1           0        5.738330   -6.963002    2.107526
     61          1           0        4.457862   -7.871710    1.126134
     62          1           0        4.054358   -6.517353    2.215093
     63          1           0        4.672145   -3.741114   -4.307689
     64          1           0        6.014108   -1.354688   -5.479052
     65          1           0        6.564311   -4.642592   -5.151749
     66          1           0        7.474058   -3.766473   -3.873660
     67          1           0        7.278663   -3.058208   -5.392593
     68          1           0        3.984925   -2.469011   -6.483548
     69          1           0        3.895446   -0.713841   -6.387540
     70          1           0        2.583859   -2.831104   -4.856649
     71          1           0        1.835513   -1.352257   -5.549238
     72          1           0        2.789187   -1.312103   -3.998883
     73          1           0        4.452095    4.614046   -4.163561
     74          1           0        4.930868    3.144791   -5.086129
     75          1           0        6.210198    4.116035   -4.246151
     76          1           0        6.477562    4.629295    0.836619
     77          1           0        4.446930    7.471478    3.370001
     78          1           0        4.279354    5.890715    4.346135
     79          1           0        3.146064    6.441896    3.098104
     80         12           0       -5.344253   -0.864733    0.410208
     81          6           0       -5.361281    2.366448   -1.151262
     82          6           0       -4.254733    0.678690    3.250173
     83          6           0       -4.887450   -3.737530    1.677422
     84          6           0       -5.319949   -2.255191   -2.785371
     85          7           0       -4.903091    1.254075    0.866587
     86          6           0       -5.005307    2.401610    0.213102
     87          6           0       -4.787549    3.663241    1.090845
     88          6           0       -3.904260    2.996890    2.254748
     89          6           0       -4.404955    1.557933    2.148136
     90          6           0       -2.413577    3.007020    1.959626
     91          6           0       -6.134342    4.241212    1.651295
     92          6           0       -6.029995    5.642422    2.257493
     93          1           0       -7.155292    6.558178    2.091504
     94          7           0       -5.146319   -1.415169    2.306635
     95          6           0       -4.711955   -0.654851    3.333526
     96          6           0       -4.729625   -1.528767    4.516792
     97          6           0       -5.052751   -2.912148    4.073429
     98          6           0       -5.020196   -2.742206    2.634627
     99          6           0       -4.534450   -1.012387    5.912745
    100          6           0       -5.330797   -4.181256    4.820595
    101          8           0       -5.353177   -5.318891    4.230584
    102          6           0       -5.483584   -4.063889    6.278118
    103          7           0       -4.920627   -2.721987   -0.422557
    104          6           0       -4.823618   -3.819380    0.348305
    105          6           0       -4.789212   -5.074278   -0.491008
    106          6           0       -5.128272   -4.603741   -1.981392
    107          6           0       -5.216059   -3.078993   -1.751577
    108          6           0       -3.466645   -5.840555   -0.487992
    109          6           0       -6.313572   -5.313737   -2.691076
    110          6           0       -7.614006   -4.952531   -2.010053
    111          7           0       -5.526546   -0.122189   -1.610547
    112          6           0       -5.463240   -0.873708   -2.804402
    113          6           0       -5.523246    0.085485   -3.926350
    114          6           0       -5.594672    1.340069   -3.302322
    115          6           0       -5.559833    1.175722   -1.891193
    116          6           0       -5.460209   -0.246644   -5.309039
    117          6           0       -5.680893    2.766730   -3.516562
    118          8           0       -5.829063    3.489962   -4.500791
    119          6           0       -5.406115    3.502750   -2.134840
    120          6           0       -6.469080    4.550325   -1.947155
    121          8           0       -7.659340    4.223060   -1.796234
    122          8           0       -5.881169    5.746006   -1.759838
    123          6           0       -6.894478    6.815720   -1.558035
    124          1           0       -3.696927    1.027331    4.119759
    125          1           0       -4.838206   -4.758627    2.062668
    126          1           0       -5.416296   -2.615725   -3.811725
    127          1           0       -4.231033    4.459631    0.611436
    128          1           0       -4.151311    3.415535    3.226895
    129          1           0       -2.203261    3.355461    0.959371
    130          1           0       -2.082657    1.983910    2.081264
    131          1           0       -1.882816    3.587803    2.719432
    132          1           0       -6.424646    3.671638    2.543508
    133          1           0       -6.897034    4.229657    0.897097
    134          1           0       -5.088641    6.137958    1.990556
    135          1           0       -5.983853    5.547438    3.345093
    136          1           0       -4.152287    0.015893    5.911504
    137          1           0       -3.727470   -1.601534    6.361696
    138          1           0       -5.430696   -1.113723    6.528485
    139          1           0       -4.579125   -3.634719    6.702640
    140          1           0       -5.765705   -5.060365    6.623554
    141          1           0       -6.295490   -3.358982    6.489144
    142          1           0       -5.544382   -5.778708   -0.164532
    143          1           0       -4.281890   -4.770471   -2.663793
    144          1           0       -3.572496   -6.892611   -0.162340
    145          1           0       -2.768413   -5.313794    0.148817
    146          1           0       -2.941331   -5.858822   -1.441364
    147          1           0       -6.210229   -6.398386   -2.607430
    148          1           0       -6.388429   -5.077868   -3.747370
    149          1           0       -7.653175   -5.649375   -1.167462
    150          1           0       -8.454291   -5.101811   -2.685090
    151          1           0       -7.573442   -3.937906   -1.597088
    152          1           0       -6.214115    0.348550   -5.806896
    153          1           0       -5.622013   -1.310426   -5.470178
    154          1           0       -4.432686    0.051051   -5.534490
    155          1           0       -4.407437    3.937885   -2.188378
    156          1           0       -6.696133    7.589019   -2.306608
    157          1           0       -6.810319    7.110259   -0.495062
    158          1           0       -7.928654    6.573474   -1.773120
 ---------------------------------------------------------------------

 SCF Done:  E(RCAM-B3LYP) =  -4069.81202031     A.U. after   19 cycles

 Excitation energies and oscillator strengths:

 Excited State   1:      Singlet-A      1.6616 eV  746.15 nm  f=0.0929  <S**2>=0.000
     309 -> 315       -0.10907
     310 -> 316        0.13050
     311 -> 313       -0.43801
     312 -> 314        0.52906
 This state for optimization and/or second-order correction.
 Total Energy, E(TD-HF/TD-DFT) =  -4069.75095598
 Copying the excited state density for this state as the 1-particle RhoCI density.

 Excited State   2:      Singlet-A      1.6903 eV  733.53 nm  f=0.6211  <S**2>=0.000
     309 -> 315        0.13758
     310 -> 316        0.11228
     311 -> 313        0.52755
     312 -> 314        0.43680

 Excited State   3:      Singlet-A      2.1825 eV  568.09 nm  f=0.0550  <S**2>=0.000
     309 -> 313       -0.21129
     310 -> 314        0.60821
     312 -> 316       -0.25441

 Excited State   4:      Singlet-A      2.1947 eV  564.92 nm  f=0.1332  <S**2>=0.000
     309 -> 313        0.60466
     310 -> 314        0.20878
     311 -> 315       -0.26480

 Excited State   5:      Singlet-A      2.4775 eV  500.44 nm  f=0.0000  <S**2>=0.000
     312 -> 313        0.70709

 The electronic state is 1-A.
 Alpha  occ. eigenvalues --  -46.87891 -46.87473 -19.26496 -19.26107 -19.19233
 Alpha  occ. eigenvalues --  -19.18938 -19.18881 -19.18604 -19.18276 -19.17858
 Alpha  occ. eigenvalues --  -14.42552 -14.42286 -14.41539 -14.41176 -14.39494
 Alpha  occ. eigenvalues --  -14.39174 -14.38681 -14.38414 -10.39283 -10.38863
 Alpha  occ. eigenvalues --  -10.35512 -10.35286 -10.34500 -10.34028 -10.31923
 Alpha  occ. eigenvalues --  -10.31520 -10.31513 -10.31079 -10.31022 -10.30809
 Alpha  occ. eigenvalues --  -10.30665 -10.30594 -10.30285 -10.30226 -10.30173
 Alpha  occ. eigenvalues --  -10.30006 -10.29976 -10.29719 -10.29716 -10.29337
 Alpha  occ. eigenvalues --  -10.29268 -10.29238 -10.28904 -10.28782 -10.28464
 Alpha  occ. eigenvalues --  -10.28418 -10.28408 -10.28250 -10.28215 -10.27878
 Alpha  occ. eigenvalues --  -10.27828 -10.27824 -10.27797 -10.27668 -10.27563
 Alpha  occ. eigenvalues --  -10.27556 -10.27517 -10.27510 -10.27463 -10.27369
 Alpha  occ. eigenvalues --  -10.27361 -10.27310 -10.27294 -10.27282 -10.27224
 Alpha  occ. eigenvalues --  -10.26919 -10.26814 -10.26449 -10.26443 -10.26352
 Alpha  occ. eigenvalues --  -10.26350 -10.26232 -10.26100 -10.26012 -10.25888
 Alpha  occ. eigenvalues --  -10.25762 -10.25713 -10.25494 -10.25491 -10.25243
 Alpha  occ. eigenvalues --  -10.24922 -10.24877 -10.24740 -10.24695 -10.24613
 Alpha  occ. eigenvalues --  -10.24515  -3.16634  -3.16223  -1.91516  -1.91105
 Alpha  occ. eigenvalues --   -1.91102  -1.90944  -1.90693  -1.90531  -1.16844
 Alpha  occ. eigenvalues --   -1.16405  -1.08740  -1.08460  -1.07281  -1.06861
 Alpha  occ. eigenvalues --   -1.06851  -1.06721  -1.04686  -1.04284  -1.03852
 Alpha  occ. eigenvalues --   -1.03474  -1.03323  -1.02861  -1.02503  -1.01927
 Alpha  occ. eigenvalues --   -0.92081  -0.91782  -0.89598  -0.89329  -0.89328
 Alpha  occ. eigenvalues --   -0.88850  -0.88364  -0.88058  -0.87948  -0.87780
 Alpha  occ. eigenvalues --   -0.87625  -0.87481  -0.87350  -0.86988  -0.85116
 Alpha  occ. eigenvalues --   -0.84752  -0.84016  -0.83719  -0.83034  -0.82816
 Alpha  occ. eigenvalues --   -0.82771  -0.82426  -0.81731  -0.81388  -0.80712
 Alpha  occ. eigenvalues --   -0.80248  -0.78877  -0.78481  -0.77321  -0.77070
 Alpha  occ. eigenvalues --   -0.76944  -0.76664  -0.76051  -0.75576  -0.74985
 Alpha  occ. eigenvalues --   -0.74622  -0.72862  -0.72515  -0.71774  -0.71356
 Alpha  occ. eigenvalues --   -0.69976  -0.69603  -0.68996  -0.68595  -0.67742
 Alpha  occ. eigenvalues --   -0.67424  -0.67359  -0.66998  -0.65422  -0.65027
 Alpha  occ. eigenvalues --   -0.64968  -0.64739  -0.64574  -0.64439  -0.64353
 Alpha  occ. eigenvalues --   -0.64033  -0.62450  -0.62069  -0.60519  -0.60193
 Alpha  occ. eigenvalues --   -0.59926  -0.59540  -0.59087  -0.58801  -0.58607
 Alpha  occ. eigenvalues --   -0.58235  -0.57723  -0.57402  -0.57342  -0.57068
 Alpha  occ. eigenvalues --   -0.56407  -0.56148  -0.56027  -0.55670  -0.55612
 Alpha  occ. eigenvalues --   -0.55444  -0.55277  -0.55069  -0.54649  -0.54300
 Alpha  occ. eigenvalues --   -0.54039  -0.53629  -0.53388  -0.53338  -0.53061
 Alpha  occ. eigenvalues --   -0.53048  -0.52941  -0.52849  -0.52702  -0.52506
 Alpha  occ. eigenvalues --   -0.52487  -0.52257  -0.51987  -0.51747  -0.51727
 Alpha  occ. eigenvalues --   -0.51436  -0.51304  -0.51007  -0.50637  -0.50355
 Alpha  occ. eigenvalues --   -0.50109  -0.50006  -0.49783  -0.49699  -0.49626
 Alpha  occ. eigenvalues --   -0.49321  -0.49285  -0.49220  -0.49001  -0.48824
 Alpha  occ. eigenvalues --   -0.48718  -0.48554  -0.48529  -0.48331  -0.48218
 Alpha  occ. eigenvalues --   -0.48178  -0.47801  -0.47395  -0.47391  -0.46952
 Alpha  occ. eigenvalues --   -0.46896  -0.46695  -0.46515  -0.46454  -0.46299
 Alpha  occ. eigenvalues --   -0.46261  -0.46100  -0.45942  -0.45906  -0.45613
 Alpha  occ. eigenvalues --   -0.45282  -0.45036  -0.44691  -0.44607  -0.44324
 Alpha  occ. eigenvalues --   -0.44255  -0.44240  -0.44206  -0.44123  -0.43922
 Alpha  occ. eigenvalues --   -0.43867  -0.43761  -0.43629  -0.43498  -0.43342
 Alpha  occ. eigenvalues --   -0.43164  -0.43129  -0.42872  -0.42740  -0.42721
 Alpha  occ. eigenvalues --   -0.42691  -0.42398  -0.42111  -0.41810  -0.41779
 Alpha  occ. eigenvalues --   -0.41667  -0.41464  -0.41246  -0.41232  -0.40992
 Alpha  occ. eigenvalues --   -0.40914  -0.40754  -0.40657  -0.40572  -0.40477
 Alpha  occ. eigenvalues --   -0.40405  -0.40291  -0.39987  -0.39509  -0.39279
 Alpha  occ. eigenvalues --   -0.38560  -0.38169  -0.37916  -0.37428  -0.37407
 Alpha  occ. eigenvalues --   -0.37394  -0.37082  -0.36971  -0.36883  -0.36558
 Alpha  occ. eigenvalues --   -0.36318  -0.36019  -0.34383  -0.34060  -0.33964
 Alpha  occ. eigenvalues --   -0.33647  -0.33286  -0.32990  -0.31413  -0.31160
 Alpha  occ. eigenvalues --   -0.31134  -0.30778  -0.30138  -0.29757  -0.29533
 Alpha  occ. eigenvalues --   -0.29410  -0.29171  -0.29036  -0.24178  -0.23844
 Alpha  occ. eigenvalues --   -0.21219  -0.20930
 Alpha virt. eigenvalues --   -0.08864  -0.08616  -0.01840  -0.01504  -0.00145
 Alpha virt. eigenvalues --    0.00137   0.02106   0.02388   0.03009   0.03399
 Alpha virt. eigenvalues --    0.04590   0.04908   0.04956   0.05390   0.05984

 Mulliken charges:
               1
     1  Mg   0.838580
     2  C   -0.003593
     3  C   -0.094432
     4  C   -0.045698
     5  C   -0.063524
     6  N   -0.256731
     7  C   -0.052779
     8  C   -0.013931
     9  C   -0.086966
    10  C    0.046094
    11  C    0.104758
    12  C    0.053652
    13  C   -0.071171
    14  H    0.033827
    15  N   -0.433172
    16  C    0.168423
    17  C   -0.177036
    18  C   -0.003711
    19  C    0.148699
    20  C    0.110103
    21  C    0.012471
    22  O   -0.249578
    23  C    0.062336
    24  N   -0.341091
    25  C    0.041312
    26  C   -0.028211
    27  C   -0.024011
    28  C    0.074700
    29  C    0.076103
    30  C    0.035030
    31  C   -0.004507
    32  N   -0.310462
    33  C    0.080265
    34  C   -0.169240
    35  C    0.008311
    36  C    0.082812
    37  C    0.127251
    38  C    0.045941
    39  O   -0.188432
    40  C   -0.005355
    41  C    0.213164
    42  O   -0.258654
    43  O   -0.304294
    44  C    0.158078
    45  H   -0.017566
    46  H   -0.016655
    47  H   -0.040901
    48  H    0.000985
    49  H   -0.004344
    50  H    0.025584
    51  H    0.016809
    52  H    0.016732
    53  H    0.010868
    54  H    0.042868
    55  H    0.018615
    56  H    0.018026
    57  H    0.005618
    58  H    0.027076
    59  H    0.039888
    60  H    0.037329
    61  H    0.036017
    62  H    0.032058
    63  H    0.016495
    64  H    0.009733
    65  H    0.023325
    66  H    0.012574
    67  H    0.005002
    68  H    0.006425
    69  H    0.005365
    70  H    0.008217
    71  H    0.018623
    72  H    0.028969
    73  H    0.048035
    74  H    0.009735
    75  H    0.046095
    76  H    0.035385
    77  H    0.043452
    78  H    0.046149
    79  H    0.052077
    80  Mg   0.837820
    81  C   -0.016694
    82  C   -0.087678
    83  C   -0.046145
    84  C   -0.065259
    85  N   -0.254843
    86  C   -0.048624
    87  C   -0.015362
    88  C   -0.090822
    89  C    0.046278
    90  C    0.115004
    91  C    0.062462
    92  C   -0.077658
    93  H    0.033788
    94  N   -0.423413
    95  C    0.162926
    96  C   -0.175117
    97  C   -0.008505
    98  C    0.152208
    99  C    0.099721
   100  C    0.014992
   101  O   -0.253804
   102  C    0.061396
   103  N   -0.350113
   104  C    0.037634
   105  C   -0.019799
   106  C   -0.034755
   107  C    0.089118
   108  C    0.073674
   109  C    0.034831
   110  C   -0.007575
   111  N   -0.324148
   112  C    0.078764
   113  C   -0.163438
   114  C    0.002548
   115  C    0.096185
   116  C    0.131471
   117  C    0.042376
   118  O   -0.187874
   119  C    0.000924
   120  C    0.211040
   121  O   -0.251668
   122  O   -0.304773
   123  C    0.152306
   124  H   -0.019691
   125  H   -0.016304
   126  H   -0.041004
   127  H    0.001494
   128  H   -0.005512
   129  H    0.026853
   130  H    0.013610
   131  H    0.018676
   132  H    0.013144
   133  H    0.037128
   134  H    0.022232
   135  H    0.018942
   136  H    0.008742
   137  H    0.024777
   138  H    0.039243
   139  H    0.037448
   140  H    0.035716
   141  H    0.033938
   142  H    0.013909
   143  H    0.012419
   144  H    0.024593
   145  H    0.011443
   146  H    0.006458
   147  H    0.006007
   148  H    0.003363
   149  H    0.010704
   150  H    0.017551
   151  H    0.030292
   152  H    0.045768
   153  H    0.008076
   154  H    0.046646
   155  H    0.037414
   156  H    0.043999
   157  H    0.049626
   158  H    0.052898
 Sum of Mulliken charges =  -0.00000

 Dipole moment (field-independent basis, Debye):
    X=              4.8713    Y=             -1.9670    Z=              6.5653  Tot=              8.4084
 Quadrupole moment (field-independent basis, Debye-Ang):
   XX=           -518.2423   YY=           -537.0600   ZZ=           -462.9449
   XY=             -8.1982   XZ=             -0.5374   YZ=             35.7593

 Normal termination of Gaussian 16 at Sat Sep 11 00:02:14 2021.
