 Gaussian 16, Revision A.03,
 Gaussian 16:  ES64L-G16RevA.03 25-Dec-2016

 -----------------------------------
 #p cam-b3lyp/Def2SVP td=(nstates=5)
 -----------------------------------

 --------------------------------
 TDDFT excited states in gaussian
 --------------------------------
 Symbolic Z-matrix:
 Charge =  0 Multiplicity = 1

                         Standard orientation:
 ---------------------------------------------------------------------
 Center     Atomic      Atomic             Coordinates (Angstroms)
 Number     Number       Type             X           Y           Z
 ---------------------------------------------------------------------
      1         12           0       16.141281    0.511860    0.444692
      2          6           0       16.354988   -2.650462   -1.218516
      3          6           0       17.055410    1.958425   -2.507406
      4          6           0       16.401645    3.263787    1.998955
      5          6           0       16.362097   -1.224617    3.458253
      6          7           0       16.615715   -0.343275   -1.541335
      7          6           0       16.602281   -1.565901   -2.063038
      8          6           0       16.801261   -1.580497   -3.608214
      9          6           0       17.559963   -0.188477   -3.777478
     10          6           0       17.018907    0.533169   -2.555836
     11          6           0       19.075725   -0.301300   -3.650057
     12          6           0       15.440518   -1.589202   -4.382833
     13          6           0       15.538813   -1.930966   -5.872426
     14          1           0       14.468271   -2.702127   -6.486103
     15          7           0       16.174164    2.367505   -0.232323
     16          6           0       16.559244    2.772631   -1.466370
     17          6           0       16.403737    4.243115   -1.479583
     18          6           0       16.078021    4.678702   -0.093124
     19          6           0       16.232703    3.441059    0.627773
     20          6           0       16.515186    5.071169   -2.722827
     21          6           0       15.699298    6.002774    0.491284
     22          8           0       15.685501    6.210572    1.752713
     23          6           0       15.426977    7.089832   -0.466415
     24          7           0       16.572232    0.985296    2.431593
     25          6           0       16.565227    2.253734    2.855857
     26          6           0       16.619241    2.329036    4.352971
     27          6           0       16.418920    0.834487    4.878279
     28          6           0       16.363190    0.109278    3.511079
     29          6           0       17.909314    2.910411    4.947718
     30          6           0       15.269855    0.592440    5.888963
     31          6           0       13.935574    0.805763    5.209783
     32          7           0       16.148301   -1.570856    1.055666
     33          6           0       16.272121   -2.065921    2.361902
     34          6           0       16.333546   -3.535776    2.262787
     35          6           0       16.257377   -3.794569    0.895648
     36          6           0       16.181305   -2.563262    0.184039
     37          6           0       16.503567   -4.437951    3.349805
     38          6           0       16.247375   -4.823939   -0.131072
     39          8           0       16.194611   -6.054657   -0.124623
     40          6           0       16.432960   -4.120548   -1.547626
     41          6           0       15.395329   -4.689089   -2.476814
     42          8           0       14.181201   -4.466892   -2.292727
     43          8           0       16.000644   -5.200078   -3.559877
     44          6           0       15.025251   -5.754452   -4.536316
     45          1           0       17.561156    2.500990   -3.308521
     46          1           0       16.385133    4.186271    2.583067
     47          1           0       16.346012   -1.836419    4.362074
     48          1           0       17.426952   -2.392913   -3.978235
     49          1           0       17.260138    0.330353   -4.687776
     50          1           0       19.375764   -1.300630   -3.335036
     51          1           0       19.360377    0.436058   -2.899211
     52          1           0       19.566112    0.006995   -4.573774
     53          1           0       15.059230   -0.570363   -4.451009
     54          1           0       14.728643   -2.262879   -3.904586
     55          1           0       16.509675   -2.361504   -6.119354
     56          1           0       15.502933   -1.000655   -6.439378
     57          1           0       16.924294    4.495464   -3.552127
     58          1           0       17.264847    5.837958   -2.528533
     59          1           0       15.568475    5.541634   -2.988785
     60          1           0       16.311197    7.257211   -1.081792
     61          1           0       15.085318    7.936124    0.128487
     62          1           0       14.636103    6.771579   -1.146255
     63          1           0       15.817301    2.954977    4.742222
     64          1           0       17.305712    0.458052    5.388741
     65          1           0       17.743708    3.772582    5.594202
     66          1           0       18.576777    3.161779    4.123947
     67          1           0       18.515278    2.199091    5.508297
     68          1           0       15.329902    1.306613    6.709510
     69          1           0       15.279206   -0.408955    6.319510
     70          1           0       13.800915    1.885076    5.271290
     71          1           0       13.145863    0.282391    5.749828
     72          1           0       13.980348    0.542688    4.152772
     73          1           0       15.804859   -5.256799    3.178742
     74          1           0       16.313531   -3.947974    4.304484
     75          1           0       17.550594   -4.712504    3.222480
     76          1           0       17.446304   -4.345341   -1.878871
     77          1           0       15.304778   -6.792813   -4.714932
     78          1           0       15.022751   -5.077034   -5.390426
     79          1           0       14.001788   -5.875295   -4.179582
     80         12           0      -15.614988    0.602643    0.073065
     81          6           0      -18.122370   -1.961698    0.200539
     82          6           0      -17.761960    2.396704   -1.877946
     83          6           0      -13.266826    2.676084   -0.431351
     84          6           0      -13.294319   -1.812220    1.036725
     85          7           0      -17.651194    0.167568   -0.673126
     86          6           0      -18.527441   -0.812060   -0.509170
     87          6           0      -19.942105   -0.510601   -1.072553
     88          6           0      -19.535067    0.591177   -2.167667
     89          6           0      -18.253787    1.115346   -1.522492
     90          6           0      -19.179570   -0.006158   -3.519015
     91          6           0      -20.903288    0.087298    0.014036
     92          6           0      -22.381348    0.117114   -0.381201
     93          1           0      -23.383779   -0.113642    0.655308
     94          7           0      -15.674634    2.478562   -0.571881
     95          6           0      -16.631664    3.046525   -1.335292
     96          6           0      -16.201242    4.436471   -1.551994
     97          6           0      -14.831595    4.596065   -0.992261
     98          6           0      -14.522920    3.220999   -0.654640
     99          6           0      -17.093031    5.478805   -2.161644
    100          6           0      -13.941294    5.787095   -0.805114
    101          8           0      -12.698618    5.660348   -0.517838
    102          6           0      -14.544916    7.103260   -1.059726
    103          7           0      -13.544566    0.413807    0.065934
    104          6           0      -12.753480    1.483397   -0.129183
    105          6           0      -11.311643    1.159405    0.181484
    106          6           0      -11.333340   -0.288277    0.860703
    107          6           0      -12.840584   -0.602483    0.738687
    108          6           0      -10.360217    1.145821   -1.014751
    109          6           0      -10.660914   -0.421885    2.254491
    110          6           0      -11.450738    0.352544    3.284941
    111          7           0      -15.691310   -1.457990    0.718054
    112          6           0      -14.598727   -2.289493    1.048102
    113          6           0      -15.142158   -3.637082    1.314802
    114          6           0      -16.521476   -3.500538    1.097254
    115          6           0      -16.814279   -2.167320    0.701900
    116          6           0      -14.379092   -4.789275    1.655823
    117          6           0      -17.795027   -4.183735    1.101859
    118          8           0      -18.179157   -5.303003    1.438638
    119          6           0      -18.872043   -3.249828    0.398851
    120          6           0      -20.098997   -3.219667    1.268453
    121          8           0      -20.058944   -2.706195    2.400416
    122          8           0      -21.164086   -3.603022    0.541139
    123          6           0      -22.407152   -3.578750    1.357243
    124          1           0      -18.263441    2.941151   -2.678562
    125          1           0      -12.431856    3.378541   -0.484745
    126          1           0      -12.647875   -2.595681    1.437928
    127          1           0      -20.428113   -1.351003   -1.553480
    128          1           0      -20.280469    1.379698   -2.230617
    129          1           0      -19.145063   -1.084993   -3.486130
    130          1           0      -18.207222    0.395945   -3.771776
    131          1           0      -19.866646    0.361881   -4.286352
    132          1           0      -20.712097    1.164051    0.107729
    133          1           0      -20.789353   -0.427424    0.948222
    134          1           0      -22.585862   -0.507260   -1.259421
    135          1           0      -22.632977    1.129188   -0.707412
    136          1           0      -17.979406    5.028548   -2.625331
    137          1           0      -16.542652    5.920070   -2.999629
    138          1           0      -17.358576    6.270124   -1.457401
    139          1           0      -14.915860    7.138913   -2.081285
    140          1           0      -13.780199    7.833151   -0.787064
    141          1           0      -15.415195    7.221670   -0.404589
    142          1           0      -10.898195    1.871518    0.885090
    143          1           0      -10.806249   -1.033968    0.247548
    144          1           0       -9.505514    1.838999   -0.900543
    145          1           0      -10.927300    1.384724   -1.904634
    146          1           0       -9.942625    0.171203   -1.261645
    147          1           0       -9.660440    0.017274    2.235962
    148          1           0      -10.555517   -1.449333    2.586513
    149          1           0      -11.079775    1.374621    3.163182
    150          1           0      -11.248178   -0.024307    4.285430
    151          1           0      -12.519047    0.358152    3.039262
    152          1           0      -14.909812   -5.288723    2.455438
    153          1           0      -13.367724   -4.522075    1.955036
    154          1           0      -14.397301   -5.324404    0.702637
    155          1           0      -19.078328   -3.671310   -0.585710
    156          1           0      -22.850445   -4.577332    1.293956
    157          1           0      -23.006173   -2.735879    0.964192
    158          1           0      -22.300609   -3.462218    2.429408
 ---------------------------------------------------------------------

 SCF Done:  E(RCAM-B3LYP) =  -4069.81176828     A.U. after   19 cycles

 Excitation energies and oscillator strengths:

 Excited State   1:      Singlet-A      1.6753 eV  740.08 nm  f=0.2133  <S**2>=0.000
     310 -> 316        0.16866
     311 -> 313        0.66676
     312 -> 314       -0.16157
     310 <- 316        0.10168
 This state for optimization and/or second-order correction.
 Total Energy, E(TD-HF/TD-DFT) =  -4069.75020311
 Copying the excited state density for this state as the 1-particle RhoCI density.

 Excited State   2:      Singlet-A      1.6801 eV  737.94 nm  f=0.5641  <S**2>=0.000
     309 -> 315        0.17068
     311 -> 313        0.16152
     312 -> 314        0.66639
     309 <- 315        0.10219

 Excited State   3:      Singlet-A      2.1861 eV  567.15 nm  f=0.1027  <S**2>=0.000
     310 -> 313        0.64246
     311 -> 316       -0.27312

 Excited State   4:      Singlet-A      2.1926 eV  565.48 nm  f=0.0987  <S**2>=0.000
     309 -> 314        0.64069
     312 -> 315       -0.27830

 Excited State   5:      Singlet-A      3.0624 eV  404.86 nm  f=0.0000  <S**2>=0.000
     312 -> 313        0.70710

 The electronic state is 1-A.
 Alpha  occ. eigenvalues --  -46.87776 -46.87660 -19.26350 -19.26264 -19.19161
 Alpha  occ. eigenvalues --  -19.19000 -19.18793 -19.18714 -19.18149 -19.18051
 Alpha  occ. eigenvalues --  -14.42497 -14.42429 -14.41429 -14.41358 -14.39382
 Alpha  occ. eigenvalues --  -14.39352 -14.38599 -14.38566 -10.39091 -10.39060
 Alpha  occ. eigenvalues --  -10.35427 -10.35392 -10.34369 -10.34228 -10.31757
 Alpha  occ. eigenvalues --  -10.31660 -10.31384 -10.31309 -10.31024 -10.30888
 Alpha  occ. eigenvalues --  -10.30549 -10.30487 -10.30397 -10.30360 -10.30186
 Alpha  occ. eigenvalues --  -10.30139 -10.29900 -10.29893 -10.29610 -10.29436
 Alpha  occ. eigenvalues --  -10.29400 -10.29233 -10.28729 -10.28721 -10.28656
 Alpha  occ. eigenvalues --  -10.28518 -10.28405 -10.28344 -10.28142 -10.28096
 Alpha  occ. eigenvalues --  -10.28000 -10.27772 -10.27706 -10.27669 -10.27563
 Alpha  occ. eigenvalues --  -10.27512 -10.27483 -10.27480 -10.27468 -10.27465
 Alpha  occ. eigenvalues --  -10.27460 -10.27428 -10.27383 -10.27371 -10.27138
 Alpha  occ. eigenvalues --  -10.27051 -10.26694 -10.26684 -10.26416 -10.26388
 Alpha  occ. eigenvalues --  -10.26215 -10.26162 -10.26128 -10.26028 -10.25998
 Alpha  occ. eigenvalues --  -10.25932 -10.25847 -10.25823 -10.25415 -10.25392
 Alpha  occ. eigenvalues --  -10.24872 -10.24812 -10.24767 -10.24722 -10.24689
 Alpha  occ. eigenvalues --  -10.24665  -3.16518  -3.16410  -1.91400  -1.91292
 Alpha  occ. eigenvalues --   -1.90987  -1.90881  -1.90829  -1.90717  -1.16644
 Alpha  occ. eigenvalues --   -1.16613  -1.08658  -1.08607  -1.07194  -1.06967
 Alpha  occ. eigenvalues --   -1.06946  -1.06622  -1.04560  -1.04495  -1.03740
 Alpha  occ. eigenvalues --   -1.03662  -1.03213  -1.03038  -1.02390  -1.02111
 Alpha  occ. eigenvalues --   -0.91987  -0.91952  -0.89498  -0.89491  -0.89168
 Alpha  occ. eigenvalues --   -0.89152  -0.88266  -0.88216  -0.87850  -0.87792
 Alpha  occ. eigenvalues --   -0.87683  -0.87652  -0.87253  -0.87121  -0.85000
 Alpha  occ. eigenvalues --   -0.84962  -0.83915  -0.83872  -0.82946  -0.82931
 Alpha  occ. eigenvalues --   -0.82653  -0.82628  -0.81596  -0.81565  -0.80576
 Alpha  occ. eigenvalues --   -0.80442  -0.78776  -0.78635  -0.77198  -0.77144
 Alpha  occ. eigenvalues --   -0.76914  -0.76897  -0.75903  -0.75839  -0.74877
 Alpha  occ. eigenvalues --   -0.74800  -0.72753  -0.72698  -0.71652  -0.71580
 Alpha  occ. eigenvalues --   -0.69886  -0.69752  -0.68852  -0.68827  -0.67620
 Alpha  occ. eigenvalues --   -0.67601  -0.67201  -0.67199  -0.65272  -0.65266
 Alpha  occ. eigenvalues --   -0.64833  -0.64769  -0.64653  -0.64600  -0.64248
 Alpha  occ. eigenvalues --   -0.64200  -0.62278  -0.62277  -0.60421  -0.60339
 Alpha  occ. eigenvalues --   -0.59797  -0.59784  -0.58992  -0.58967  -0.58483
 Alpha  occ. eigenvalues --   -0.58425  -0.57564  -0.57554  -0.57288  -0.57235
 Alpha  occ. eigenvalues --   -0.56289  -0.56204  -0.55958  -0.55887  -0.55499
 Alpha  occ. eigenvalues --   -0.55452  -0.55319  -0.55245  -0.54503  -0.54485
 Alpha  occ. eigenvalues --   -0.53914  -0.53874  -0.53278  -0.53227  -0.53201
 Alpha  occ. eigenvalues --   -0.53142  -0.52902  -0.52894  -0.52735  -0.52669
 Alpha  occ. eigenvalues --   -0.52417  -0.52395  -0.51894  -0.51883  -0.51660
 Alpha  occ. eigenvalues --   -0.51596  -0.51200  -0.51175  -0.50551  -0.50476
 Alpha  occ. eigenvalues --   -0.50010  -0.49980  -0.49897  -0.49864  -0.49494
 Alpha  occ. eigenvalues --   -0.49488  -0.49203  -0.49194  -0.49105  -0.49076
 Alpha  occ. eigenvalues --   -0.48572  -0.48559  -0.48440  -0.48424  -0.48373
 Alpha  occ. eigenvalues --   -0.48339  -0.47674  -0.47594  -0.47276  -0.47118
 Alpha  occ. eigenvalues --   -0.46776  -0.46708  -0.46554  -0.46535  -0.46338
 Alpha  occ. eigenvalues --   -0.46269  -0.46142  -0.46084  -0.45821  -0.45802
 Alpha  occ. eigenvalues --   -0.45206  -0.45180  -0.44557  -0.44514  -0.44486
 Alpha  occ. eigenvalues --   -0.44476  -0.44127  -0.44124  -0.44076  -0.44068
 Alpha  occ. eigenvalues --   -0.43999  -0.43939  -0.43552  -0.43474  -0.43385
 Alpha  occ. eigenvalues --   -0.43365  -0.43006  -0.42930  -0.42900  -0.42678
 Alpha  occ. eigenvalues --   -0.42634  -0.42550  -0.41988  -0.41961  -0.41683
 Alpha  occ. eigenvalues --   -0.41669  -0.41513  -0.41458  -0.41120  -0.40989
 Alpha  occ. eigenvalues --   -0.40848  -0.40802  -0.40722  -0.40698  -0.40550
 Alpha  occ. eigenvalues --   -0.40490  -0.40228  -0.40213  -0.39420  -0.39419
 Alpha  occ. eigenvalues --   -0.38448  -0.38347  -0.37728  -0.37655  -0.37299
 Alpha  occ. eigenvalues --   -0.37263  -0.37243  -0.37200  -0.36771  -0.36693
 Alpha  occ. eigenvalues --   -0.36215  -0.36172  -0.34265  -0.34253  -0.33862
 Alpha  occ. eigenvalues --   -0.33750  -0.33175  -0.33166  -0.31323  -0.31273
 Alpha  occ. eigenvalues --   -0.31015  -0.30972  -0.30009  -0.29955  -0.29428
 Alpha  occ. eigenvalues --   -0.29327  -0.29301  -0.29211  -0.24060  -0.24036
 Alpha  occ. eigenvalues --   -0.21116  -0.21107
 Alpha virt. eigenvalues --   -0.08791  -0.08753  -0.01729  -0.01683  -0.00037
 Alpha virt. eigenvalues --   -0.00029   0.02208   0.02221   0.03143   0.03227
 Alpha virt. eigenvalues --    0.04729   0.04738   0.05118   0.05165   0.06181

 Mulliken charges:
               1
     1  Mg   0.838741
     2  C   -0.002962
     3  C   -0.094124
     4  C   -0.045898
     5  C   -0.063962
     6  N   -0.256783
     7  C   -0.052484
     8  C   -0.013986
     9  C   -0.087015
    10  C    0.046341
    11  C    0.104815
    12  C    0.053468
    13  C   -0.071815
    14  H    0.036134
    15  N   -0.433154
    16  C    0.168435
    17  C   -0.177149
    18  C   -0.003994
    19  C    0.148736
    20  C    0.110183
    21  C    0.012292
    22  O   -0.249612
    23  C    0.062470
    24  N   -0.341138
    25  C    0.041261
    26  C   -0.028161
    27  C   -0.023977
    28  C    0.074833
    29  C    0.076173
    30  C    0.035140
    31  C   -0.004513
    32  N   -0.310464
    33  C    0.080407
    34  C   -0.169724
    35  C    0.008357
    36  C    0.082996
    37  C    0.127312
    38  C    0.046118
    39  O   -0.188453
    40  C   -0.005350
    41  C    0.212882
    42  O   -0.257099
    43  O   -0.304801
    44  C    0.157687
    45  H   -0.017611
    46  H   -0.016830
    47  H   -0.041494
    48  H    0.000925
    49  H   -0.004031
    50  H    0.025465
    51  H    0.016444
    52  H    0.016645
    53  H    0.011219
    54  H    0.044127
    55  H    0.017858
    56  H    0.017956
    57  H    0.005868
    58  H    0.026814
    59  H    0.039578
    60  H    0.037331
    61  H    0.035670
    62  H    0.031527
    63  H    0.016569
    64  H    0.009449
    65  H    0.023216
    66  H    0.012534
    67  H    0.004742
    68  H    0.006367
    69  H    0.004723
    70  H    0.008796
    71  H    0.018155
    72  H    0.028983
    73  H    0.047567
    74  H    0.009115
    75  H    0.045994
    76  H    0.035137
    77  H    0.042936
    78  H    0.046403
    79  H    0.053691
    80  Mg   0.837791
    81  C   -0.016873
    82  C   -0.087794
    83  C   -0.045505
    84  C   -0.064846
    85  N   -0.254560
    86  C   -0.049824
    87  C   -0.015091
    88  C   -0.090494
    89  C    0.045734
    90  C    0.114383
    91  C    0.062533
    92  C   -0.077900
    93  H    0.034909
    94  N   -0.423469
    95  C    0.162915
    96  C   -0.174639
    97  C   -0.007819
    98  C    0.152128
    99  C    0.099380
   100  C    0.015578
   101  O   -0.253160
   102  C    0.061197
   103  N   -0.350058
   104  C    0.037518
   105  C   -0.019848
   106  C   -0.034840
   107  C    0.088917
   108  C    0.073643
   109  C    0.034734
   110  C   -0.007703
   111  N   -0.324112
   112  C    0.078437
   113  C   -0.163106
   114  C    0.002241
   115  C    0.096228
   116  C    0.131480
   117  C    0.042394
   118  O   -0.187856
   119  C    0.000917
   120  C    0.211278
   121  O   -0.251004
   122  O   -0.305643
   123  C    0.152023
   124  H   -0.019686
   125  H   -0.015547
   126  H   -0.040374
   127  H   -0.000661
   128  H   -0.004333
   129  H    0.022456
   130  H    0.014420
   131  H    0.016260
   132  H    0.013920
   133  H    0.037689
   134  H    0.020775
   135  H    0.019587
   136  H    0.008746
   137  H    0.026117
   138  H    0.039792
   139  H    0.038227
   140  H    0.036400
   141  H    0.033901
   142  H    0.014436
   143  H    0.012487
   144  H    0.025192
   145  H    0.011585
   146  H    0.005743
   147  H    0.006364
   148  H    0.003721
   149  H    0.010940
   150  H    0.017996
   151  H    0.030043
   152  H    0.046035
   153  H    0.008592
   154  H    0.046959
   155  H    0.035009
   156  H    0.043914
   157  H    0.049484
   158  H    0.053595
 Sum of Mulliken charges =  -0.00000

 Dipole moment (field-independent basis, Debye):
    X=              0.8670    Y=              5.9423    Z=             -5.9239  Tot=              8.4354
 Quadrupole moment (field-independent basis, Debye-Ang):
   XX=           -384.7604   YY=           -553.7206   ZZ=           -472.5050
   XY=            -23.0942   XZ=             23.5519   YZ=            -11.1768

 Normal termination of Gaussian 16 at Sun Sep 12 22:08:53 2021.
