 Gaussian 16, Revision A.03,
 Gaussian 16:  ES64L-G16RevA.03 25-Dec-2016

 -----------------------------------
 #p cam-b3lyp/Def2SVP td=(nstates=5)
 -----------------------------------

 --------------------------------
 TDDFT excited states in gaussian
 --------------------------------
 Symbolic Z-matrix:
 Charge =  0 Multiplicity = 1

                         Standard orientation:
 ---------------------------------------------------------------------
 Center     Atomic      Atomic             Coordinates (Angstroms)
 Number     Number       Type             X           Y           Z
 ---------------------------------------------------------------------
      1         12           0        4.130894   -1.586700    0.124958
      2          6           0        5.398447    1.392775   -1.400903
      3          6           0        5.585697   -0.540376    3.028717
      4          6           0        3.415509   -4.412301    1.374286
      5          6           0        3.776588   -2.902102   -3.082821
      6          7           0        5.313603    0.216553    0.625081
      7          6           0        5.678060    1.311409   -0.034945
      8          6           0        6.319001    2.398788    0.878387
      9          6           0        6.824793    1.463477    2.066396
     10          6           0        5.827437    0.327460    1.922618
     11          6           0        8.230896    0.912724    1.851812
     12          6           0        5.269832    3.446701    1.381233
     13          6           0        5.860141    4.715491    2.003374
     14          1           0        5.176389    5.982457    1.792116
     15          7           0        4.018664   -2.162022    2.011557
     16          6           0        4.666242   -1.610921    3.066174
     17          6           0        4.253996   -2.392988    4.251546
     18          6           0        3.463141   -3.560961    3.773549
     19          6           0        3.625047   -3.437960    2.347353
     20          6           0        4.569747   -1.984132    5.657565
     21          6           0        2.693667   -4.625904    4.489047
     22          8           0        2.273946   -5.677301    3.894931
     23          6           0        2.518212   -4.446066    5.941602
     24          7           0        3.867798   -3.482373   -0.708611
     25          6           0        3.504214   -4.524184    0.047313
     26          6           0        3.103610   -5.697730   -0.796633
     27          6           0        3.036681   -5.159787   -2.298595
     28          6           0        3.517114   -3.708511   -2.051102
     29          6           0        4.033800   -6.916995   -0.732221
     30          6           0        1.707376   -5.376181   -3.064455
     31          6           0        0.614364   -4.535868   -2.442928
     32          7           0        4.341590   -0.845518   -1.904156
     33          6           0        4.167065   -1.573437   -3.090051
     34          6           0        4.523719   -0.675987   -4.204255
     35          6           0        4.899262    0.514144   -3.584253
     36          6           0        4.809584    0.360868   -2.171186
     37          6           0        4.531407   -1.022971   -5.584101
     38          6           0        5.379003    1.871727   -3.785927
     39          8           0        5.553705    2.592568   -4.769472
     40          6           0        5.837880    2.455457   -2.377198
     41          6           0        5.239984    3.828917   -2.237782
     42          8           0        4.005859    3.981804   -2.133245
     43          8           0        6.218454    4.718845   -2.011581
     44          6           0        5.690175    6.097854   -1.834355
     45          1           0        6.194771   -0.431237    3.928194
     46          1           0        3.059852   -5.370665    1.758323
     47          1           0        3.609791   -3.216009   -4.114855
     48          1           0        7.163618    2.925517    0.433863
     49          1           0        6.714068    1.944223    3.038170
     50          1           0        8.604042    1.150153    0.855664
     51          1           0        8.143185   -0.166541    1.978247
     52          1           0        8.904419    1.252855    2.638866
     53          1           0        4.744717    3.042688    2.246733
     54          1           0        4.585729    3.723531    0.578305
     55          1           0        6.922589    4.812648    1.778265
     56          1           0        5.821216    4.614016    3.087988
     57          1           0        5.301807   -1.177994    5.685416
     58          1           0        5.075688   -2.826876    6.128217
     59          1           0        3.672498   -1.731696    6.222855
     60          1           0        3.497156   -4.389255    6.418037
     61          1           0        1.868236   -5.256884    6.268643
     62          1           0        2.033065   -3.486458    6.122523
     63          1           0        2.122215   -6.070962   -0.506824
     64          1           0        3.788973   -5.627240   -2.934377
     65          1           0        3.531068   -7.835755   -0.429160
     66          1           0        4.854772   -6.679218   -0.056381
     67          1           0        4.569403   -7.132624   -1.656369
     68          1           0        1.392757   -6.416675   -2.991427
     69          1           0        1.774321   -5.123435   -4.122703
     70          1           0        0.271716   -5.155713   -1.615150
     71          1           0       -0.188464   -4.364577   -3.160798
     72          1           0        1.013583   -3.615134   -2.017064
     73          1           0        4.076064   -0.185064   -6.111872
     74          1           0        3.984070   -1.948226   -5.762785
     75          1           0        5.601733   -1.130475   -5.759321
     76          1           0        6.927037    2.482347   -2.388779
     77          1           0        6.195484    6.731325   -2.563472
     78          1           0        5.812949    6.343516   -0.779375
     79          1           0        4.647573    6.254208   -2.113412
     80         12           0       -4.291903    1.573258    0.484911
     81          6           0       -5.326662   -1.626855   -0.767129
     82          6           0       -3.221260    2.295366   -2.672122
     83          6           0       -2.965845    4.212007    1.645077
     84          6           0       -4.383303    0.195662    3.684851
     85          7           0       -4.325173    0.404173   -1.392417
     86          6           0       -4.799010   -0.776484   -1.761044
     87          6           0       -4.775244   -1.029461   -3.292389
     88          6           0       -3.598093   -0.010577   -3.686186
     89          6           0       -3.739204    0.982762   -2.534650
     90          6           0       -2.213747   -0.633131   -3.613026
     91          6           0       -6.128448   -0.638653   -3.983845
     92          6           0       -6.286575   -1.144293   -5.419484
     93          1           0       -7.614431   -1.549325   -5.872481
     94          7           0       -3.695568    3.224602   -0.440300
     95          6           0       -3.319463    3.343604   -1.730902
     96          6           0       -2.952163    4.756272   -1.914299
     97          6           0       -2.984865    5.425750   -0.585600
     98          6           0       -3.201187    4.283644    0.279782
     99          6           0       -2.692556    5.360987   -3.263497
    100          6           0       -2.832270    6.855417   -0.162560
    101          8           0       -2.658102    7.179387    1.065260
    102          6           0       -2.799230    7.857358   -1.237972
    103          7           0       -3.547801    2.069554    2.361708
    104          6           0       -3.074530    3.302587    2.613816
    105          6           0       -2.852722    3.509829    4.093091
    106          6           0       -3.506628    2.237443    4.807971
    107          6           0       -3.933166    1.436437    3.558228
    108          6           0       -1.395835    3.648338    4.534335
    109          6           0       -4.569645    2.515961    5.905735
    110          6           0       -5.807820    3.120387    5.283658
    111          7           0       -4.938311   -0.295276    1.356008
    112          6           0       -4.863365   -0.674295    2.714238
    113          6           0       -5.317354   -2.077475    2.800371
    114          6           0       -5.605350   -2.427506    1.472582
    115          6           0       -5.329767   -1.327071    0.616663
    116          6           0       -5.372870   -2.862537    3.986417
    117          6           0       -6.069743   -3.481115    0.599108
    118          8           0       -6.530489   -4.609398    0.767710
    119          6           0       -5.789917   -3.050571   -0.905127
    120          6           0       -7.039887   -3.306546   -1.701720
    121          8           0       -8.078805   -2.662807   -1.471825
    122          8           0       -6.743761   -4.108561   -2.740692
    123          6           0       -7.949572   -4.382379   -3.567065
    124          1           0       -2.647982    2.535733   -3.567927
    125          1           0       -2.612258    5.134395    2.111617
    126          1           0       -4.533671   -0.274188    4.659171
    127          1           0       -4.506273   -2.038192   -3.582039
    128          1           0       -3.798962    0.476627   -4.636791
    129          1           0       -2.240888   -1.627528   -3.192818
    130          1           0       -1.627349    0.026378   -2.986753
    131          1           0       -1.739235   -0.613929   -4.598314
    132          1           0       -6.139013    0.444065   -4.163748
    133          1           0       -6.964576   -0.959642   -3.393520
    134          1           0       -5.544274   -1.911773   -5.670299
    135          1           0       -6.063481   -0.321941   -6.103584
    136          1           0       -2.579439    4.589467   -4.035087
    137          1           0       -1.709780    5.842241   -3.214465
    138          1           0       -3.438765    6.108689   -3.540602
    139          1           0       -1.977101    7.634608   -1.913945
    140          1           0       -2.775066    8.825761   -0.734495
    141          1           0       -3.720866    7.771698   -1.824376
    142          1           0       -3.356620    4.404330    4.438112
    143          1           0       -2.751783    1.629696    5.328237
    144          1           0       -1.191847    4.590673    5.076972
    145          1           0       -0.765075    3.569471    3.658862
    146          1           0       -1.024053    2.839147    5.160591
    147          1           0       -4.191691    3.250355    6.621255
    148          1           0       -4.850478    1.632385    6.469126
    149          1           0       -5.553413    4.181890    5.208954
    150          1           0       -6.673134    2.966095    5.925123
    151          1           0       -5.959599    2.745308    4.264875
    152          1           0       -6.313258   -3.396947    3.962314
    153          1           0       -5.289227   -2.243502    4.877236
    154          1           0       -4.493336   -3.495762    3.842519
    155          1           0       -4.947267   -3.642785   -1.264045
    156          1           0       -8.056752   -5.469950   -3.625286
    157          1           0       -7.789397   -3.840387   -4.518029
    158          1           0       -8.912097   -4.096535   -3.159289
 ---------------------------------------------------------------------

 SCF Done:  E(RCAM-B3LYP) =  -4069.81217956     A.U. after   19 cycles

 Excitation energies and oscillator strengths:

 Excited State   1:      Singlet-A      1.6551 eV  749.09 nm  f=0.1064  <S**2>=0.000
     309 -> 315        0.11520
     310 -> 316        0.12278
     311 -> 313        0.46746
     312 -> 314        0.50349
 This state for optimization and/or second-order correction.
 Total Energy, E(TD-HF/TD-DFT) =  -4069.75135473
 Copying the excited state density for this state as the 1-particle RhoCI density.

 Excited State   2:      Singlet-A      1.6961 eV  731.00 nm  f=0.5757  <S**2>=0.000
     309 -> 315        0.13157
     310 -> 316       -0.12171
     311 -> 313        0.50161
     312 -> 314       -0.46592

 Excited State   3:      Singlet-A      2.1853 eV  567.35 nm  f=0.0420  <S**2>=0.000
     309 -> 313        0.32700
     310 -> 314        0.55433
     311 -> 315       -0.13689
     312 -> 316       -0.23365

 Excited State   4:      Singlet-A      2.1945 eV  564.99 nm  f=0.1447  <S**2>=0.000
     309 -> 313        0.55138
     310 -> 314       -0.32394
     311 -> 315       -0.24109
     312 -> 316        0.14224

 Excited State   5:      Singlet-A      2.3413 eV  529.55 nm  f=0.0000  <S**2>=0.000
     312 -> 313        0.70708

 The electronic state is 1-A.
 Alpha  occ. eigenvalues --  -46.87912 -46.87436 -19.26431 -19.26210 -19.19185
 Alpha  occ. eigenvalues --  -19.19004 -19.18897 -19.18484 -19.18330 -19.17834
 Alpha  occ. eigenvalues --  -14.42560 -14.42267 -14.41564 -14.41150 -14.39515
 Alpha  occ. eigenvalues --  -14.39114 -14.38717 -14.38377 -10.39239 -10.38931
 Alpha  occ. eigenvalues --  -10.35528 -10.35159 -10.34548 -10.34016 -10.31815
 Alpha  occ. eigenvalues --  -10.31641 -10.31529 -10.31072 -10.31008 -10.30777
 Alpha  occ. eigenvalues --  -10.30704 -10.30632 -10.30313 -10.30185 -10.30123
 Alpha  occ. eigenvalues --  -10.30041 -10.29929 -10.29760 -10.29716 -10.29369
 Alpha  occ. eigenvalues --  -10.29187 -10.29168 -10.28829 -10.28558 -10.28503
 Alpha  occ. eigenvalues --  -10.28495 -10.28485 -10.28206 -10.28161 -10.27926
 Alpha  occ. eigenvalues --  -10.27892 -10.27841 -10.27754 -10.27706 -10.27611
 Alpha  occ. eigenvalues --  -10.27590 -10.27537 -10.27521 -10.27412 -10.27400
 Alpha  occ. eigenvalues --  -10.27299 -10.27276 -10.27262 -10.27215 -10.27070
 Alpha  occ. eigenvalues --  -10.26855 -10.26755 -10.26502 -10.26484 -10.26322
 Alpha  occ. eigenvalues --  -10.26320 -10.26163 -10.26147 -10.26063 -10.26046
 Alpha  occ. eigenvalues --  -10.25735 -10.25730 -10.25647 -10.25499 -10.25361
 Alpha  occ. eigenvalues --  -10.24972 -10.24896 -10.24865 -10.24646 -10.24634
 Alpha  occ. eigenvalues --  -10.24480  -3.16655  -3.16186  -1.91536  -1.91123
 Alpha  occ. eigenvalues --   -1.91068  -1.90965  -1.90657  -1.90493  -1.16782
 Alpha  occ. eigenvalues --   -1.16499  -1.08793  -1.08449  -1.07293  -1.06805
 Alpha  occ. eigenvalues --   -1.06788  -1.06737  -1.04693  -1.04261  -1.03873
 Alpha  occ. eigenvalues --   -1.03440  -1.03356  -1.02823  -1.02531  -1.01889
 Alpha  occ. eigenvalues --   -0.92100  -0.91768  -0.89642  -0.89324  -0.89276
 Alpha  occ. eigenvalues --   -0.88922  -0.88398  -0.88075  -0.88023  -0.87780
 Alpha  occ. eigenvalues --   -0.87571  -0.87455  -0.87383  -0.86841  -0.85073
 Alpha  occ. eigenvalues --   -0.84781  -0.84057  -0.83749  -0.83067  -0.82747
 Alpha  occ. eigenvalues --   -0.82704  -0.82428  -0.81715  -0.81413  -0.80715
 Alpha  occ. eigenvalues --   -0.80236  -0.78919  -0.78375  -0.77334  -0.77037
 Alpha  occ. eigenvalues --   -0.76930  -0.76719  -0.76037  -0.75615  -0.75006
 Alpha  occ. eigenvalues --   -0.74655  -0.72902  -0.72477  -0.71781  -0.71380
 Alpha  occ. eigenvalues --   -0.70033  -0.69634  -0.68972  -0.68608  -0.67757
 Alpha  occ. eigenvalues --   -0.67390  -0.67298  -0.66983  -0.65387  -0.65061
 Alpha  occ. eigenvalues --   -0.64977  -0.64733  -0.64567  -0.64459  -0.64386
 Alpha  occ. eigenvalues --   -0.64041  -0.62432  -0.62106  -0.60550  -0.60106
 Alpha  occ. eigenvalues --   -0.59906  -0.59566  -0.59106  -0.58787  -0.58627
 Alpha  occ. eigenvalues --   -0.58221  -0.57728  -0.57428  -0.57361  -0.57045
 Alpha  occ. eigenvalues --   -0.56439  -0.56102  -0.55974  -0.55702  -0.55631
 Alpha  occ. eigenvalues --   -0.55466  -0.55230  -0.55101  -0.54657  -0.54347
 Alpha  occ. eigenvalues --   -0.53983  -0.53690  -0.53419  -0.53325  -0.53041
 Alpha  occ. eigenvalues --   -0.53024  -0.52924  -0.52852  -0.52700  -0.52574
 Alpha  occ. eigenvalues --   -0.52399  -0.52279  -0.52089  -0.51712  -0.51673
 Alpha  occ. eigenvalues --   -0.51430  -0.51325  -0.51005  -0.50672  -0.50211
 Alpha  occ. eigenvalues --   -0.50146  -0.50016  -0.49761  -0.49675  -0.49615
 Alpha  occ. eigenvalues --   -0.49343  -0.49258  -0.49200  -0.48965  -0.48890
 Alpha  occ. eigenvalues --   -0.48718  -0.48575  -0.48546  -0.48352  -0.48227
 Alpha  occ. eigenvalues --   -0.48101  -0.47803  -0.47406  -0.47374  -0.46917
 Alpha  occ. eigenvalues --   -0.46887  -0.46645  -0.46512  -0.46484  -0.46338
 Alpha  occ. eigenvalues --   -0.46292  -0.46049  -0.45965  -0.45910  -0.45639
 Alpha  occ. eigenvalues --   -0.45309  -0.45062  -0.44718  -0.44605  -0.44321
 Alpha  occ. eigenvalues --   -0.44267  -0.44258  -0.44191  -0.44131  -0.43925
 Alpha  occ. eigenvalues --   -0.43880  -0.43703  -0.43633  -0.43484  -0.43385
 Alpha  occ. eigenvalues --   -0.43186  -0.43147  -0.42834  -0.42784  -0.42761
 Alpha  occ. eigenvalues --   -0.42711  -0.42378  -0.42133  -0.41827  -0.41800
 Alpha  occ. eigenvalues --   -0.41622  -0.41465  -0.41261  -0.41244  -0.40965
 Alpha  occ. eigenvalues --   -0.40903  -0.40782  -0.40681  -0.40523  -0.40482
 Alpha  occ. eigenvalues --   -0.40333  -0.40295  -0.40026  -0.39568  -0.39307
 Alpha  occ. eigenvalues --   -0.38568  -0.38206  -0.37825  -0.37457  -0.37431
 Alpha  occ. eigenvalues --   -0.37359  -0.37089  -0.36973  -0.36853  -0.36622
 Alpha  occ. eigenvalues --   -0.36315  -0.36049  -0.34407  -0.34038  -0.33928
 Alpha  occ. eigenvalues --   -0.33691  -0.33311  -0.32951  -0.31426  -0.31149
 Alpha  occ. eigenvalues --   -0.31048  -0.30754  -0.30190  -0.29745  -0.29571
 Alpha  occ. eigenvalues --   -0.29459  -0.29073  -0.28973  -0.24199  -0.23811
 Alpha  occ. eigenvalues --   -0.21249  -0.20886
 Alpha virt. eigenvalues --   -0.08896  -0.08551  -0.01860  -0.01466  -0.00164
 Alpha virt. eigenvalues --    0.00222   0.02058   0.02410   0.02839   0.03490
 Alpha virt. eigenvalues --    0.04623   0.04943   0.04953   0.05332   0.06118

 Mulliken charges:
               1
     1  Mg   0.838984
     2  C   -0.002896
     3  C   -0.094132
     4  C   -0.045442
     5  C   -0.064479
     6  N   -0.256912
     7  C   -0.052263
     8  C   -0.014113
     9  C   -0.087058
    10  C    0.046739
    11  C    0.104744
    12  C    0.053438
    13  C   -0.072482
    14  H    0.037839
    15  N   -0.433298
    16  C    0.168841
    17  C   -0.177067
    18  C   -0.003580
    19  C    0.149133
    20  C    0.110165
    21  C    0.012666
    22  O   -0.248369
    23  C    0.062383
    24  N   -0.341156
    25  C    0.041332
    26  C   -0.028625
    27  C   -0.023905
    28  C    0.074692
    29  C    0.075939
    30  C    0.035156
    31  C   -0.006900
    32  N   -0.310105
    33  C    0.079767
    34  C   -0.171406
    35  C    0.007802
    36  C    0.082363
    37  C    0.127709
    38  C    0.045012
    39  O   -0.189558
    40  C   -0.004916
    41  C    0.212658
    42  O   -0.258105
    43  O   -0.304491
    44  C    0.158077
    45  H   -0.017246
    46  H   -0.015975
    47  H   -0.042203
    48  H    0.000894
    49  H   -0.003703
    50  H    0.025499
    51  H    0.016451
    52  H    0.016989
    53  H    0.011383
    54  H    0.044313
    55  H    0.017572
    56  H    0.018147
    57  H    0.006120
    58  H    0.027344
    59  H    0.039321
    60  H    0.037455
    61  H    0.036500
    62  H    0.030833
    63  H    0.017716
    64  H    0.009618
    65  H    0.024172
    66  H    0.012602
    67  H    0.004811
    68  H    0.007676
    69  H    0.003573
    70  H    0.011574
    71  H    0.016832
    72  H    0.028951
    73  H    0.045607
    74  H    0.008475
    75  H    0.046505
    76  H    0.035436
    77  H    0.042750
    78  H    0.047458
    79  H    0.052587
    80  Mg   0.837636
    81  C   -0.016700
    82  C   -0.086053
    83  C   -0.044854
    84  C   -0.065488
    85  N   -0.254509
    86  C   -0.050157
    87  C   -0.014829
    88  C   -0.091107
    89  C    0.044837
    90  C    0.112769
    91  C    0.062658
    92  C   -0.077510
    93  H    0.034121
    94  N   -0.424102
    95  C    0.162488
    96  C   -0.170302
    97  C   -0.007449
    98  C    0.153201
    99  C    0.097917
   100  C    0.016273
   101  O   -0.254391
   102  C    0.060811
   103  N   -0.349986
   104  C    0.037522
   105  C   -0.019673
   106  C   -0.034372
   107  C    0.088585
   108  C    0.074050
   109  C    0.035043
   110  C   -0.007522
   111  N   -0.323931
   112  C    0.077910
   113  C   -0.163402
   114  C    0.002288
   115  C    0.095700
   116  C    0.131250
   117  C    0.042309
   118  O   -0.188708
   119  C    0.000887
   120  C    0.211187
   121  O   -0.251151
   122  O   -0.305852
   123  C    0.152149
   124  H   -0.015684
   125  H   -0.016313
   126  H   -0.041753
   127  H   -0.001906
   128  H   -0.004111
   129  H    0.021968
   130  H    0.018216
   131  H    0.016612
   132  H    0.014046
   133  H    0.037322
   134  H    0.020056
   135  H    0.019891
   136  H    0.010285
   137  H    0.031290
   138  H    0.038551
   139  H    0.040233
   140  H    0.035138
   141  H    0.033494
   142  H    0.013966
   143  H    0.010510
   144  H    0.023897
   145  H    0.012904
   146  H    0.003158
   147  H    0.005043
   148  H    0.003064
   149  H    0.010667
   150  H    0.017475
   151  H    0.030859
   152  H    0.045362
   153  H    0.007290
   154  H    0.047865
   155  H    0.034668
   156  H    0.043347
   157  H    0.049380
   158  H    0.053449
 Sum of Mulliken charges =  -0.00000

 Dipole moment (field-independent basis, Debye):
    X=              5.0207    Y=              1.3737    Z=              0.8837  Tot=              5.2797
 Quadrupole moment (field-independent basis, Debye-Ang):
   XX=           -525.4559   YY=           -530.3188   ZZ=           -464.2138
   XY=            -16.2614   XZ=             45.4967   YZ=             22.7374

 Normal termination of Gaussian 16 at Fri Sep  3 19:37:21 2021.
