 Gaussian 16, Revision A.03,
 Gaussian 16:  ES64L-G16RevA.03 25-Dec-2016

 -----------------------------------
 #p cam-b3lyp/Def2SVP td=(nstates=5)
 -----------------------------------

 --------------------------------
 TDDFT excited states in gaussian
 --------------------------------
 Symbolic Z-matrix:
 Charge =  0 Multiplicity = 1

                         Standard orientation:
 ---------------------------------------------------------------------
 Center     Atomic      Atomic             Coordinates (Angstroms)
 Number     Number       Type             X           Y           Z
 ---------------------------------------------------------------------
      1         12           0        3.598454    1.183905    0.205385
      2          6           0        4.131496   -1.761130    2.168763
      3          6           0        4.869998   -0.537821   -2.452038
      4          6           0        3.561658    3.899212   -1.432410
      5          6           0        3.450340    2.970725    3.193863
      6          7           0        4.367588   -0.882548    0.008286
      7          6           0        4.461795   -1.929375    0.822196
      8          6           0        4.872960   -3.243585    0.093383
      9          6           0        5.607234   -2.610392   -1.172281
     10          6           0        4.881750   -1.277733   -1.232438
     11          6           0        7.093416   -2.350880   -0.947740
     12          6           0        3.633288   -4.100022   -0.332598
     13          6           0        3.946545   -5.538945   -0.752985
     14          1           0        2.993931   -6.588136   -0.422724
     15          7           0        3.671039    1.506379   -1.742329
     16          6           0        4.211264    0.689991   -2.678787
     17          6           0        4.016650    1.372795   -3.975932
     18          6           0        3.489811    2.737648   -3.697165
     19          6           0        3.578979    2.778917   -2.259902
     20          6           0        4.275041    0.717264   -5.297774
     21          6           0        2.995776    3.835068   -4.585833
     22          8           0        2.801606    5.023256   -4.155623
     23          6           0        2.827262    3.500268   -6.011510
     24          7           0        3.736529    3.187552    0.774568
     25          6           0        3.634244    4.169784   -0.127508
     26          6           0        3.478427    5.506141    0.535674
     27          6           0        3.250638    5.205744    2.087327
     28          6           0        3.405564    3.665224    2.054682
     29          6           0        4.656473    6.476288    0.371255
     30          6           0        1.980282    5.805603    2.740614
     31          6           0        0.747186    5.143110    2.168184
     32          7           0        3.581071    0.699361    2.321032
     33          6           0        3.537250    1.602946    3.392614
     34          6           0        3.654248    0.810792    4.630706
     35          6           0        3.775454   -0.505588    4.189913
     36          6           0        3.763005   -0.531321    2.766018
     37          6           0        3.698257    1.333355    5.953364
     38          6           0        3.937338   -1.893938    4.590080
     39          8           0        3.919779   -2.494051    5.665742
     40          6           0        4.296699   -2.749719    3.296123
     41          6           0        3.414458   -3.968307    3.297693
     42          8           0        2.180628   -3.865029    3.141604
     43          8           0        4.178297   -5.070212    3.243869
     44          6           0        3.363797   -6.314309    3.212768
     45          1           0        5.465815   -0.897346   -3.293279
     46          1           0        3.437845    4.849903   -1.955188
     47          1           0        3.327061    3.451266    4.166147
     48          1           0        5.567039   -3.873778    0.649742
     49          1           0        5.421356   -3.184338   -2.079891
     50          1           0        7.375743   -2.524497    0.090561
     51          1           0        7.250029   -1.305679   -1.215174
     52          1           0        7.697758   -2.932256   -1.644554
     53          1           0        3.235815   -3.714772   -1.271565
     54          1           0        2.881866   -4.110788    0.457703
     55          1           0        4.954264   -5.830602   -0.455754
     56          1           0        3.962572   -5.580767   -1.842110
     57          1           0        4.811407   -0.223500   -5.180219
     58          1           0        4.968139    1.359012   -5.841357
     59          1           0        3.361029    0.588826   -5.877789
     60          1           0        3.782902    3.169649   -6.418932
     61          1           0        2.382276    4.379375   -6.476278
     62          1           0        2.147573    2.651943   -6.097040
     63          1           0        2.612598    6.038477    0.144033
     64          1           0        4.068790    5.582914    2.701366
     65          1           0        4.378177    7.431385   -0.074891
     66          1           0        5.423933    5.977384   -0.219837
     67          1           0        5.199360    6.695985    1.290181
     68          1           0        1.905572    6.869415    2.517750
     69          1           0        1.958916    5.691519    3.824486
     70          1           0        0.574178    5.702982    1.249792
     71          1           0       -0.094184    5.248300    2.853926
     72          1           0        0.945342    4.108688    1.886776
     73          1           0        3.053891    0.693214    6.555843
     74          1           0        3.363897    2.370203    5.980804
     75          1           0        4.760323    1.231085    6.175652
     76          1           0        5.352194   -3.008374    3.374554
     77          1           0        3.695236   -6.935829    4.044690
     78          1           0        3.459903   -6.722528    2.206525
     79          1           0        2.304748   -6.203116    3.448120
     80         12           0       -4.246247    0.034687   -0.188256
     81          6           0       -1.652111   -1.948824   -1.676586
     82          6           0       -6.338566   -2.617699   -0.659069
     83          6           0       -6.652458    1.902295    0.700357
     84          6           0       -2.301915    2.843834   -0.876732
     85          7           0       -3.920101   -1.969883   -1.064378
     86          6           0       -2.877666   -2.633674   -1.540869
     87          6           0       -3.144299   -4.137811   -1.816661
     88          6           0       -4.737282   -4.068574   -2.007622
     89          6           0       -5.030916   -2.829477   -1.164376
     90          6           0       -5.159970   -3.783259   -3.439156
     91          6           0       -2.750584   -5.047478   -0.600317
     92          6           0       -2.693273   -6.545139   -0.909329
     93          1           0       -1.680588   -7.355924   -0.238840
     94          7           0       -6.068087   -0.432183    0.445384
     95          6           0       -6.758212   -1.560739    0.178221
     96          6           0       -8.053620   -1.410881    0.859122
     97          6           0       -8.135664   -0.032045    1.413007
     98          6           0       -6.937778    0.552297    0.844052
     99          6           0       -9.032202   -2.539964    1.003916
    100          6           0       -9.134492    0.651709    2.296771
    101          8           0       -9.131047    1.923144    2.458865
    102          6           0      -10.174070   -0.200145    2.892689
    103          7           0       -4.548178    2.089189   -0.289293
    104          6           0       -5.660499    2.650185    0.216616
    105          6           0       -5.533373    4.153631    0.278753
    106          6           0       -4.004398    4.470161   -0.067143
    107          6           0       -3.511751    3.038047   -0.370029
    108          6           0       -6.441892    4.937755   -0.667887
    109          6           0       -3.211943    5.322310    0.961711
    110          6           0       -3.024869    4.542110    2.242990
    111          7           0       -2.252565    0.401159   -0.935907
    112          6           0       -1.647015    1.654892   -1.171549
    113          6           0       -0.330225    1.393382   -1.788078
    114          6           0       -0.270284   -0.004637   -1.890275
    115          6           0       -1.473749   -0.573257   -1.392446
    116          6           0        0.600184    2.382877   -2.213931
    117          6           0        0.533028   -1.128139   -2.315857
    118          8           0        1.681234   -1.265464   -2.735990
    119          6           0       -0.377941   -2.430647   -2.312966
    120          6           0        0.381511   -3.527085   -1.617562
    121          8           0        0.653078   -3.438398   -0.407191
    122          8           0        0.470965   -4.589862   -2.437842
    123          6           0        1.206437   -5.707604   -1.788565
    124          1           0       -7.130351   -3.301772   -0.965677
    125          1           0       -7.405857    2.588045    1.094849
    126          1           0       -1.595364    3.662156   -1.030977
    127          1           0       -2.678547   -4.524407   -2.715216
    128          1           0       -5.224318   -4.942720   -1.583325
    129          1           0       -4.314368   -3.556261   -4.071272
    130          1           0       -5.829981   -2.935239   -3.384576
    131          1           0       -5.755836   -4.613566   -3.828866
    132          1           0       -3.567255   -5.038052    0.132974
    133          1           0       -1.818879   -4.730671   -0.173469
    134          1           0       -2.692238   -6.743700   -1.987997
    135          1           0       -3.616163   -7.008677   -0.552376
    136          1           0       -8.771751   -3.383939    0.353326
    137          1           0       -9.991967   -2.183151    0.614822
    138          1           0       -9.165521   -2.851276    2.042181
    139          1           0      -10.732895   -0.694726    2.101768
    140          1           0      -10.738661    0.452378    3.561500
    141          1           0       -9.687396   -0.990144    3.475509
    142          1           0       -5.751347    4.519341    1.274666
    143          1           0       -3.907909    5.040164   -1.002886
    144          1           0       -7.092147    5.665071   -0.146118
    145          1           0       -7.036981    4.232195   -1.232326
    146          1           0       -5.926133    5.486135   -1.454318
    147          1           0       -3.776570    6.220191    1.224697
    148          1           0       -2.242380    5.646432    0.598553
    149          1           0       -3.966616    4.710149    2.773983
    150          1           0       -2.178992    4.929476    2.807347
    151          1           0       -2.947221    3.467379    2.041590
    152          1           0        1.577742    2.050734   -1.890560
    153          1           0        0.356024    3.360749   -1.804154
    154          1           0        0.447562    2.341377   -3.295720
    155          1           0       -0.596818   -2.679649   -3.352030
    156          1           0        2.034900   -5.973227   -2.452472
    157          1           0        0.448704   -6.489017   -1.591147
    158          1           0        1.734608   -5.491732   -0.867210
 ---------------------------------------------------------------------

 SCF Done:  E(RCAM-B3LYP) =  -4069.79303832     A.U. after   18 cycles

 Excitation energies and oscillator strengths:

 Excited State   1:      Singlet-A      1.6171 eV  766.73 nm  f=0.2952  <S**2>=0.000
     309 -> 315        0.11064
     310 -> 316       -0.10616
     311 -> 313        0.48207
     312 -> 314        0.49037
 This state for optimization and/or second-order correction.
 Total Energy, E(TD-HF/TD-DFT) =  -4069.73361272
 Copying the excited state density for this state as the 1-particle RhoCI density.

 Excited State   2:      Singlet-A      1.6946 eV  731.63 nm  f=0.4882  <S**2>=0.000
     309 -> 315        0.12453
     310 -> 316        0.12309
     311 -> 313        0.48366
     312 -> 314       -0.47843

 Excited State   3:      Singlet-A      1.9861 eV  624.26 nm  f=0.0006  <S**2>=0.000
     312 -> 313        0.69795

 Excited State   4:      Singlet-A      2.1644 eV  572.84 nm  f=0.0016  <S**2>=0.000
     309 -> 313        0.46999
     310 -> 314       -0.44456
     311 -> 315       -0.18725
     312 -> 316       -0.17709

 Excited State   5:      Singlet-A      2.1923 eV  565.54 nm  f=0.1540  <S**2>=0.000
     309 -> 313        0.43990
     310 -> 314        0.45894
     311 -> 315       -0.18465
     312 -> 316        0.19947

 The electronic state is 1-A.
 Alpha  occ. eigenvalues --  -46.87597 -46.86954 -19.26396 -19.25571 -19.19293
 Alpha  occ. eigenvalues --  -19.18667 -19.18663 -19.18419 -19.18127 -19.17345
 Alpha  occ. eigenvalues --  -14.42418 -14.41479 -14.41314 -14.40692 -14.39302
 Alpha  occ. eigenvalues --  -14.38619 -14.38574 -14.37685 -10.39179 -10.38198
 Alpha  occ. eigenvalues --  -10.35342 -10.35025 -10.34635 -10.33567 -10.31292
 Alpha  occ. eigenvalues --  -10.31266 -10.31208 -10.30992 -10.30460 -10.30356
 Alpha  occ. eigenvalues --  -10.30343 -10.30030 -10.29917 -10.29843 -10.29788
 Alpha  occ. eigenvalues --  -10.29779 -10.29416 -10.29369 -10.29348 -10.29320
 Alpha  occ. eigenvalues --  -10.29023 -10.28679 -10.28591 -10.28420 -10.28364
 Alpha  occ. eigenvalues --  -10.28323 -10.28115 -10.27936 -10.27880 -10.27608
 Alpha  occ. eigenvalues --  -10.27446 -10.27437 -10.27414 -10.27399 -10.27383
 Alpha  occ. eigenvalues --  -10.27274 -10.27269 -10.27237 -10.27061 -10.27051
 Alpha  occ. eigenvalues --  -10.26928 -10.26869 -10.26705 -10.26679 -10.26562
 Alpha  occ. eigenvalues --  -10.26512 -10.26350 -10.26326 -10.26059 -10.26045
 Alpha  occ. eigenvalues --  -10.25954 -10.25949 -10.25818 -10.25553 -10.25516
 Alpha  occ. eigenvalues --  -10.25309 -10.25219 -10.25150 -10.25071 -10.24913
 Alpha  occ. eigenvalues --  -10.24768 -10.24670 -10.24660 -10.24537 -10.24064
 Alpha  occ. eigenvalues --  -10.23936  -3.16344  -3.15688  -1.91226  -1.90815
 Alpha  occ. eigenvalues --   -1.90653  -1.90571  -1.90154  -1.90001  -1.16747
 Alpha  occ. eigenvalues --   -1.15888  -1.09195  -1.07817  -1.07115  -1.06917
 Alpha  occ. eigenvalues --   -1.06821  -1.05770  -1.04449  -1.03690  -1.03613
 Alpha  occ. eigenvalues --   -1.03011  -1.02990  -1.02480  -1.02079  -1.01576
 Alpha  occ. eigenvalues --   -0.92033  -0.91096  -0.89426  -0.89106  -0.88982
 Alpha  occ. eigenvalues --   -0.88382  -0.88130  -0.87787  -0.87638  -0.87530
 Alpha  occ. eigenvalues --   -0.87072  -0.87060  -0.86829  -0.86627  -0.84947
 Alpha  occ. eigenvalues --   -0.84463  -0.83797  -0.83478  -0.82872  -0.82640
 Alpha  occ. eigenvalues --   -0.82461  -0.82110  -0.81522  -0.80922  -0.80400
 Alpha  occ. eigenvalues --   -0.79863  -0.78552  -0.78054  -0.77116  -0.77021
 Alpha  occ. eigenvalues --   -0.76628  -0.76337  -0.75716  -0.75218  -0.74738
 Alpha  occ. eigenvalues --   -0.74337  -0.72604  -0.72018  -0.71551  -0.70937
 Alpha  occ. eigenvalues --   -0.69658  -0.69515  -0.68815  -0.68224  -0.67586
 Alpha  occ. eigenvalues --   -0.67140  -0.66935  -0.66622  -0.65266  -0.64777
 Alpha  occ. eigenvalues --   -0.64649  -0.64511  -0.64151  -0.64102  -0.63986
 Alpha  occ. eigenvalues --   -0.63598  -0.62422  -0.61593  -0.60295  -0.59864
 Alpha  occ. eigenvalues --   -0.59749  -0.59121  -0.58877  -0.58459  -0.58294
 Alpha  occ. eigenvalues --   -0.57767  -0.57684  -0.57237  -0.56790  -0.56658
 Alpha  occ. eigenvalues --   -0.56207  -0.56059  -0.55612  -0.55547  -0.55282
 Alpha  occ. eigenvalues --   -0.55243  -0.54894  -0.54805  -0.54499  -0.53936
 Alpha  occ. eigenvalues --   -0.53881  -0.53404  -0.53240  -0.53038  -0.52955
 Alpha  occ. eigenvalues --   -0.52822  -0.52669  -0.52500  -0.52327  -0.52229
 Alpha  occ. eigenvalues --   -0.52174  -0.51979  -0.51821  -0.51601  -0.51271
 Alpha  occ. eigenvalues --   -0.51156  -0.50899  -0.50521  -0.50406  -0.50037
 Alpha  occ. eigenvalues --   -0.49998  -0.49880  -0.49532  -0.49461  -0.49320
 Alpha  occ. eigenvalues --   -0.49278  -0.49227  -0.48903  -0.48675  -0.48554
 Alpha  occ. eigenvalues --   -0.48356  -0.48259  -0.48221  -0.47952  -0.47848
 Alpha  occ. eigenvalues --   -0.47722  -0.47485  -0.47223  -0.47013  -0.46723
 Alpha  occ. eigenvalues --   -0.46556  -0.46476  -0.46297  -0.46134  -0.45952
 Alpha  occ. eigenvalues --   -0.45828  -0.45802  -0.45585  -0.45474  -0.45381
 Alpha  occ. eigenvalues --   -0.45084  -0.44790  -0.44556  -0.44437  -0.44203
 Alpha  occ. eigenvalues --   -0.44129  -0.43991  -0.43867  -0.43809  -0.43706
 Alpha  occ. eigenvalues --   -0.43462  -0.43340  -0.43296  -0.43056  -0.42824
 Alpha  occ. eigenvalues --   -0.42746  -0.42674  -0.42590  -0.42488  -0.42341
 Alpha  occ. eigenvalues --   -0.42107  -0.41966  -0.41852  -0.41703  -0.41412
 Alpha  occ. eigenvalues --   -0.41322  -0.41000  -0.40919  -0.40658  -0.40652
 Alpha  occ. eigenvalues --   -0.40588  -0.40464  -0.40364  -0.40247  -0.40149
 Alpha  occ. eigenvalues --   -0.40077  -0.39887  -0.39423  -0.39327  -0.39016
 Alpha  occ. eigenvalues --   -0.38261  -0.37901  -0.37578  -0.37190  -0.37166
 Alpha  occ. eigenvalues --   -0.37055  -0.36722  -0.36560  -0.36488  -0.36159
 Alpha  occ. eigenvalues --   -0.35932  -0.35417  -0.34222  -0.33762  -0.33435
 Alpha  occ. eigenvalues --   -0.33130  -0.32848  -0.32198  -0.31224  -0.30974
 Alpha  occ. eigenvalues --   -0.30875  -0.30322  -0.30212  -0.29414  -0.29244
 Alpha  occ. eigenvalues --   -0.29212  -0.28665  -0.28460  -0.23987  -0.23205
 Alpha  occ. eigenvalues --   -0.21066  -0.20196
 Alpha virt. eigenvalues --   -0.08777  -0.07902  -0.01648  -0.01129  -0.00043
 Alpha virt. eigenvalues --    0.00703   0.02027   0.02941   0.03277   0.04646
 Alpha virt. eigenvalues --    0.04721   0.04832   0.05063   0.05975   0.06153

 Mulliken charges:
               1
     1  Mg   0.814684
     2  C    0.008091
     3  C   -0.073879
     4  C   -0.052734
     5  C   -0.066278
     6  N   -0.256818
     7  C   -0.046510
     8  C    0.004145
     9  C   -0.094147
    10  C    0.062215
    11  C    0.106373
    12  C    0.003396
    13  C   -0.098237
    14  H    0.030302
    15  N   -0.452213
    16  C    0.212018
    17  C   -0.174934
    18  C   -0.007029
    19  C    0.126176
    20  C    0.116856
    21  C    0.008967
    22  O   -0.253263
    23  C    0.065815
    24  N   -0.339145
    25  C    0.044507
    26  C   -0.027049
    27  C   -0.021850
    28  C    0.074735
    29  C    0.077403
    30  C    0.038307
    31  C   -0.021555
    32  N   -0.304455
    33  C    0.078865
    34  C   -0.172565
    35  C    0.006396
    36  C    0.079330
    37  C    0.127824
    38  C    0.046253
    39  O   -0.192242
    40  C   -0.009191
    41  C    0.211318
    42  O   -0.249037
    43  O   -0.306568
    44  C    0.159555
    45  H   -0.023500
    46  H   -0.023665
    47  H   -0.045466
    48  H   -0.005265
    49  H   -0.003663
    50  H    0.024126
    51  H    0.016193
    52  H    0.013502
    53  H    0.028193
    54  H    0.085767
    55  H    0.013526
    56  H    0.020763
    57  H    0.007460
    58  H    0.022387
    59  H    0.040211
    60  H    0.038107
    61  H    0.032889
    62  H    0.029371
    63  H    0.011764
    64  H    0.008440
    65  H    0.020957
    66  H    0.013471
    67  H    0.004040
    68  H    0.003526
    69  H    0.004049
    70  H    0.009717
    71  H    0.024264
    72  H    0.035742
    73  H    0.045494
    74  H    0.006671
    75  H    0.043872
    76  H    0.032650
    77  H    0.040626
    78  H    0.043022
    79  H    0.053150
    80  Mg   0.841728
    81  C   -0.015917
    82  C   -0.088250
    83  C   -0.044897
    84  C   -0.067508
    85  N   -0.255280
    86  C   -0.049925
    87  C   -0.016253
    88  C   -0.090583
    89  C    0.047220
    90  C    0.114634
    91  C    0.061860
    92  C   -0.077178
    93  H    0.034302
    94  N   -0.423366
    95  C    0.164163
    96  C   -0.174572
    97  C   -0.007228
    98  C    0.152405
    99  C    0.099415
   100  C    0.016007
   101  O   -0.252917
   102  C    0.060972
   103  N   -0.349803
   104  C    0.037818
   105  C   -0.020237
   106  C   -0.033487
   107  C    0.088770
   108  C    0.073716
   109  C    0.033870
   110  C   -0.001875
   111  N   -0.322962
   112  C    0.077698
   113  C   -0.181337
   114  C   -0.002354
   115  C    0.099593
   116  C    0.160062
   117  C    0.044806
   118  O   -0.193825
   119  C    0.015582
   120  C    0.211469
   121  O   -0.239167
   122  O   -0.310816
   123  C    0.148845
   124  H   -0.019977
   125  H   -0.015291
   126  H   -0.036527
   127  H   -0.002335
   128  H   -0.004047
   129  H    0.021200
   130  H    0.014445
   131  H    0.016043
   132  H    0.015288
   133  H    0.042597
   134  H    0.019155
   135  H    0.019589
   136  H    0.008778
   137  H    0.025997
   138  H    0.040486
   139  H    0.038044
   140  H    0.036525
   141  H    0.034572
   142  H    0.014752
   143  H    0.013192
   144  H    0.024949
   145  H    0.011124
   146  H    0.006125
   147  H    0.004820
   148  H    0.004296
   149  H    0.007619
   150  H    0.011855
   151  H    0.031375
   152  H    0.067633
   153  H    0.012944
   154  H    0.035052
   155  H    0.031907
   156  H    0.035584
   157  H    0.041704
   158  H    0.069109
 Sum of Mulliken charges =  -0.00000

 Dipole moment (field-independent basis, Debye):
    X=             -1.9059    Y=             -3.2140    Z=             -5.3802  Tot=              6.5505
 Quadrupole moment (field-independent basis, Debye-Ang):
   XX=           -488.6549   YY=           -471.6757   ZZ=           -523.9322
   XY=             21.9049   XZ=             -8.1520   YZ=             31.8298

 Normal termination of Gaussian 16 at Wed Sep  8 22:57:34 2021.
