 Gaussian 16, Revision A.03,
 Gaussian 16:  ES64L-G16RevA.03 25-Dec-2016

 -----------------------------------
 #p cam-b3lyp/Def2SVP td=(nstates=5)
 -----------------------------------

 --------------------------------
 TDDFT excited states in gaussian
 --------------------------------
 Symbolic Z-matrix:
 Charge =  0 Multiplicity = 1

                         Standard orientation:
 ---------------------------------------------------------------------
 Center     Atomic      Atomic             Coordinates (Angstroms)
 Number     Number       Type             X           Y           Z
 ---------------------------------------------------------------------
      1         12           0        5.460326    0.094153   -0.034147
      2          6           0        5.231248   -3.446296   -0.508451
      3          6           0        6.230285    0.338535   -3.349340
      4          6           0        6.112014    3.158963    0.454587
      5          6           0        5.794868   -0.533216    3.377620
      6          7           0        5.671583   -1.431983   -1.623778
      7          6           0        5.498815   -2.748477   -1.688324
      8          6           0        5.554029   -3.308340   -3.141210
      9          6           0        6.418383   -2.154923   -3.822766
     10          6           0        6.059208   -1.004281   -2.899218
     11          6           0        7.922732   -2.394907   -3.746330
     12          6           0        4.133318   -3.419018   -3.790102
     13          6           0        4.063804   -4.253729   -5.072202
     14          1           0        2.875730   -5.055855   -5.322046
     15          7           0        5.601125    1.593736   -1.312535
     16          6           0        5.907644    1.509214   -2.629421
     17          6           0        5.886845    2.895916   -3.142553
     18          6           0        5.730035    3.809995   -1.977235
     19          6           0        5.835801    2.880270   -0.881879
     20          6           0        5.959902    3.235244   -4.599697
     21          6           0        5.528928    5.288416   -1.867880
     22          8           0        5.649184    5.910925   -0.757657
     23          6           0        5.271152    6.011206   -3.126518
     24          7           0        6.112012    1.158024    1.639508
     25          6           0        6.259829    2.486713    1.598037
     26          6           0        6.456669    3.057319    2.971208
     27          6           0        6.169069    1.863177    3.991534
     28          6           0        5.922869    0.729941    2.965165
     29          6           0        7.843338    3.650098    3.257167
     30          6           0        5.099542    2.113971    5.084068
     31          6           0        3.734089    2.239785    4.446253
     32          7           0        5.332295   -1.644467    1.258856
     33          6           0        5.528755   -1.679171    2.646974
     34          6           0        5.446087   -3.092264    3.059772
     35          6           0        5.222320   -3.787608    1.873066
     36          6           0        5.194772   -2.869875    0.784352
     37          6           0        5.631125   -3.586676    4.381041
     38          6           0        5.024640   -5.094969    1.268429
     39          8           0        4.860245   -6.235674    1.703469
     40          6           0        5.144013   -4.939377   -0.311877
     41          6           0        3.978378   -5.662956   -0.929161
     42          8           0        2.811528   -5.250811   -0.768029
     43          8           0        4.433183   -6.577554   -1.799336
     44          6           0        3.326258   -7.311195   -2.469145
     45          1           0        6.708482    0.514691   -4.314864
     46          1           0        6.233296    4.219857    0.683131
     47          1           0        5.805250   -0.796686    4.436831
     48          1           0        6.066403   -4.265460   -3.240296
     49          1           0        6.085636   -1.943399   -4.838768
     50          1           0        8.157477   -3.256526   -3.121488
     51          1           0        8.340899   -1.485754   -3.313813
     52          1           0        8.353084   -2.477168   -4.744732
     53          1           0        3.842277   -2.446121   -4.186117
     54          1           0        3.409303   -3.802675   -3.070424
     55          1           0        4.964629   -4.853130   -5.206895
     56          1           0        4.061737   -3.572786   -5.923385
     57          1           0        6.237336    2.369109   -5.199184
     58          1           0        6.791178    3.928999   -4.723772
     59          1           0        5.039958    3.695527   -4.960494
     60          1           0        6.107229    5.855533   -3.808640
     61          1           0        5.064020    7.042746   -2.843903
     62          1           0        4.395836    5.576754   -3.610276
     63          1           0        5.754204    3.867513    3.162403
     64          1           0        7.060478    1.580456    4.552009
     65          1           0        7.816936    4.693272    3.573072
     66          1           0        8.453177    3.527740    2.362507
     67          1           0        8.430181    3.104602    3.995724
     68          1           0        5.299212    3.051405    5.602041
     69          1           0        5.056368    1.323609    5.833545
     70          1           0        3.704962    3.284106    4.137421
     71          1           0        2.952279    2.026503    5.175975
     72          1           0        3.658114    1.631209    3.544948
     73          1           0        4.847726   -4.327150    4.542145
     74          1           0        5.574503   -2.783845    5.115793
     75          1           0        6.632651   -4.008898    4.300237
     76          1           0        6.098117   -5.380198   -0.599077
     77          1           0        3.492120   -8.373902   -2.292008
     78          1           0        3.307982   -6.967459   -3.503513
     79          1           0        2.332802   -7.183270   -2.037845
     80         12           0       -5.052320    1.322671    0.408108
     81          6           0       -6.793424   -1.813320    0.293482
     82          6           0       -5.846322    1.713612   -2.886035
     83          6           0       -3.152167    3.863131    0.354034
     84          6           0       -3.457091    0.173483    3.285662
     85          7           0       -6.179073    0.046366   -1.003884
     86          6           0       -6.847099   -1.094173   -0.918699
     87          6           0       -7.681769   -1.446384   -2.179181
     88          6           0       -6.854590   -0.595196   -3.260903
     89          6           0       -6.281655    0.479879   -2.339696
     90          6           0       -5.696860   -1.364824   -3.874644
     91          6           0       -9.166298   -0.949912   -2.070971
     92          6           0      -10.115391   -1.525808   -3.124208
     93          1           0      -11.495703   -1.805872   -2.738518
     94          7           0       -4.963092    2.832578   -0.876736
     95          6           0       -5.349601    2.824696   -2.169722
     96          6           0       -5.059132    4.171772   -2.684684
     97          6           0       -4.318039    4.924871   -1.636660
     98          6           0       -4.092560    3.872856   -0.665824
     99          6           0       -5.545875    4.654896   -4.020009
    100          6           0       -3.873272    6.352259   -1.532025
    101          8           0       -3.035596    6.732826   -0.639682
    102          6           0       -4.375184    7.272569   -2.562854
    103          7           0       -3.373128    1.851237    1.514119
    104          6           0       -2.766292    3.036262    1.325998
    105          6           0       -1.758029    3.311894    2.415862
    106          6           0       -1.987887    2.170690    3.512408
    107          6           0       -3.076686    1.344390    2.793288
    108          6           0       -0.292463    3.312318    1.981665
    109          6           0       -2.256331    2.638226    4.969123
    110          6           0       -3.594073    3.337913    5.048355
    111          7           0       -5.225985   -0.400371    1.700005
    112          6           0       -4.441682   -0.697114    2.836176
    113          6           0       -4.857216   -2.031211    3.315699
    114          6           0       -5.846221   -2.431144    2.404430
    115          6           0       -6.019580   -1.426560    1.414345
    116          6           0       -4.300434   -2.726817    4.425762
    117          6           0       -6.775489   -3.479329    2.048792
    118          8           0       -7.134993   -4.534805    2.568865
    119          6           0       -7.340766   -3.181184    0.593474
    120          6           0       -8.835517   -3.344453    0.633319
    121          8           0       -9.537688   -2.573489    1.310955
    122          8           0       -9.205964   -4.240171   -0.299853
    123          6           0      -10.681254   -4.428066   -0.306596
    124          1           0       -5.844696    1.829123   -3.970250
    125          1           0       -2.546244    4.767567    0.445323
    126          1           0       -3.076627   -0.212487    4.233782
    127          1           0       -7.676533   -2.495682   -2.448864
    128          1           0       -7.514045   -0.150637   -4.001743
    129          1           0       -5.548703   -2.320554   -3.394248
    130          1           0       -4.824890   -0.737141   -3.745280
    131          1           0       -5.839895   -1.463145   -4.954553
    132          1           0       -9.208898    0.113146   -2.340862
    133          1           0       -9.559485   -1.135211   -1.090309
    134          1           0       -9.679538   -2.387144   -3.644879
    135          1           0      -10.255005   -0.779905   -3.910442
    136          1           0       -5.920611    3.827393   -4.634995
    137          1           0       -4.670300    5.023651   -4.565213
    138          1           0       -6.275533    5.463027   -3.935174
    139          1           0       -4.073170    6.914844   -3.544324
    140          1           0       -4.021088    8.262395   -2.268353
    141          1           0       -5.470613    7.254442   -2.544646
    142          1           0       -1.935747    4.278175    2.871731
    143          1           0       -1.109367    1.515998    3.609462
    144          1           0        0.231555    4.258412    2.214822
    145          1           0       -0.250831    3.106111    0.920398
    146          1           0        0.312514    2.508218    2.397155
    147          1           0       -1.504870    3.369563    5.276698
    148          1           0       -2.234714    1.830386    5.692947
    149          1           0       -3.359232    4.356637    4.725676
    150          1           0       -3.973603    3.324493    6.068076
    151          1           0       -4.301569    2.917596    4.324165
    152          1           0       -5.130161   -3.151488    4.975052
    153          1           0       -3.705318   -2.065143    5.051699
    154          1           0       -3.683461   -3.463723    3.904632
    155          1           0       -6.869966   -3.887099   -0.091810
    156          1           0      -10.867695   -5.497922   -0.171178
    157          1           0      -11.036428   -3.970178   -1.248901
    158          1           0      -11.243628   -4.009138    0.519652
 ---------------------------------------------------------------------

 SCF Done:  E(RCAM-B3LYP) =  -4069.81160478     A.U. after   19 cycles

 Excitation energies and oscillator strengths:

 Excited State   1:      Singlet-A      1.6566 eV  748.43 nm  f=0.0035  <S**2>=0.000
     309 -> 315       -0.11201
     310 -> 316        0.12664
     311 -> 313       -0.45376
     312 -> 314        0.51603
 This state for optimization and/or second-order correction.
 Total Energy, E(TD-HF/TD-DFT) =  -4069.75072591
 Copying the excited state density for this state as the 1-particle RhoCI density.

 Excited State   2:      Singlet-A      1.6973 eV  730.47 nm  f=0.7151  <S**2>=0.000
     309 -> 315        0.13530
     310 -> 316        0.11822
     311 -> 313        0.51412
     312 -> 314        0.45210

 Excited State   3:      Singlet-A      2.1833 eV  567.89 nm  f=0.0483  <S**2>=0.000
     309 -> 313       -0.23565
     310 -> 314        0.59922
     312 -> 316       -0.25191

 Excited State   4:      Singlet-A      2.1951 eV  564.83 nm  f=0.1392  <S**2>=0.000
     309 -> 313        0.59577
     310 -> 314        0.23254
     311 -> 315       -0.26091
     312 -> 316       -0.10376

 Excited State   5:      Singlet-A      2.4889 eV  498.16 nm  f=0.0000  <S**2>=0.000
     312 -> 313        0.70690

 The electronic state is 1-A.
 Alpha  occ. eigenvalues --  -46.87852 -46.87488 -19.26305 -19.26211 -19.19044
 Alpha  occ. eigenvalues --  -19.19016 -19.18810 -19.18576 -19.18199 -19.17868
 Alpha  occ. eigenvalues --  -14.42502 -14.42330 -14.41511 -14.41184 -14.39450
 Alpha  occ. eigenvalues --  -14.39185 -14.38641 -14.38420 -10.39105 -10.38942
 Alpha  occ. eigenvalues --  -10.35442 -10.35258 -10.34420 -10.34045 -10.31693
 Alpha  occ. eigenvalues --  -10.31635 -10.31461 -10.31137 -10.30952 -10.30872
 Alpha  occ. eigenvalues --  -10.30625 -10.30557 -10.30267 -10.30218 -10.30183
 Alpha  occ. eigenvalues --  -10.29984 -10.29975 -10.29706 -10.29675 -10.29300
 Alpha  occ. eigenvalues --  -10.29270 -10.29229 -10.28798 -10.28601 -10.28582
 Alpha  occ. eigenvalues --  -10.28556 -10.28407 -10.28238 -10.28168 -10.28000
 Alpha  occ. eigenvalues --  -10.27834 -10.27826 -10.27780 -10.27623 -10.27599
 Alpha  occ. eigenvalues --  -10.27529 -10.27515 -10.27508 -10.27451 -10.27365
 Alpha  occ. eigenvalues --  -10.27344 -10.27314 -10.27304 -10.27191 -10.27190
 Alpha  occ. eigenvalues --  -10.26875 -10.26760 -10.26574 -10.26372 -10.26346
 Alpha  occ. eigenvalues --  -10.26323 -10.26280 -10.26086 -10.26006 -10.25893
 Alpha  occ. eigenvalues --  -10.25884 -10.25756 -10.25595 -10.25493 -10.25180
 Alpha  occ. eigenvalues --  -10.24933 -10.24874 -10.24839 -10.24690 -10.24606
 Alpha  occ. eigenvalues --  -10.24515  -3.16596  -3.16238  -1.91477  -1.91120
 Alpha  occ. eigenvalues --   -1.91064  -1.90906  -1.90709  -1.90545  -1.16655
 Alpha  occ. eigenvalues --   -1.16503  -1.08656  -1.08474  -1.07207  -1.06831
 Alpha  occ. eigenvalues --   -1.06800  -1.06666  -1.04631  -1.04329  -1.03817
 Alpha  occ. eigenvalues --   -1.03493  -1.03285  -1.02863  -1.02465  -1.01936
 Alpha  occ. eigenvalues --   -0.92017  -0.91814  -0.89609  -0.89328  -0.89240
 Alpha  occ. eigenvalues --   -0.89008  -0.88370  -0.88050  -0.87917  -0.87727
 Alpha  occ. eigenvalues --   -0.87594  -0.87518  -0.87300  -0.86981  -0.85032
 Alpha  occ. eigenvalues --   -0.84853  -0.84035  -0.83709  -0.82995  -0.82801
 Alpha  occ. eigenvalues --   -0.82689  -0.82511  -0.81626  -0.81439  -0.80637
 Alpha  occ. eigenvalues --   -0.80286  -0.78835  -0.78477  -0.77286  -0.76993
 Alpha  occ. eigenvalues --   -0.76990  -0.76746  -0.75970  -0.75687  -0.74968
 Alpha  occ. eigenvalues --   -0.74626  -0.72830  -0.72522  -0.71724  -0.71411
 Alpha  occ. eigenvalues --   -0.70032  -0.69602  -0.68920  -0.68681  -0.67683
 Alpha  occ. eigenvalues --   -0.67438  -0.67260  -0.67067  -0.65340  -0.65123
 Alpha  occ. eigenvalues --   -0.64908  -0.64679  -0.64606  -0.64500  -0.64349
 Alpha  occ. eigenvalues --   -0.64039  -0.62339  -0.62125  -0.60483  -0.60187
 Alpha  occ. eigenvalues --   -0.59853  -0.59642  -0.59042  -0.58823  -0.58555
 Alpha  occ. eigenvalues --   -0.58260  -0.57622  -0.57384  -0.57363  -0.57072
 Alpha  occ. eigenvalues --   -0.56352  -0.56039  -0.56013  -0.55743  -0.55552
 Alpha  occ. eigenvalues --   -0.55412  -0.55305  -0.55078  -0.54589  -0.54329
 Alpha  occ. eigenvalues --   -0.53945  -0.53771  -0.53347  -0.53253  -0.53070
 Alpha  occ. eigenvalues --   -0.52993  -0.52967  -0.52784  -0.52753  -0.52565
 Alpha  occ. eigenvalues --   -0.52546  -0.52257  -0.51963  -0.51660  -0.51654
 Alpha  occ. eigenvalues --   -0.51521  -0.51255  -0.51035  -0.50592  -0.50355
 Alpha  occ. eigenvalues --   -0.50122  -0.49947  -0.49837  -0.49702  -0.49547
 Alpha  occ. eigenvalues --   -0.49346  -0.49252  -0.49141  -0.49049  -0.48942
 Alpha  occ. eigenvalues --   -0.48638  -0.48518  -0.48460  -0.48397  -0.48197
 Alpha  occ. eigenvalues --   -0.48194  -0.47745  -0.47450  -0.47339  -0.46964
 Alpha  occ. eigenvalues --   -0.46867  -0.46602  -0.46547  -0.46417  -0.46412
 Alpha  occ. eigenvalues --   -0.46218  -0.46106  -0.45902  -0.45866  -0.45644
 Alpha  occ. eigenvalues --   -0.45276  -0.45032  -0.44625  -0.44556  -0.44362
 Alpha  occ. eigenvalues --   -0.44316  -0.44220  -0.44133  -0.44049  -0.43976
 Alpha  occ. eigenvalues --   -0.43925  -0.43790  -0.43540  -0.43443  -0.43399
 Alpha  occ. eigenvalues --   -0.43226  -0.43082  -0.42788  -0.42777  -0.42729
 Alpha  occ. eigenvalues --   -0.42709  -0.42396  -0.42098  -0.41814  -0.41753
 Alpha  occ. eigenvalues --   -0.41589  -0.41501  -0.41314  -0.41191  -0.40943
 Alpha  occ. eigenvalues --   -0.40834  -0.40825  -0.40651  -0.40591  -0.40560
 Alpha  occ. eigenvalues --   -0.40330  -0.40281  -0.40103  -0.39581  -0.39272
 Alpha  occ. eigenvalues --   -0.38550  -0.38180  -0.37803  -0.37519  -0.37395
 Alpha  occ. eigenvalues --   -0.37313  -0.37101  -0.37046  -0.36757  -0.36622
 Alpha  occ. eigenvalues --   -0.36247  -0.36055  -0.34339  -0.34082  -0.33799
 Alpha  occ. eigenvalues --   -0.33712  -0.33237  -0.33004  -0.31344  -0.31134
 Alpha  occ. eigenvalues --   -0.31083  -0.30805  -0.30059  -0.29772  -0.29485
 Alpha  occ. eigenvalues --   -0.29366  -0.29167  -0.29025  -0.24134  -0.23861
 Alpha  occ. eigenvalues --   -0.21181  -0.20946
 Alpha virt. eigenvalues --   -0.08819  -0.08621  -0.01801  -0.01517  -0.00082
 Alpha virt. eigenvalues --    0.00122   0.02158   0.02390   0.02920   0.03388
 Alpha virt. eigenvalues --    0.04661   0.04888   0.05071   0.05316   0.06114

 Mulliken charges:
               1
     1  Mg   0.838032
     2  C   -0.002801
     3  C   -0.094129
     4  C   -0.045841
     5  C   -0.064408
     6  N   -0.256720
     7  C   -0.052572
     8  C   -0.013981
     9  C   -0.087016
    10  C    0.046368
    11  C    0.104789
    12  C    0.053541
    13  C   -0.071678
    14  H    0.035854
    15  N   -0.433325
    16  C    0.168618
    17  C   -0.177019
    18  C   -0.003556
    19  C    0.148907
    20  C    0.110234
    21  C    0.013274
    22  O   -0.249024
    23  C    0.062201
    24  N   -0.341019
    25  C    0.041034
    26  C   -0.028373
    27  C   -0.024051
    28  C    0.074272
    29  C    0.076074
    30  C    0.036242
    31  C   -0.007504
    32  N   -0.310404
    33  C    0.079847
    34  C   -0.170131
    35  C    0.008490
    36  C    0.082721
    37  C    0.127356
    38  C    0.046146
    39  O   -0.188049
    40  C   -0.005380
    41  C    0.212978
    42  O   -0.257053
    43  O   -0.304824
    44  C    0.157540
    45  H   -0.017526
    46  H   -0.016508
    47  H   -0.041826
    48  H    0.001076
    49  H   -0.004159
    50  H    0.025615
    51  H    0.016514
    52  H    0.016699
    53  H    0.010963
    54  H    0.044216
    55  H    0.018067
    56  H    0.017670
    57  H    0.005643
    58  H    0.027015
    59  H    0.039708
    60  H    0.036832
    61  H    0.036723
    62  H    0.032037
    63  H    0.016506
    64  H    0.009825
    65  H    0.023543
    66  H    0.012839
    67  H    0.004849
    68  H    0.006770
    69  H    0.004681
    70  H    0.009689
    71  H    0.016244
    72  H    0.029587
    73  H    0.047601
    74  H    0.008655
    75  H    0.046254
    76  H    0.035271
    77  H    0.043269
    78  H    0.046124
    79  H    0.054021
    80  Mg   0.838236
    81  C   -0.016755
    82  C   -0.088158
    83  C   -0.045881
    84  C   -0.063302
    85  N   -0.254536
    86  C   -0.049448
    87  C   -0.015084
    88  C   -0.090604
    89  C    0.045869
    90  C    0.114498
    91  C    0.062600
    92  C   -0.077624
    93  H    0.034518
    94  N   -0.423298
    95  C    0.162757
    96  C   -0.175466
    97  C   -0.008195
    98  C    0.151874
    99  C    0.099784
   100  C    0.014973
   101  O   -0.253000
   102  C    0.061363
   103  N   -0.349839
   104  C    0.037444
   105  C   -0.020339
   106  C   -0.034935
   107  C    0.089056
   108  C    0.072797
   109  C    0.034519
   110  C   -0.007511
   111  N   -0.324406
   112  C    0.078796
   113  C   -0.161878
   114  C    0.002704
   115  C    0.096447
   116  C    0.131285
   117  C    0.043041
   118  O   -0.187527
   119  C    0.000681
   120  C    0.211134
   121  O   -0.251297
   122  O   -0.305517
   123  C    0.152139
   124  H   -0.020623
   125  H   -0.015381
   126  H   -0.040020
   127  H   -0.000647
   128  H   -0.004942
   129  H    0.023216
   130  H    0.014526
   131  H    0.015223
   132  H    0.013760
   133  H    0.037664
   134  H    0.020660
   135  H    0.019242
   136  H    0.008257
   137  H    0.024877
   138  H    0.039315
   139  H    0.037376
   140  H    0.036110
   141  H    0.033760
   142  H    0.014106
   143  H    0.013456
   144  H    0.026777
   145  H    0.011164
   146  H    0.006626
   147  H    0.005620
   148  H    0.003329
   149  H    0.010861
   150  H    0.017439
   151  H    0.030245
   152  H    0.045471
   153  H    0.008120
   154  H    0.050226
   155  H    0.035720
   156  H    0.043817
   157  H    0.049190
   158  H    0.053401
 Sum of Mulliken charges =  -0.00000

 Dipole moment (field-independent basis, Debye):
    X=              2.8346    Y=              2.9122    Z=             -7.8359  Tot=              8.8271
 Quadrupole moment (field-independent basis, Debye-Ang):
   XX=           -494.7052   YY=           -560.2905   ZZ=           -447.4761
   XY=            -11.6722   XZ=             28.4838   YZ=             19.9844

 Normal termination of Gaussian 16 at Fri Sep 10 23:24:21 2021.
