 Gaussian 16, Revision A.03,
 Gaussian 16:  ES64L-G16RevA.03 25-Dec-2016

 -----------------------------------
 #p cam-b3lyp/Def2SVP td=(nstates=5)
 -----------------------------------

 --------------------------------
 TDDFT excited states in gaussian
 --------------------------------
 Symbolic Z-matrix:
 Charge =  0 Multiplicity = 1

                         Standard orientation:
 ---------------------------------------------------------------------
 Center     Atomic      Atomic             Coordinates (Angstroms)
 Number     Number       Type             X           Y           Z
 ---------------------------------------------------------------------
      1         12           0       -5.181249    0.631360    0.542986
      2          6           0       -5.651652   -2.138602   -1.674726
      3          6           0       -5.759855   -1.526762    3.121899
      4          6           0       -5.220780    3.136408    2.487155
      5          6           0       -5.764480    2.722899   -2.182994
      6          7           0       -5.634871   -1.534888    0.590346
      7          6           0       -5.728302   -2.493353   -0.326052
      8          6           0       -5.839887   -3.922615    0.283973
      9          6           0       -6.427882   -3.540026    1.715715
     10          6           0       -5.879775   -2.128834    1.834203
     11          6           0       -7.951542   -3.479851    1.752360
     12          6           0       -4.446945   -4.627219    0.406354
     13          6           0       -4.498251   -6.132525    0.683439
     14          1           0       -3.487337   -6.989917    0.083206
     15          7           0       -4.968699    0.734363    2.504380
     16          6           0       -5.235746   -0.245918    3.400495
     17          6           0       -4.916792    0.318770    4.729433
     18          6           0       -4.623552    1.767830    4.549634
     19          6           0       -4.955790    1.945483    3.159154
     20          6           0       -4.864689   -0.502116    5.981305
     21          6           0       -4.133281    2.827042    5.485496
     22          8           0       -4.167829    4.069241    5.184961
     23          6           0       -3.687710    2.373552    6.815480
     24          7           0       -5.668508    2.641305    0.259554
     25          6           0       -5.544175    3.528211    1.252994
     26          6           0       -5.674112    4.934850    0.748592
     27          6           0       -5.671699    4.835002   -0.845076
     28          6           0       -5.619860    3.293561   -0.984871
     29          6           0       -6.922920    5.698674    1.210180
     30          6           0       -4.615839    5.680083   -1.600995
     31          6           0       -3.229803    5.149973   -1.309472
     32          7           0       -5.454964    0.378375   -1.595266
     33          6           0       -5.706935    1.385544   -2.538024
     34          6           0       -5.926118    0.718543   -3.834611
     35          6           0       -5.802011   -0.640121   -3.550932
     36          6           0       -5.548999   -0.812377   -2.160031
     37          6           0       -6.256902    1.364261   -5.058565
     38          6           0       -5.848720   -1.987689   -4.094748
     39          8           0       -5.933927   -2.462985   -5.228029
     40          6           0       -5.874259   -3.017474   -2.880369
     41          6           0       -4.855551   -4.086175   -3.169197
     42          8           0       -3.636600   -3.819467   -3.188976
     43          8           0       -5.451774   -5.287949   -3.140923
     44          6           0       -4.490563   -6.395115   -3.390744
     45          1           0       -6.155807   -2.055900    3.990908
     46          1           0       -5.134627    4.035087    3.101478
     47          1           0       -5.867879    3.315274   -3.093957
     48          1           0       -6.530288   -4.586402   -0.236755
     49          1           0       -6.021049   -4.172056    2.504858
     50          1           0       -8.378456   -3.583649    0.754918
     51          1           0       -8.194264   -2.502769    2.170558
     52          1           0       -8.351429   -4.213365    2.452950
     53          1           0       -3.951217   -4.287950    1.315865
     54          1           0       -3.842823   -4.444739   -0.483063
     55          1           0       -5.495512   -6.536525    0.506908
     56          1           0       -4.326857   -6.289816    1.748372
     57          1           0       -5.287823   -1.494036    5.827692
     58          1           0       -5.533990   -0.029611    6.699973
     59          1           0       -3.857908   -0.554646    6.395991
     60          1           0       -4.511503    1.865262    7.317033
     61          1           0       -3.288067    3.255110    7.315470
     62          1           0       -2.900037    1.630154    6.689468
     63          1           0       -4.830721    5.544852    1.069553
     64          1           0       -6.622389    5.149835   -1.276054
     65          1           0       -6.699097    6.632410    1.726653
     66          1           0       -7.510498    5.033340    1.842140
     67          1           0       -7.635153    5.930949    0.418858
     68          1           0       -4.642248    6.714144   -1.258990
     69          1           0       -4.761115    5.684261   -2.681332
     70          1           0       -2.979368    5.630142   -0.364193
     71          1           0       -2.535197    5.448809   -2.095240
     72          1           0       -3.243722    4.073978   -1.134750
     73          1           0       -5.645272    0.892324   -5.827431
     74          1           0       -6.067775    2.436134   -5.004503
     75          1           0       -7.319112    1.130719   -5.129441
     76          1           0       -6.885961   -3.418899   -2.831001
     77          1           0       -4.873536   -6.968253   -4.235184
     78          1           0       -4.364223   -6.915907   -2.441419
     79          1           0       -3.508793   -6.105424   -3.766970
     80         12           0        5.336809    0.619400   -0.695847
     81          6           0        5.361322   -2.365450    1.296410
     82          6           0        4.797522    2.360435    2.187300
     83          6           0        4.861527    3.209492   -2.465870
     84          6           0        4.736301   -1.403287   -3.469635
     85          7           0        5.126215   -0.030638    1.407805
     86          6           0        5.215096   -1.184017    2.052903
     87          6           0        5.223814   -1.056707    3.599924
     88          6           0        4.475932    0.358534    3.728947
     89          6           0        4.847403    0.955786    2.373227
     90          6           0        2.962850    0.235518    3.798248
     91          6           0        6.677853   -0.993562    4.186279
     92          6           0        6.768499   -1.179959    5.702456
     93          1           0        7.921427   -1.890499    6.248675
     94          7           0        5.381964    2.540312   -0.199230
     95          6           0        5.162069    3.070385    1.022214
     96          6           0        5.290201    4.526660    0.857818
     97          6           0        5.440756    4.823515   -0.592673
     98          6           0        5.207976    3.508913   -1.156337
     99          6           0        5.342849    5.475233    2.020072
    100          6           0        5.731775    6.084678   -1.348303
    101          8           0        5.582195    6.157942   -2.619163
    102          6           0        6.107166    7.257954   -0.545806
    103          7           0        4.658147    0.892170   -2.641969
    104          6           0        4.595522    2.119937   -3.186576
    105          6           0        4.344315    2.044825   -4.673736
    106          6           0        4.492607    0.499283   -5.056986
    107          6           0        4.726097   -0.089464   -3.648344
    108          6           0        2.983749    2.557551   -5.145299
    109          6           0        5.503791    0.147103   -6.182209
    110          6           0        6.913929    0.428107   -5.715384
    111          7           0        5.272037   -1.504419   -1.087331
    112          6           0        4.977033   -2.136872   -2.314956
    113          6           0        4.940913   -3.591183   -2.057833
    114          6           0        5.196696   -3.703446   -0.682893
    115          6           0        5.359334   -2.409284   -0.118793
    116          6           0        4.649229   -4.599032   -3.019743
    117          6           0        5.355575   -4.621918    0.421580
    118          8           0        5.409345   -5.846063    0.532540
    119          6           0        5.343860   -3.790313    1.776084
    120          6           0        6.497486   -4.259876    2.619402
    121          8           0        7.669452   -4.071381    2.248481
    122          8           0        6.033966   -4.656159    3.818767
    123          6           0        7.142356   -5.120445    4.694964
    124          1           0        4.402110    2.976986    2.995007
    125          1           0        4.794484    4.064138   -3.143040
    126          1           0        4.652502   -2.106205   -4.301223
    127          1           0        4.662878   -1.822625    4.121925
    128          1           0        4.894642    0.954445    4.535755
    129          1           0        2.632980   -0.778856    3.629834
    130          1           0        2.578817    0.891114    3.027696
    131          1           0        2.595027    0.637350    4.746698
    132          1           0        7.054231    0.033924    4.100466
    133          1           0        7.317361   -1.701754    3.696270
    134          1           0        5.837269   -1.575963    6.125474
    135          1           0        6.877165   -0.196919    6.167052
    136          1           0        5.041892    4.984399    2.953839
    137          1           0        4.569961    6.232575    1.849969
    138          1           0        6.310476    5.972733    2.114241
    139          1           0        5.309891    7.483992    0.158260
    140          1           0        6.362837    8.036056   -1.267649
    141          1           0        6.991303    7.005756    0.050276
    142          1           0        5.085296    2.615104   -5.220389
    143          1           0        3.544438    0.076929   -5.420896
    144          1           0        3.058544    3.362991   -5.900112
    145          1           0        2.428538    2.896822   -4.280912
    146          1           0        2.323039    1.798700   -5.560995
    147          1           0        5.334001    0.781018   -7.055985
    148          1           0        5.438521   -0.883582   -6.514524
    149          1           0        7.025866    1.500702   -5.900016
    150          1           0        7.631508   -0.149165   -6.294943
    151          1           0        7.010234    0.267736   -4.635262
    152          1           0        5.362981   -5.396507   -2.861329
    153          1           0        4.706174   -4.209113   -4.033886
    154          1           0        3.624522   -4.850896   -2.733738
    155          1           0        4.383244   -3.967786    2.261157
    156          1           0        6.893025   -6.137207    5.013885
    157          1           0        7.238702   -4.353641    5.486466
    158          1           0        8.112418   -5.274332    4.236995
 ---------------------------------------------------------------------

 SCF Done:  E(RCAM-B3LYP) =  -4069.81196092     A.U. after   19 cycles

 Excitation energies and oscillator strengths:

 Excited State   1:      Singlet-A      1.6689 eV  742.91 nm  f=0.2588  <S**2>=0.000
     309 -> 315       -0.10362
     310 -> 316        0.13738
     311 -> 313        0.41204
     312 -> 314        0.54868
 This state for optimization and/or second-order correction.
 Total Energy, E(TD-HF/TD-DFT) =  -4069.75062980
 Copying the excited state density for this state as the 1-particle RhoCI density.

 Excited State   2:      Singlet-A      1.6820 eV  737.11 nm  f=0.4420  <S**2>=0.000
     309 -> 315       -0.14034
     310 -> 316       -0.10566
     311 -> 313        0.54802
     312 -> 314       -0.41175

 Excited State   3:      Singlet-A      2.1852 eV  567.37 nm  f=0.0946  <S**2>=0.000
     310 -> 314        0.63839
     312 -> 316       -0.27118

 Excited State   4:      Singlet-A      2.1910 eV  565.88 nm  f=0.1028  <S**2>=0.000
     309 -> 313        0.63679
     311 -> 315        0.27525

 Excited State   5:      Singlet-A      2.4855 eV  498.83 nm  f=0.0000  <S**2>=0.000
     312 -> 313        0.70709

 The electronic state is 1-A.
 Alpha  occ. eigenvalues --  -46.87878 -46.87503 -19.26311 -19.26306 -19.19100
 Alpha  occ. eigenvalues --  -19.19057 -19.18961 -19.18582 -19.18247 -19.17934
 Alpha  occ. eigenvalues --  -14.42524 -14.42351 -14.41529 -14.41191 -14.39492
 Alpha  occ. eigenvalues --  -14.39199 -14.38668 -14.38441 -10.39118 -10.39026
 Alpha  occ. eigenvalues --  -10.35597 -10.35261 -10.34463 -10.34113 -10.31744
 Alpha  occ. eigenvalues --  -10.31674 -10.31469 -10.31168 -10.30983 -10.30897
 Alpha  occ. eigenvalues --  -10.30647 -10.30596 -10.30295 -10.30237 -10.30204
 Alpha  occ. eigenvalues --  -10.30000 -10.29961 -10.29723 -10.29718 -10.29348
 Alpha  occ. eigenvalues --  -10.29274 -10.29245 -10.28781 -10.28642 -10.28631
 Alpha  occ. eigenvalues --  -10.28494 -10.28450 -10.28262 -10.28156 -10.28054
 Alpha  occ. eigenvalues --  -10.27882 -10.27849 -10.27802 -10.27684 -10.27595
 Alpha  occ. eigenvalues --  -10.27574 -10.27531 -10.27520 -10.27478 -10.27342
 Alpha  occ. eigenvalues --  -10.27324 -10.27314 -10.27294 -10.27217 -10.27171
 Alpha  occ. eigenvalues --  -10.26952 -10.26706 -10.26634 -10.26603 -10.26301
 Alpha  occ. eigenvalues --  -10.26272 -10.26243 -10.26099 -10.25964 -10.25933
 Alpha  occ. eigenvalues --  -10.25923 -10.25751 -10.25642 -10.25515 -10.25161
 Alpha  occ. eigenvalues --  -10.24919 -10.24874 -10.24740 -10.24720 -10.24556
 Alpha  occ. eigenvalues --  -10.24531  -3.16621  -3.16253  -1.91503  -1.91135
 Alpha  occ. eigenvalues --   -1.91089  -1.90932  -1.90724  -1.90561  -1.16658
 Alpha  occ. eigenvalues --   -1.16599  -1.08700  -1.08548  -1.07366  -1.06885
 Alpha  occ. eigenvalues --   -1.06836  -1.06679  -1.04655  -1.04354  -1.03841
 Alpha  occ. eigenvalues --   -1.03508  -1.03319  -1.02873  -1.02494  -1.01951
 Alpha  occ. eigenvalues --   -0.92045  -0.91851  -0.89595  -0.89320  -0.89227
 Alpha  occ. eigenvalues --   -0.89057  -0.88363  -0.88036  -0.87953  -0.87741
 Alpha  occ. eigenvalues --   -0.87626  -0.87536  -0.87389  -0.86976  -0.85032
 Alpha  occ. eigenvalues --   -0.84893  -0.84007  -0.83698  -0.83098  -0.82788
 Alpha  occ. eigenvalues --   -0.82711  -0.82542  -0.81635  -0.81493  -0.80667
 Alpha  occ. eigenvalues --   -0.80321  -0.78896  -0.78484  -0.77285  -0.77017
 Alpha  occ. eigenvalues --   -0.76976  -0.76778  -0.75974  -0.75732  -0.74969
 Alpha  occ. eigenvalues --   -0.74631  -0.72853  -0.72540  -0.71741  -0.71436
 Alpha  occ. eigenvalues --   -0.69975  -0.69572  -0.68934  -0.68716  -0.67726
 Alpha  occ. eigenvalues --   -0.67462  -0.67272  -0.67100  -0.65334  -0.65168
 Alpha  occ. eigenvalues --   -0.64921  -0.64680  -0.64629  -0.64533  -0.64343
 Alpha  occ. eigenvalues --   -0.64031  -0.62344  -0.62175  -0.60546  -0.60185
 Alpha  occ. eigenvalues --   -0.59860  -0.59684  -0.59061  -0.58843  -0.58579
 Alpha  occ. eigenvalues --   -0.58285  -0.57646  -0.57448  -0.57388  -0.57081
 Alpha  occ. eigenvalues --   -0.56394  -0.56063  -0.56016  -0.55799  -0.55615
 Alpha  occ. eigenvalues --   -0.55403  -0.55336  -0.55095  -0.54578  -0.54349
 Alpha  occ. eigenvalues --   -0.53936  -0.53820  -0.53395  -0.53294  -0.53082
 Alpha  occ. eigenvalues --   -0.53027  -0.52983  -0.52849  -0.52792  -0.52550
 Alpha  occ. eigenvalues --   -0.52505  -0.52222  -0.51995  -0.51702  -0.51677
 Alpha  occ. eigenvalues --   -0.51558  -0.51260  -0.51067  -0.50706  -0.50338
 Alpha  occ. eigenvalues --   -0.50107  -0.50022  -0.49861  -0.49690  -0.49590
 Alpha  occ. eigenvalues --   -0.49369  -0.49295  -0.49146  -0.49088  -0.48991
 Alpha  occ. eigenvalues --   -0.48652  -0.48572  -0.48523  -0.48446  -0.48223
 Alpha  occ. eigenvalues --   -0.48193  -0.47769  -0.47466  -0.47380  -0.46969
 Alpha  occ. eigenvalues --   -0.46865  -0.46600  -0.46565  -0.46445  -0.46437
 Alpha  occ. eigenvalues --   -0.46232  -0.46115  -0.45923  -0.45877  -0.45696
 Alpha  occ. eigenvalues --   -0.45277  -0.45034  -0.44650  -0.44591  -0.44406
 Alpha  occ. eigenvalues --   -0.44349  -0.44225  -0.44139  -0.44097  -0.44012
 Alpha  occ. eigenvalues --   -0.43928  -0.43820  -0.43551  -0.43450  -0.43447
 Alpha  occ. eigenvalues --   -0.43259  -0.43097  -0.42843  -0.42760  -0.42759
 Alpha  occ. eigenvalues --   -0.42700  -0.42385  -0.42068  -0.41823  -0.41777
 Alpha  occ. eigenvalues --   -0.41577  -0.41538  -0.41342  -0.41208  -0.40957
 Alpha  occ. eigenvalues --   -0.40906  -0.40858  -0.40637  -0.40610  -0.40584
 Alpha  occ. eigenvalues --   -0.40322  -0.40256  -0.40150  -0.39506  -0.39237
 Alpha  occ. eigenvalues --   -0.38534  -0.38181  -0.37778  -0.37565  -0.37393
 Alpha  occ. eigenvalues --   -0.37310  -0.37105  -0.37072  -0.36759  -0.36689
 Alpha  occ. eigenvalues --   -0.36247  -0.36070  -0.34364  -0.34103  -0.33818
 Alpha  occ. eigenvalues --   -0.33783  -0.33265  -0.33019  -0.31488  -0.31140
 Alpha  occ. eigenvalues --   -0.31115  -0.30826  -0.30103  -0.29841  -0.29550
 Alpha  occ. eigenvalues --   -0.29409  -0.29177  -0.29055  -0.24159  -0.23879
 Alpha  occ. eigenvalues --   -0.21210  -0.20960
 Alpha virt. eigenvalues --   -0.08863  -0.08638  -0.01836  -0.01525  -0.00164
 Alpha virt. eigenvalues --    0.00105   0.02117   0.02353   0.03023   0.03376
 Alpha virt. eigenvalues --    0.04666   0.04860   0.05056   0.05235   0.06172

 Mulliken charges:
               1
     1  Mg   0.838668
     2  C   -0.002861
     3  C   -0.094001
     4  C   -0.046211
     5  C   -0.063970
     6  N   -0.256850
     7  C   -0.052161
     8  C   -0.013995
     9  C   -0.087004
    10  C    0.046338
    11  C    0.104777
    12  C    0.053396
    13  C   -0.072544
    14  H    0.038086
    15  N   -0.433044
    16  C    0.168160
    17  C   -0.177384
    18  C   -0.004547
    19  C    0.148574
    20  C    0.110169
    21  C    0.011424
    22  O   -0.250103
    23  C    0.062880
    24  N   -0.341193
    25  C    0.041339
    26  C   -0.028075
    27  C   -0.024064
    28  C    0.075056
    29  C    0.076171
    30  C    0.035096
    31  C   -0.004515
    32  N   -0.310520
    33  C    0.080609
    34  C   -0.169779
    35  C    0.008374
    36  C    0.083073
    37  C    0.127332
    38  C    0.046035
    39  O   -0.188228
    40  C   -0.005241
    41  C    0.212915
    42  O   -0.257250
    43  O   -0.304763
    44  C    0.157620
    45  H   -0.017444
    46  H   -0.017200
    47  H   -0.041284
    48  H    0.001153
    49  H   -0.003721
    50  H    0.025536
    51  H    0.016266
    52  H    0.016906
    53  H    0.011149
    54  H    0.044255
    55  H    0.017710
    56  H    0.018194
    57  H    0.006334
    58  H    0.026853
    59  H    0.038581
    60  H    0.037980
    61  H    0.034756
    62  H    0.030136
    63  H    0.016118
    64  H    0.009625
    65  H    0.023020
    66  H    0.012573
    67  H    0.004962
    68  H    0.006432
    69  H    0.005019
    70  H    0.008081
    71  H    0.019366
    72  H    0.028721
    73  H    0.047397
    74  H    0.009294
    75  H    0.046274
    76  H    0.035397
    77  H    0.043054
    78  H    0.047049
    79  H    0.053666
    80  Mg   0.838283
    81  C   -0.017063
    82  C   -0.088021
    83  C   -0.045459
    84  C   -0.062736
    85  N   -0.254503
    86  C   -0.049898
    87  C   -0.015017
    88  C   -0.090520
    89  C    0.045610
    90  C    0.114546
    91  C    0.062633
    92  C   -0.077541
    93  H    0.034481
    94  N   -0.423463
    95  C    0.162759
    96  C   -0.174612
    97  C   -0.008018
    98  C    0.152154
    99  C    0.099375
   100  C    0.015339
   101  O   -0.253472
   102  C    0.061263
   103  N   -0.349913
   104  C    0.037867
   105  C   -0.020114
   106  C   -0.035303
   107  C    0.088950
   108  C    0.073216
   109  C    0.034628
   110  C   -0.007588
   111  N   -0.324249
   112  C    0.078398
   113  C   -0.162010
   114  C    0.002060
   115  C    0.096487
   116  C    0.131393
   117  C    0.042424
   118  O   -0.188745
   119  C    0.000867
   120  C    0.211127
   121  O   -0.250989
   122  O   -0.305942
   123  C    0.152151
   124  H   -0.019661
   125  H   -0.015759
   126  H   -0.039314
   127  H   -0.001674
   128  H   -0.004712
   129  H    0.021709
   130  H    0.015618
   131  H    0.014798
   132  H    0.014095
   133  H    0.037664
   134  H    0.019926
   135  H    0.019511
   136  H    0.008717
   137  H    0.026337
   138  H    0.039312
   139  H    0.038252
   140  H    0.035976
   141  H    0.033737
   142  H    0.013895
   143  H    0.015090
   144  H    0.024215
   145  H    0.011535
   146  H    0.008142
   147  H    0.006313
   148  H    0.004122
   149  H    0.010601
   150  H    0.017576
   151  H    0.029757
   152  H    0.045084
   153  H    0.008985
   154  H    0.048908
   155  H    0.034275
   156  H    0.043303
   157  H    0.049220
   158  H    0.053614
 Sum of Mulliken charges =  -0.00000

 Dipole moment (field-independent basis, Debye):
    X=             -3.3546    Y=              1.8313    Z=              6.3730  Tot=              7.4312
 Quadrupole moment (field-independent basis, Debye-Ang):
   XX=           -519.3529   YY=           -515.0072   ZZ=           -484.1477
   XY=             27.2607   XZ=             -4.3869   YZ=            -14.9679

 Normal termination of Gaussian 16 at Fri Sep 10 19:19:31 2021.
