 Gaussian 16, Revision A.03,
 Gaussian 16:  ES64L-G16RevA.03 25-Dec-2016

 -----------------------------------
 #p cam-b3lyp/Def2SVP td=(nstates=5)
 -----------------------------------

 --------------------------------
 TDDFT excited states in gaussian
 --------------------------------
 Symbolic Z-matrix:
 Charge =  0 Multiplicity = 1

                         Standard orientation:
 ---------------------------------------------------------------------
 Center     Atomic      Atomic             Coordinates (Angstroms)
 Number     Number       Type             X           Y           Z
 ---------------------------------------------------------------------
      1         12           0        7.674781    0.665273    0.118750
      2          6           0        8.009476   -2.487015   -1.543560
      3          6           0        8.583684    2.142863   -2.819564
      4          6           0        7.828142    3.422231    1.678328
      5          6           0        7.908350   -1.066856    3.133851
      6          7           0        8.202671   -0.172475   -1.861189
      7          6           0        8.234411   -1.394346   -2.383871
      8          6           0        8.454831   -1.401022   -3.926189
      9          6           0        9.172092    0.014111   -4.084094
     10          6           0        8.592211    0.717216   -2.869473
     11          6           0       10.688750   -0.051654   -3.936022
     12          6           0        7.105722   -1.451182   -4.719361
     13          6           0        7.234936   -1.788062   -6.207705
     14          1           0        6.197388   -2.591462   -6.836506
     15          7           0        7.659151    2.521797   -0.556471
     16          6           0        8.048254    2.940081   -1.784853
     17          6           0        7.847262    4.405031   -1.799178
     18          6           0        7.489247    4.828728   -0.417006
     19          6           0        7.672506    3.595693    0.305086
     20          6           0        7.949858    5.237536   -3.040209
     21          6           0        7.061563    6.139728    0.163079
     22          8           0        7.024083    6.345589    1.424344
     23          6           0        6.768652    7.218857   -0.797507
     24          7           0        8.063620    1.149668    2.111688
     25          6           0        8.011357    2.416800    2.536691
     26          6           0        8.042552    2.492075    4.034456
     27          6           0        7.881678    0.991434    4.555943
     28          6           0        7.867215    0.266367    3.187608
     29          6           0        9.305669    3.112631    4.647202
     30          6           0        6.727006    0.712637    5.550641
     31          6           0        5.396132    0.885113    4.853414
     32          7           0        7.738260   -1.416898    0.728325
     33          6           0        7.859575   -1.909329    2.035791
     34          6           0        7.968054   -3.376450    1.936512
     35          6           0        7.918650   -3.635962    0.568280
     36          6           0        7.814027   -2.406824   -0.143453
     37          6           0        8.151205   -4.274112    3.025131
     38          6           0        7.954704   -4.663999   -0.459191
     39          8           0        7.940178   -5.895769   -0.454313
     40          6           0        8.137640   -3.953596   -1.872587
     41          6           0        7.130987   -4.553099   -2.816279
     42          8           0        5.908132   -4.368979   -2.648669
     43          8           0        7.766643   -5.043805   -3.891310
     44          6           0        6.822397   -5.627159   -4.881387
     45          1           0        9.083195    2.701789   -3.613309
     46          1           0        7.774959    4.343103    2.262797
     47          1           0        7.898968   -1.679871    4.036945
     48          1           0        9.110493   -2.193170   -4.288174
     49          1           0        8.868727    0.524380   -4.998051
     50          1           0       11.015408   -1.041519   -3.617615
     51          1           0       10.940040    0.693363   -3.180842
     52          1           0       11.181874    0.272775   -4.852729
     53          1           0        6.693884   -0.444620   -4.792045
     54          1           0        6.408690   -2.147208   -4.251365
     55          1           0        8.222006   -2.187919   -6.441622
     56          1           0        7.177872   -0.858685   -6.774453
     57          1           0        8.387969    4.675760   -3.864231
     58          1           0        8.672574    6.027055   -2.835146
     59          1           0        6.992687    5.678625   -3.318772
     60          1           0        7.655557    7.414344   -1.400611
     61          1           0        6.392734    8.053449   -0.206751
     62          1           0        5.997422    6.876918   -1.488325
     63          1           0        7.216284    3.092335    4.413129
     64          1           0        8.772700    0.642194    5.078231
     65          1           0        9.104503    3.968512    5.291954
     66          1           0        9.976174    3.385556    3.832815
     67          1           0        9.925760    2.419877    5.215529
     68          1           0        6.753591    1.427416    6.372425
     69          1           0        6.761631   -0.288463    5.980584
     70          1           0        5.227128    1.959646    4.913818
     71          1           0        4.615788    0.336829    5.382241
     72          1           0        5.463501    0.624737    3.796933
     73          1           0        7.480715   -5.114105    2.843958
     74          1           0        7.932996   -3.791348    3.977459
     75          1           0        9.207908   -4.515824    2.911956
     76          1           0        9.161917   -4.146392   -2.190090
     77          1           0        7.136510   -6.656124   -5.056877
     78          1           0        6.810483   -4.949194   -5.734983
     79          1           0        5.798413   -5.780175   -4.538774
     80         12           0       -8.179024    0.218051   -0.287661
     81          6           0       -6.507587   -1.499246    2.383710
     82          6           0       -7.230356    3.139031    1.196444
     83          6           0      -10.015588    1.756114   -2.368240
     84          6           0       -9.926905   -2.733069   -0.905291
     85          7           0       -7.020388    0.636189    1.549447
     86          6           0       -6.383390   -0.095862    2.450940
     87          6           0       -5.501811    0.719171    3.434864
     88          6           0       -6.260112    2.130451    3.324619
     89          6           0       -6.848440    1.982963    1.922905
     90          6           0       -7.406874    2.276140    4.311043
     91          6           0       -4.012484    0.828168    2.953162
     92          6           0       -3.031032    1.341646    4.009022
     93          1           0       -1.676103    0.797198    4.023127
     94          7           0       -8.176012    2.124332   -0.839633
     95          6           0       -7.732624    3.178331   -0.122842
     96          6           0       -7.968632    4.363390   -0.961943
     97          6           0       -8.738006    3.941399   -2.163901
     98          6           0       -9.030771    2.564538   -1.819490
     99          6           0       -7.411893    5.717902   -0.632153
    100          6           0       -9.153844    4.661983   -3.410514
    101          8           0      -10.021378    4.169523   -4.215313
    102          6           0       -8.585387    6.002568   -3.613402
    103          7           0       -9.893097   -0.329044   -1.329284
    104          6           0      -10.463368    0.510222   -2.211514
    105          6           0      -11.512498   -0.196101   -3.036641
    106          6           0      -11.358134   -1.749537   -2.689409
    107          6           0      -10.257820   -1.659297   -1.609340
    108          6           0      -12.956873    0.239132   -2.790188
    109          6           0      -11.144043   -2.719684   -3.883413
    110          6           0       -9.795323   -2.467380   -4.517979
    111          7           0       -8.102946   -1.815628    0.437861
    112          6           0       -8.943701   -2.886741    0.063769
    113          6           0       -8.580906   -4.041358    0.910913
    114          6           0       -7.561834   -3.551343    1.741498
    115          6           0       -7.321392   -2.181936    1.447548
    116          6           0       -9.202481   -5.321589    0.882900
    117          6           0       -6.642178   -3.878199    2.807370
    118          8           0       -6.330697   -4.910480    3.399927
    119          6           0       -6.005931   -2.529410    3.357227
    120          6           0       -4.518622   -2.727051    3.463759
    121          8           0       -3.829649   -2.902525    2.443397
    122          8           0       -4.127831   -2.460784    4.723423
    123          6           0       -2.658448   -2.632182    4.876258
    124          1           0       -7.181058    4.106304    1.697266
    125          1           0      -10.603879    2.208035   -3.170216
    126          1           0      -10.358024   -3.716707   -1.103434
    127          1           0       -5.519321    0.366687    4.459177
    128          1           0       -5.558228    2.959656    3.358233
    129          1           0       -7.598343    1.357150    4.844848
    130          1           0       -8.268979    2.557286    3.720472
    131          1           0       -7.218225    3.114922    4.987207
    132          1           0       -3.933316    1.636055    2.214382
    133          1           0       -3.667722   -0.110748    2.565597
    134          1           0       -3.463089    1.323282    5.016959
    135          1           0       -2.839337    2.400473    3.818842
    136          1           0       -7.029406    5.756326    0.395289
    137          1           0       -8.253573    6.418928   -0.635035
    138          1           0       -6.668233    6.055558   -1.357150
    139          1           0       -8.851618    6.638750   -2.772653
    140          1           0       -8.929240    6.319562   -4.599901
    141          1           0       -7.492573    5.922764   -3.614010
    142          1           0      -11.332934   -0.053082   -4.095133
    143          1           0      -12.255019   -2.146914   -2.191884
    144          1           0      -13.468725    0.591667   -3.705509
    145          1           0      -12.955996    1.012202   -2.033296
    146          1           0      -13.598193   -0.519521   -2.344808
    147          1           0      -11.891329   -2.536028   -4.659301
    148          1           0      -11.216550   -3.766476   -3.607785
    149          1           0       -9.991935   -1.626052   -5.189249
    150          1           0       -9.461968   -3.343557   -5.070447
    151          1           0       -9.066214   -2.130451   -3.771965
    152          1           0       -8.408080   -6.054501    0.930439
    153          1           0       -9.809407   -5.449402   -0.011015
    154          1           0       -9.812542   -5.262047    1.788196
    155          1           0       -6.461981   -2.323297    4.326308
    156          1           0       -2.503033   -3.343155    5.693606
    157          1           0       -2.251192   -1.612547    5.011305
    158          1           0       -2.123857   -3.118292    4.068573
 ---------------------------------------------------------------------

 SCF Done:  E(RCAM-B3LYP) =  -4069.81153895     A.U. after   19 cycles

 Excitation energies and oscillator strengths:

 Excited State   1:      Singlet-A      1.6696 eV  742.61 nm  f=0.0168  <S**2>=0.000
     309 -> 315       -0.10496
     310 -> 316        0.13647
     311 -> 313       -0.41724
     312 -> 314        0.54501
 This state for optimization and/or second-order correction.
 Total Energy, E(TD-HF/TD-DFT) =  -4069.75018348
 Copying the excited state density for this state as the 1-particle RhoCI density.

 Excited State   2:      Singlet-A      1.6856 eV  735.57 nm  f=0.7387  <S**2>=0.000
     309 -> 315        0.14031
     310 -> 316        0.10695
     311 -> 313        0.54414
     312 -> 314        0.41668

 Excited State   3:      Singlet-A      2.1853 eV  567.36 nm  f=0.0757  <S**2>=0.000
     309 -> 313        0.12906
     310 -> 314        0.62964
     312 -> 316       -0.26697

 Excited State   4:      Singlet-A      2.1922 eV  565.58 nm  f=0.1214  <S**2>=0.000
     309 -> 313        0.62761
     310 -> 314       -0.12816
     311 -> 315       -0.27254

 Excited State   5:      Singlet-A      2.7879 eV  444.72 nm  f=0.0000  <S**2>=0.000
     312 -> 313        0.70704

 The electronic state is 1-A.
 Alpha  occ. eigenvalues --  -46.87779 -46.87584 -19.26210 -19.26188 -19.19017
 Alpha  occ. eigenvalues --  -19.18923 -19.18830 -19.18660 -19.18121 -19.17957
 Alpha  occ. eigenvalues --  -14.42428 -14.42421 -14.41438 -14.41286 -14.39388
 Alpha  occ. eigenvalues --  -14.39278 -14.38564 -14.38521 -10.38988 -10.38953
 Alpha  occ. eigenvalues --  -10.35465 -10.35339 -10.34339 -10.34132 -10.31604
 Alpha  occ. eigenvalues --  -10.31568 -10.31375 -10.31226 -10.30945 -10.30884
 Alpha  occ. eigenvalues --  -10.30545 -10.30492 -10.30322 -10.30280 -10.30208
 Alpha  occ. eigenvalues --  -10.30076 -10.29910 -10.29821 -10.29614 -10.29368
 Alpha  occ. eigenvalues --  -10.29326 -10.29244 -10.28704 -10.28627 -10.28534
 Alpha  occ. eigenvalues --  -10.28465 -10.28342 -10.28327 -10.28079 -10.28056
 Alpha  occ. eigenvalues --  -10.27925 -10.27771 -10.27707 -10.27594 -10.27572
 Alpha  occ. eigenvalues --  -10.27523 -10.27478 -10.27469 -10.27459 -10.27409
 Alpha  occ. eigenvalues --  -10.27403 -10.27395 -10.27378 -10.27318 -10.27103
 Alpha  occ. eigenvalues --  -10.26949 -10.26640 -10.26579 -10.26444 -10.26379
 Alpha  occ. eigenvalues --  -10.26232 -10.26200 -10.26081 -10.26010 -10.25951
 Alpha  occ. eigenvalues --  -10.25863 -10.25810 -10.25771 -10.25456 -10.25349
 Alpha  occ. eigenvalues --  -10.24806 -10.24794 -10.24778 -10.24758 -10.24672
 Alpha  occ. eigenvalues --  -10.24618  -3.16522  -3.16334  -1.91403  -1.91216
 Alpha  occ. eigenvalues --   -1.90990  -1.90832  -1.90805  -1.90642  -1.16537
 Alpha  occ. eigenvalues --   -1.16504  -1.08573  -1.08559  -1.07234  -1.06914
 Alpha  occ. eigenvalues --   -1.06804  -1.06547  -1.04558  -1.04417  -1.03747
 Alpha  occ. eigenvalues --   -1.03588  -1.03217  -1.02965  -1.02394  -1.02036
 Alpha  occ. eigenvalues --   -0.91940  -0.91902  -0.89525  -0.89425  -0.89148
 Alpha  occ. eigenvalues --   -0.89064  -0.88294  -0.88155  -0.87844  -0.87714
 Alpha  occ. eigenvalues --   -0.87651  -0.87605  -0.87270  -0.87057  -0.84949
 Alpha  occ. eigenvalues --   -0.84913  -0.83948  -0.83809  -0.82981  -0.82876
 Alpha  occ. eigenvalues --   -0.82621  -0.82572  -0.81534  -0.81494  -0.80565
 Alpha  occ. eigenvalues --   -0.80354  -0.78785  -0.78566  -0.77205  -0.77066
 Alpha  occ. eigenvalues --   -0.76898  -0.76809  -0.75883  -0.75749  -0.74895
 Alpha  occ. eigenvalues --   -0.74732  -0.72757  -0.72624  -0.71652  -0.71504
 Alpha  occ. eigenvalues --   -0.69932  -0.69695  -0.68845  -0.68744  -0.67622
 Alpha  occ. eigenvalues --   -0.67523  -0.67186  -0.67113  -0.65250  -0.65181
 Alpha  occ. eigenvalues --   -0.64827  -0.64689  -0.64594  -0.64563  -0.64269
 Alpha  occ. eigenvalues --   -0.64133  -0.62241  -0.62171  -0.60440  -0.60274
 Alpha  occ. eigenvalues --   -0.59771  -0.59713  -0.58967  -0.58914  -0.58481
 Alpha  occ. eigenvalues --   -0.58343  -0.57534  -0.57451  -0.57292  -0.57162
 Alpha  occ. eigenvalues --   -0.56288  -0.56126  -0.55913  -0.55779  -0.55507
 Alpha  occ. eigenvalues --   -0.55372  -0.55326  -0.55166  -0.54492  -0.54397
 Alpha  occ. eigenvalues --   -0.53855  -0.53823  -0.53288  -0.53195  -0.53154
 Alpha  occ. eigenvalues --   -0.53057  -0.52880  -0.52808  -0.52746  -0.52603
 Alpha  occ. eigenvalues --   -0.52461  -0.52336  -0.51883  -0.51802  -0.51582
 Alpha  occ. eigenvalues --   -0.51572  -0.51169  -0.51115  -0.50582  -0.50420
 Alpha  occ. eigenvalues --   -0.50045  -0.49912  -0.49908  -0.49804  -0.49491
 Alpha  occ. eigenvalues --   -0.49414  -0.49186  -0.49118  -0.49059  -0.49019
 Alpha  occ. eigenvalues --   -0.48555  -0.48466  -0.48464  -0.48424  -0.48307
 Alpha  occ. eigenvalues --   -0.48268  -0.47676  -0.47516  -0.47281  -0.47046
 Alpha  occ. eigenvalues --   -0.46783  -0.46631  -0.46517  -0.46467  -0.46344
 Alpha  occ. eigenvalues --   -0.46195  -0.46137  -0.46002  -0.45776  -0.45727
 Alpha  occ. eigenvalues --   -0.45205  -0.45141  -0.44540  -0.44502  -0.44426
 Alpha  occ. eigenvalues --   -0.44396  -0.44143  -0.44058  -0.44048  -0.44005
 Alpha  occ. eigenvalues --   -0.43988  -0.43861  -0.43451  -0.43448  -0.43367
 Alpha  occ. eigenvalues --   -0.43301  -0.43004  -0.42837  -0.42793  -0.42696
 Alpha  occ. eigenvalues --   -0.42597  -0.42488  -0.42003  -0.41886  -0.41678
 Alpha  occ. eigenvalues --   -0.41585  -0.41501  -0.41374  -0.41120  -0.40913
 Alpha  occ. eigenvalues --   -0.40853  -0.40826  -0.40653  -0.40621  -0.40569
 Alpha  occ. eigenvalues --   -0.40422  -0.40187  -0.40133  -0.39473  -0.39363
 Alpha  occ. eigenvalues --   -0.38471  -0.38282  -0.37704  -0.37557  -0.37318
 Alpha  occ. eigenvalues --   -0.37226  -0.37193  -0.37112  -0.36656  -0.36652
 Alpha  occ. eigenvalues --   -0.36153  -0.36128  -0.34266  -0.34175  -0.33729
 Alpha  occ. eigenvalues --   -0.33688  -0.33162  -0.33096  -0.31359  -0.31218
 Alpha  occ. eigenvalues --   -0.31016  -0.30896  -0.29978  -0.29859  -0.29436
 Alpha  occ. eigenvalues --   -0.29296  -0.29256  -0.29132  -0.24061  -0.23959
 Alpha  occ. eigenvalues --   -0.21111  -0.21042
 Alpha virt. eigenvalues --   -0.08757  -0.08717  -0.01738  -0.01612  -0.00048
 Alpha virt. eigenvalues --    0.00040   0.02229   0.02289   0.03143   0.03313
 Alpha virt. eigenvalues --    0.04747   0.04814   0.05182   0.05295   0.06231

 Mulliken charges:
               1
     1  Mg   0.838883
     2  C   -0.002618
     3  C   -0.093975
     4  C   -0.046197
     5  C   -0.064167
     6  N   -0.256746
     7  C   -0.052293
     8  C   -0.014020
     9  C   -0.087013
    10  C    0.046330
    11  C    0.104827
    12  C    0.053440
    13  C   -0.071977
    14  H    0.036812
    15  N   -0.433084
    16  C    0.168306
    17  C   -0.177203
    18  C   -0.004274
    19  C    0.148662
    20  C    0.110180
    21  C    0.011957
    22  O   -0.250162
    23  C    0.062611
    24  N   -0.341130
    25  C    0.041201
    26  C   -0.028082
    27  C   -0.023949
    28  C    0.074798
    29  C    0.076211
    30  C    0.035231
    31  C   -0.004360
    32  N   -0.310587
    33  C    0.080584
    34  C   -0.169532
    35  C    0.008648
    36  C    0.083240
    37  C    0.127217
    38  C    0.046549
    39  O   -0.187753
    40  C   -0.005489
    41  C    0.212895
    42  O   -0.256288
    43  O   -0.305026
    44  C    0.157446
    45  H   -0.017630
    46  H   -0.017264
    47  H   -0.041609
    48  H    0.001064
    49  H   -0.003981
    50  H    0.025512
    51  H    0.016289
    52  H    0.016645
    53  H    0.011173
    54  H    0.044656
    55  H    0.017751
    56  H    0.017806
    57  H    0.005993
    58  H    0.026657
    59  H    0.039286
    60  H    0.037490
    61  H    0.035072
    62  H    0.031286
    63  H    0.016001
    64  H    0.009542
    65  H    0.022884
    66  H    0.012689
    67  H    0.004761
    68  H    0.006050
    69  H    0.004826
    70  H    0.008279
    71  H    0.017145
    72  H    0.029527
    73  H    0.048155
    74  H    0.008882
    75  H    0.046057
    76  H    0.035138
    77  H    0.043021
    78  H    0.046272
    79  H    0.054470
    80  Mg   0.837992
    81  C   -0.016536
    82  C   -0.087738
    83  C   -0.045634
    84  C   -0.065006
    85  N   -0.254548
    86  C   -0.049734
    87  C   -0.015090
    88  C   -0.090502
    89  C    0.045769
    90  C    0.114414
    91  C    0.062483
    92  C   -0.078092
    93  H    0.035688
    94  N   -0.423427
    95  C    0.162835
    96  C   -0.174761
    97  C   -0.007991
    98  C    0.152092
    99  C    0.099424
   100  C    0.015419
   101  O   -0.253430
   102  C    0.061267
   103  N   -0.350092
   104  C    0.037466
   105  C   -0.019771
   106  C   -0.034795
   107  C    0.088992
   108  C    0.073733
   109  C    0.034755
   110  C   -0.007671
   111  N   -0.324203
   112  C    0.078653
   113  C   -0.162994
   114  C    0.002402
   115  C    0.096385
   116  C    0.131415
   117  C    0.042684
   118  O   -0.187425
   119  C    0.000813
   120  C    0.211262
   121  O   -0.250093
   122  O   -0.305982
   123  C    0.151699
   124  H   -0.019789
   125  H   -0.015815
   126  H   -0.040502
   127  H   -0.000695
   128  H   -0.004261
   129  H    0.022384
   130  H    0.014258
   131  H    0.016156
   132  H    0.013938
   133  H    0.038295
   134  H    0.020388
   135  H    0.019602
   136  H    0.008801
   137  H    0.025909
   138  H    0.039512
   139  H    0.038193
   140  H    0.036073
   141  H    0.033734
   142  H    0.014252
   143  H    0.012309
   144  H    0.024934
   145  H    0.011579
   146  H    0.005554
   147  H    0.006060
   148  H    0.003685
   149  H    0.010743
   150  H    0.017976
   151  H    0.030343
   152  H    0.046408
   153  H    0.008441
   154  H    0.046811
   155  H    0.034830
   156  H    0.043717
   157  H    0.049135
   158  H    0.054917
 Sum of Mulliken charges =  -0.00000

 Dipole moment (field-independent basis, Debye):
    X=              1.7129    Y=              7.2085    Z=             -1.3897  Tot=              7.5384
 Quadrupole moment (field-independent basis, Debye-Ang):
   XX=           -470.9247   YY=           -538.0048   ZZ=           -469.8852
   XY=             15.3232   XZ=            -27.8388   YZ=             12.7048

 Normal termination of Gaussian 16 at Sun Sep 12 00:24:44 2021.
