 Gaussian 16, Revision A.03,
 Gaussian 16:  ES64L-G16RevA.03 25-Dec-2016

 -----------------------------------
 #p cam-b3lyp/Def2SVP td=(nstates=5)
 -----------------------------------

 --------------------------------
 TDDFT excited states in gaussian
 --------------------------------
 Symbolic Z-matrix:
 Charge =  0 Multiplicity = 1

                         Standard orientation:
 ---------------------------------------------------------------------
 Center     Atomic      Atomic             Coordinates (Angstroms)
 Number     Number       Type             X           Y           Z
 ---------------------------------------------------------------------
      1         12           0       -4.436057   -0.630608   -0.099612
      2          6           0       -4.577899    2.809315    0.879686
      3          6           0       -5.154529    0.397473   -3.272925
      4          6           0       -4.764632   -3.682190   -0.897426
      5          6           0       -4.856869   -1.451706    3.261098
      6          7           0       -4.796504    1.375985   -0.962346
      7          6           0       -4.762873    2.618694   -0.491478
      8          6           0       -4.867310    3.704073   -1.604321
      9          6           0       -5.601006    2.842940   -2.727770
     10          6           0       -5.128683    1.458592   -2.319830
     11          6           0       -7.122723    2.889968   -2.634675
     12          6           0       -3.461973    4.197514   -2.087306
     13          6           0       -3.472417    5.477115   -2.928654
     14          1           0       -2.373795    6.420050   -2.782877
     15          7           0       -4.409928   -1.501246   -1.872789
     16          6           0       -4.715108   -0.927301   -3.061376
     17          6           0       -4.545120   -1.985267   -4.080440
     18          6           0       -4.300502   -3.269376   -3.366774
     19          6           0       -4.510645   -2.868585   -1.999081
     20          6           0       -4.572612   -1.719975   -5.554419
     21          6           0       -3.945587   -4.642530   -3.842817
     22          8           0       -4.006827   -5.664752   -3.077385
     23          6           0       -3.605009   -4.775128   -5.270915
     24          7           0       -4.982948   -2.330208    0.982009
     25          6           0       -4.989796   -3.539376    0.410302
     26          6           0       -5.134360   -4.626416    1.433720
     27          6           0       -4.980683   -3.917553    2.856270
     28          6           0       -4.848509   -2.451160    2.376174
     29          6           0       -6.452744   -5.411488    1.394507
     30          6           0       -3.897793   -4.481906    3.809829
     31          6           0       -2.522582   -4.213771    3.240622
     32          7           0       -4.500142    0.451012    1.781089
     33          6           0       -4.708148   -0.089884    3.058132
     34          6           0       -4.777374    1.041924    4.000623
     35          6           0       -4.620373    2.170829    3.198895
     36          6           0       -4.489317    1.770974    1.838295
     37          6           0       -5.021984    0.948063    5.399119
     38          6           0       -4.557510    3.623134    3.172152
     39          8           0       -4.516935    4.505310    4.030996
     40          6           0       -4.649605    4.100814    1.655851
     41          6           0       -3.562649    5.116670    1.432533
     42          8           0       -2.359963    4.786084    1.472846
     43          8           0       -4.105565    6.255445    0.975394
     44          6           0       -3.077710    7.295928    0.705091
     45          1           0       -5.605262    0.577285   -4.250907
     46          1           0       -4.775035   -4.752402   -1.114162
     47          1           0       -4.901788   -1.635184    4.336166
     48          1           0       -5.476944    4.568428   -1.340388
     49          1           0       -5.241268    3.086835   -3.727183
     50          1           0       -7.450910    3.404339   -1.731549
     51          1           0       -7.445649    1.848838   -2.618485
     52          1           0       -7.552869    3.323089   -3.538089
     53          1           0       -3.067571    3.495601   -2.822035
     54          1           0       -2.787046    4.328183   -1.240710
     55          1           0       -4.430447    5.992928   -2.857760
     56          1           0       -3.393166    5.196016   -3.978845
     57          1           0       -4.935798   -0.716785   -5.774082
     58          1           0       -5.325414   -2.381290   -5.982975
     59          1           0       -3.607008   -1.909326   -6.023552
     60          1           0       -4.448394   -4.439420   -5.874696
     61          1           0       -3.292268   -5.809296   -5.410702
     62          1           0       -2.777178   -4.103546   -5.500314
     63          1           0       -4.351760   -5.375674    1.321580
     64          1           0       -5.900512   -3.967171    3.439474
     65          1           0       -6.318716   -6.486535    1.271970
     66          1           0       -7.066269   -5.000071    0.593499
     67          1           0       -7.098521   -5.263910    2.259729
     68          1           0       -4.001017   -5.562411    3.903631
     69          1           0       -3.942917   -4.056164    4.812305
     70          1           0       -2.381679   -5.040235    2.544967
     71          1           0       -1.772311   -4.237073    4.031672
     72          1           0       -2.505262   -3.291810    2.659094
     73          1           0       -4.321950    1.632710    5.877846
     74          1           0       -4.885919   -0.072129    5.757307
     75          1           0       -6.061849    1.271308    5.444372
     76          1           0       -5.642935    4.527864    1.521514
     77          1           0       -3.355668    8.178882    1.280734
     78          1           0       -3.016651    7.397025   -0.378632
     79          1           0       -2.079121    7.100434    1.097443
     80         12           0        4.556412   -0.891779    0.254940
     81          6           0        4.477193    2.646474   -0.339655
     82          6           0        3.798834   -1.312215   -3.044134
     83          6           0        4.175117   -3.987035    0.839241
     84          6           0        4.172668   -0.189995    3.646982
     85          7           0        4.208141    0.557153   -1.379550
     86          6           0        4.265379    1.874828   -1.501183
     87          6           0        4.165494    2.390874   -2.961758
     88          6           0        3.394268    1.138768   -3.606970
     89          6           0        3.851837    0.046456   -2.642517
     90          6           0        1.881542    1.252316   -3.517049
     91          6           0        5.574617    2.598792   -3.619905
     92          6           0        5.562195    3.389980   -4.929723
     93          1           0        6.682625    4.282141   -5.214616
     94          7           0        4.545017   -2.440994   -0.985366
     95          6           0        4.235001   -2.429584   -2.298778
     96          6           0        4.357481   -3.823393   -2.753182
     97          6           0        4.604682   -4.684238   -1.564671
     98          6           0        4.426600   -3.719046   -0.498469
     99          6           0        4.318622   -4.213209   -4.202300
    100          6           0        4.932824   -6.138638   -1.412298
    101          8           0        4.870767   -6.727412   -0.275489
    102          6           0        5.238258   -6.874736   -2.647770
    103          7           0        4.011047   -1.947944    1.960639
    104          6           0        3.972183   -3.291971    1.958633
    105          6           0        3.825430   -3.835542    3.359842
    106          6           0        4.017642   -2.579086    4.330390
    107          6           0        4.159774   -1.462121    3.273227
    108          6           0        2.494984   -4.520391    3.671757
    109          6           0        5.108285   -2.699388    5.429795
    110          6           0        6.479398   -2.739907    4.794346
    111          7           0        4.543288    0.885208    1.483844
    112          6           0        4.341278    0.955516    2.879669
    113          6           0        4.304140    2.387047    3.242650
    114          6           0        4.465382    3.055825    2.019852
    115          6           0        4.573703    2.108225    0.966374
    116          6           0        4.091352    2.908542    4.549884
    117          6           0        4.557932    4.348077    1.379370
    118          8           0        4.617941    5.511467    1.775161
    119          6           0        4.442915    4.142406   -0.192533
    120          6           0        5.540696    4.936053   -0.846374
    121          8           0        6.733288    4.633428   -0.665406
    122          8           0        4.999822    5.779433   -1.744444
    123          6           0        6.050140    6.580905   -2.427308
    124          1           0        3.341389   -1.551892   -4.004436
    125          1           0        4.145317   -5.044820    1.110708
    126          1           0        4.154727    0.110189    4.696862
    127          1           0        3.578595    3.293079   -3.085639
    128          1           0        3.749247    0.932081   -4.613272
    129          1           0        1.575784    2.103282   -2.926705
    130          1           0        1.544271    0.332364   -3.057713
    131          1           0        1.444337    1.266572   -4.519533
    132          1           0        5.944208    1.632816   -3.987389
    133          1           0        6.254605    3.056266   -2.927848
    134          1           0        4.608523    3.907561   -5.089612
    135          1           0        5.627151    2.684675   -5.761796
    136          1           0        3.959395   -3.389159   -4.831033
    137          1           0        3.550727   -4.987618   -4.304633
    138          1           0        5.271628   -4.611438   -4.557061
    139          1           0        4.391592   -6.807575   -3.326829
    140          1           0        5.534347   -7.875152   -2.326278
    141          1           0        6.081829   -6.385251   -3.147171
    142          1           0        4.595890   -4.566057    3.573914
    143          1           0        3.101849   -2.359287    4.898599
    144          1           0        2.612601   -5.562452    4.024359
    145          1           0        1.877398   -4.486734    2.784066
    146          1           0        1.873395   -4.009542    4.405148
    147          1           0        4.992129   -3.637901    5.977386
    148          1           0        5.078009   -1.895783    6.158006
    149          1           0        6.591527   -3.792145    4.516295
    150          1           0        7.241965   -2.437097    5.509072
    151          1           0        6.502513   -2.150529    3.870350
    152          1           0        4.801533    3.713745    4.683281
    153          1           0        4.213898    2.139387    5.309592
    154          1           0        3.052257    3.236942    4.462111
    155          1           0        3.453118    4.485389   -0.496248
    156          1           0        5.791022    7.634611   -2.284968
    157          1           0        6.082643    6.206266   -3.467662
    158          1           0        7.051290    6.551539   -2.013447
 ---------------------------------------------------------------------

 SCF Done:  E(RCAM-B3LYP) =  -4069.81136355     A.U. after   19 cycles

 Excitation energies and oscillator strengths:

 Excited State   1:      Singlet-A      1.6495 eV  751.66 nm  f=0.0361  <S**2>=0.000
     309 -> 315       -0.11528
     310 -> 316        0.12107
     311 -> 313       -0.47250
     312 -> 314        0.49936
 This state for optimization and/or second-order correction.
 Total Energy, E(TD-HF/TD-DFT) =  -4069.75074648
 Copying the excited state density for this state as the 1-particle RhoCI density.

 Excited State   2:      Singlet-A      1.7015 eV  728.66 nm  f=0.6546  <S**2>=0.000
     309 -> 315        0.13155
     310 -> 316        0.12416
     311 -> 313        0.49693
     312 -> 314        0.47036

 Excited State   3:      Singlet-A      2.1821 eV  568.20 nm  f=0.0188  <S**2>=0.000
     309 -> 313       -0.35504
     310 -> 314        0.53778
     311 -> 315        0.14782
     312 -> 316       -0.22551

 Excited State   4:      Singlet-A      2.1944 eV  565.00 nm  f=0.1604  <S**2>=0.000
     309 -> 313        0.53377
     310 -> 314        0.35096
     311 -> 315       -0.23452
     312 -> 316       -0.15548

 Excited State   5:      Singlet-A      2.3489 eV  527.84 nm  f=0.0000  <S**2>=0.000
     312 -> 313        0.70709

 The electronic state is 1-A.
 Alpha  occ. eigenvalues --  -46.87892 -46.87441 -19.26246 -19.26202 -19.18998
 Alpha  occ. eigenvalues --  -19.18990 -19.18940 -19.18508 -19.18227 -19.17781
 Alpha  occ. eigenvalues --  -14.42549 -14.42291 -14.41541 -14.41145 -14.39504
 Alpha  occ. eigenvalues --  -14.39134 -14.38678 -14.38361 -10.39066 -10.38911
 Alpha  occ. eigenvalues --  -10.35578 -10.35189 -10.34444 -10.33958 -10.31655
 Alpha  occ. eigenvalues --  -10.31586 -10.31497 -10.31095 -10.31010 -10.30836
 Alpha  occ. eigenvalues --  -10.30665 -10.30599 -10.30310 -10.30157 -10.30121
 Alpha  occ. eigenvalues --  -10.30000 -10.29945 -10.29732 -10.29664 -10.29362
 Alpha  occ. eigenvalues --  -10.29220 -10.29161 -10.28847 -10.28642 -10.28600
 Alpha  occ. eigenvalues --  -10.28579 -10.28459 -10.28217 -10.28178 -10.28007
 Alpha  occ. eigenvalues --  -10.27890 -10.27831 -10.27756 -10.27694 -10.27651
 Alpha  occ. eigenvalues --  -10.27585 -10.27518 -10.27490 -10.27473 -10.27343
 Alpha  occ. eigenvalues --  -10.27311 -10.27264 -10.27236 -10.27205 -10.27201
 Alpha  occ. eigenvalues --  -10.26826 -10.26795 -10.26598 -10.26587 -10.26321
 Alpha  occ. eigenvalues --  -10.26271 -10.26241 -10.26117 -10.25983 -10.25931
 Alpha  occ. eigenvalues --  -10.25917 -10.25713 -10.25495 -10.25478 -10.25259
 Alpha  occ. eigenvalues --  -10.24923 -10.24875 -10.24781 -10.24613 -10.24582
 Alpha  occ. eigenvalues --  -10.24471  -3.16635  -3.16191  -1.91516  -1.91103
 Alpha  occ. eigenvalues --   -1.91073  -1.90945  -1.90662  -1.90498  -1.16600
 Alpha  occ. eigenvalues --   -1.16490  -1.08677  -1.08386  -1.07341  -1.06773
 Alpha  occ. eigenvalues --   -1.06762  -1.06622  -1.04678  -1.04287  -1.03854
 Alpha  occ. eigenvalues --   -1.03446  -1.03329  -1.02815  -1.02505  -1.01885
 Alpha  occ. eigenvalues --   -0.92050  -0.91755  -0.89606  -0.89293  -0.89287
 Alpha  occ. eigenvalues --   -0.89006  -0.88370  -0.88034  -0.87964  -0.87773
 Alpha  occ. eigenvalues --   -0.87528  -0.87473  -0.87405  -0.86915  -0.85081
 Alpha  occ. eigenvalues --   -0.84839  -0.84011  -0.83696  -0.83103  -0.82746
 Alpha  occ. eigenvalues --   -0.82737  -0.82486  -0.81622  -0.81406  -0.80669
 Alpha  occ. eigenvalues --   -0.80246  -0.78914  -0.78413  -0.77315  -0.77002
 Alpha  occ. eigenvalues --   -0.76964  -0.76735  -0.75990  -0.75661  -0.74969
 Alpha  occ. eigenvalues --   -0.74626  -0.72868  -0.72470  -0.71753  -0.71392
 Alpha  occ. eigenvalues --   -0.69991  -0.69587  -0.68971  -0.68658  -0.67731
 Alpha  occ. eigenvalues --   -0.67394  -0.67334  -0.67042  -0.65377  -0.65102
 Alpha  occ. eigenvalues --   -0.64926  -0.64691  -0.64568  -0.64474  -0.64352
 Alpha  occ. eigenvalues --   -0.64014  -0.62315  -0.62099  -0.60556  -0.60135
 Alpha  occ. eigenvalues --   -0.59903  -0.59619  -0.59070  -0.58784  -0.58584
 Alpha  occ. eigenvalues --   -0.58217  -0.57631  -0.57383  -0.57323  -0.57029
 Alpha  occ. eigenvalues --   -0.56407  -0.55998  -0.55985  -0.55724  -0.55621
 Alpha  occ. eigenvalues --   -0.55395  -0.55257  -0.55060  -0.54562  -0.54316
 Alpha  occ. eigenvalues --   -0.53992  -0.53766  -0.53404  -0.53321  -0.53022
 Alpha  occ. eigenvalues --   -0.52977  -0.52961  -0.52876  -0.52727  -0.52519
 Alpha  occ. eigenvalues --   -0.52494  -0.52230  -0.51999  -0.51720  -0.51564
 Alpha  occ. eigenvalues --   -0.51492  -0.51268  -0.50990  -0.50731  -0.50301
 Alpha  occ. eigenvalues --   -0.50127  -0.50038  -0.49813  -0.49687  -0.49617
 Alpha  occ. eigenvalues --   -0.49305  -0.49301  -0.49183  -0.49012  -0.48905
 Alpha  occ. eigenvalues --   -0.48653  -0.48569  -0.48512  -0.48365  -0.48188
 Alpha  occ. eigenvalues --   -0.48141  -0.47788  -0.47420  -0.47387  -0.46936
 Alpha  occ. eigenvalues --   -0.46886  -0.46651  -0.46521  -0.46446  -0.46401
 Alpha  occ. eigenvalues --   -0.46227  -0.46068  -0.45875  -0.45866  -0.45601
 Alpha  occ. eigenvalues --   -0.45281  -0.45026  -0.44653  -0.44614  -0.44347
 Alpha  occ. eigenvalues --   -0.44274  -0.44238  -0.44188  -0.44094  -0.43942
 Alpha  occ. eigenvalues --   -0.43890  -0.43736  -0.43535  -0.43478  -0.43379
 Alpha  occ. eigenvalues --   -0.43203  -0.43107  -0.42767  -0.42751  -0.42690
 Alpha  occ. eigenvalues --   -0.42653  -0.42368  -0.42090  -0.41794  -0.41783
 Alpha  occ. eigenvalues --   -0.41629  -0.41451  -0.41299  -0.41226  -0.40971
 Alpha  occ. eigenvalues --   -0.40942  -0.40808  -0.40652  -0.40559  -0.40535
 Alpha  occ. eigenvalues --   -0.40349  -0.40314  -0.40096  -0.39525  -0.39254
 Alpha  occ. eigenvalues --   -0.38553  -0.38181  -0.37846  -0.37521  -0.37408
 Alpha  occ. eigenvalues --   -0.37360  -0.37076  -0.37014  -0.36730  -0.36608
 Alpha  occ. eigenvalues --   -0.36238  -0.36036  -0.34377  -0.34036  -0.33772
 Alpha  occ. eigenvalues --   -0.33679  -0.33269  -0.32956  -0.31466  -0.31125
 Alpha  occ. eigenvalues --   -0.31069  -0.30759  -0.30083  -0.29687  -0.29557
 Alpha  occ. eigenvalues --   -0.29413  -0.29099  -0.28943  -0.24172  -0.23812
 Alpha  occ. eigenvalues --   -0.21226  -0.20896
 Alpha virt. eigenvalues --   -0.08874  -0.08560  -0.01847  -0.01471  -0.00169
 Alpha virt. eigenvalues --    0.00183   0.02121   0.02459   0.02850   0.03490
 Alpha virt. eigenvalues --    0.04624   0.04917   0.05098   0.05349   0.06090

 Mulliken charges:
               1
     1  Mg   0.838602
     2  C   -0.002804
     3  C   -0.094992
     4  C   -0.045429
     5  C   -0.064122
     6  N   -0.256686
     7  C   -0.052571
     8  C   -0.013782
     9  C   -0.086837
    10  C    0.046030
    11  C    0.104811
    12  C    0.053617
    13  C   -0.072086
    14  H    0.037082
    15  N   -0.433059
    16  C    0.168066
    17  C   -0.178044
    18  C   -0.004340
    19  C    0.148791
    20  C    0.110340
    21  C    0.012095
    22  O   -0.248904
    23  C    0.062897
    24  N   -0.341171
    25  C    0.041132
    26  C   -0.028343
    27  C   -0.024013
    28  C    0.075122
    29  C    0.076043
    30  C    0.034982
    31  C   -0.005742
    32  N   -0.310593
    33  C    0.080774
    34  C   -0.169826
    35  C    0.008643
    36  C    0.083253
    37  C    0.127307
    38  C    0.046405
    39  O   -0.187370
    40  C   -0.005380
    41  C    0.213010
    42  O   -0.256483
    43  O   -0.305205
    44  C    0.156665
    45  H   -0.017812
    46  H   -0.016522
    47  H   -0.041484
    48  H    0.001506
    49  H   -0.004641
    50  H    0.025772
    51  H    0.016498
    52  H    0.016660
    53  H    0.009453
    54  H    0.044475
    55  H    0.018501
    56  H    0.016904
    57  H    0.005708
    58  H    0.027096
    59  H    0.037392
    60  H    0.037624
    61  H    0.035519
    62  H    0.029279
    63  H    0.017205
    64  H    0.009674
    65  H    0.023585
    66  H    0.012493
    67  H    0.004840
    68  H    0.006936
    69  H    0.004218
    70  H    0.010664
    71  H    0.017308
    72  H    0.029244
    73  H    0.047710
    74  H    0.008889
    75  H    0.046407
    76  H    0.035292
    77  H    0.043608
    78  H    0.045814
    79  H    0.056307
    80  Mg   0.837866
    81  C   -0.015954
    82  C   -0.088074
    83  C   -0.045123
    84  C   -0.063805
    85  N   -0.254384
    86  C   -0.049184
    87  C   -0.014998
    88  C   -0.090752
    89  C    0.045726
    90  C    0.114174
    91  C    0.062711
    92  C   -0.077304
    93  H    0.034389
    94  N   -0.423391
    95  C    0.162614
    96  C   -0.174959
    97  C   -0.007760
    98  C    0.151640
    99  C    0.099512
   100  C    0.015659
   101  O   -0.253618
   102  C    0.061268
   103  N   -0.349800
   104  C    0.037053
   105  C   -0.019883
   106  C   -0.035128
   107  C    0.089120
   108  C    0.073276
   109  C    0.034743
   110  C   -0.007499
   111  N   -0.324720
   112  C    0.079093
   113  C   -0.160751
   114  C    0.004240
   115  C    0.096276
   116  C    0.130226
   117  C    0.045020
   118  O   -0.187339
   119  C   -0.000095
   120  C    0.210794
   121  O   -0.251448
   122  O   -0.305633
   123  C    0.152258
   124  H   -0.021626
   125  H   -0.015962
   126  H   -0.039970
   127  H   -0.000951
   128  H   -0.005651
   129  H    0.024824
   130  H    0.014760
   131  H    0.012836
   132  H    0.013800
   133  H    0.037808
   134  H    0.019889
   135  H    0.018921
   136  H    0.007207
   137  H    0.025797
   138  H    0.039048
   139  H    0.038392
   140  H    0.035934
   141  H    0.033294
   142  H    0.013969
   143  H    0.012544
   144  H    0.024130
   145  H    0.013171
   146  H    0.004624
   147  H    0.005541
   148  H    0.003858
   149  H    0.010635
   150  H    0.017649
   151  H    0.030341
   152  H    0.045166
   153  H    0.007523
   154  H    0.053156
   155  H    0.037785
   156  H    0.043276
   157  H    0.048770
   158  H    0.053446
 Sum of Mulliken charges =  -0.00000

 Dipole moment (field-independent basis, Debye):
    X=             -3.8766    Y=             -1.8745    Z=             -7.2273  Tot=              8.4128
 Quadrupole moment (field-independent basis, Debye-Ang):
   XX=           -518.9255   YY=           -545.8027   ZZ=           -453.4414
   XY=            -11.1815   XZ=             -0.9893   YZ=            -43.1520

 Normal termination of Gaussian 16 at Fri Sep  3 23:24:05 2021.
