 Gaussian 16, Revision A.03,
 Gaussian 16:  ES64L-G16RevA.03 25-Dec-2016

 -----------------------------------
 #p cam-b3lyp/Def2SVP td=(nstates=5)
 -----------------------------------

 --------------------------------
 TDDFT excited states in gaussian
 --------------------------------
 Symbolic Z-matrix:
 Charge =  0 Multiplicity = 1

                         Standard orientation:
 ---------------------------------------------------------------------
 Center     Atomic      Atomic             Coordinates (Angstroms)
 Number     Number       Type             X           Y           Z
 ---------------------------------------------------------------------
      1         12           0        4.504485   -0.544816    1.050460
      2          6           0        5.119949    2.378227   -0.921655
      3          6           0        4.695690    1.456587    3.807431
      4          6           0        4.416458   -3.169571    2.827967
      5          6           0        5.480835   -2.433423   -1.710983
      6          7           0        4.864542    1.626909    1.284154
      7          6           0        5.025947    2.645933    0.445876
      8          6           0        5.010170    4.034883    1.151526
      9          6           0        5.442879    3.577925    2.616432
     10          6           0        4.940323    2.145375    2.582376
     11          6           0        6.953220    3.563683    2.828969
     12          6           0        3.585957    4.685537    1.151657
     13          6           0        3.545943    6.170276    1.524887
     14          1           0        2.578617    7.032823    0.863342
     15          7           0        4.070378   -0.783011    2.962962
     16          6           0        4.193310    0.144288    3.942906
     17          6           0        3.744898   -0.516215    5.187632
     18          6           0        3.531326   -1.958895    4.885712
     19          6           0        4.029068   -2.034300    3.535918
     20          6           0        3.516100    0.218669    6.472680
     21          6           0        2.977740   -3.092223    5.690226
     22          8           0        3.095396   -4.310302    5.320069
     23          6           0        2.363740   -2.741328    6.983639
     24          7           0        5.099486   -2.515408    0.703506
     25          6           0        4.895690   -3.469097    1.618890
     26          6           0        5.138060   -4.834780    1.047835
     27          6           0        5.316348   -4.630667   -0.525792
     28          6           0        5.220835   -3.085786   -0.575690
     29          6           0        6.353896   -5.587385    1.605813
     30          6           0        4.388994   -5.457271   -1.451622
     31          6           0        2.958866   -4.991531   -1.293767
     32          7           0        5.013921   -0.143495   -1.020883
     33          6           0        5.412567   -1.078139   -1.987422
     34          6           0        5.754210   -0.320872   -3.205574
     35          6           0        5.545066    1.011636   -2.855538
     36          6           0        5.126118    1.084136   -1.496304
     37          6           0        6.249517   -0.874075   -4.419276
     38          6           0        5.601736    2.392795   -3.306143
     39          8           0        5.798987    2.943910   -4.390052
     40          6           0        5.446174    3.340940   -2.036242
     41          6           0        4.426784    4.393547   -2.377082
     42          8           0        3.229692    4.090303   -2.557021
     43          8           0        4.968285    5.609124   -2.204766
     44          6           0        3.999939    6.699352   -2.497792
     45          1           0        4.967335    1.939798    4.747993
     46          1           0        4.294927   -4.108909    3.371394
     47          1           0        5.712126   -2.961159   -2.638049
     48          1           0        5.729758    4.752917    0.757770
     49          1           0        4.922989    4.143612    3.389370
     50          1           0        7.488403    3.746176    1.897198
     51          1           0        7.183878    2.569423    3.212030
     52          1           0        7.240289    4.261905    3.615641
     53          1           0        3.001865    4.271794    1.973675
     54          1           0        3.096515    4.542819    0.187601
     55          1           0        4.540380    6.616324    1.492527
     56          1           0        3.246341    6.251828    2.569774
     57          1           0        3.915079    1.231416    6.431387
     58          1           0        4.115612   -0.278589    7.234932
     59          1           0        2.466786    0.212006    6.768021
     60          1           0        3.103393   -2.241261    7.609256
     61          1           0        1.943642   -3.665999    7.377785
     62          1           0        1.567510   -2.016540    6.811446
     63          1           0        4.287664   -5.490897    1.228843
     64          1           0        6.322133   -4.886312   -0.860032
     65          1           0        6.108431   -6.559618    2.033849
     66          1           0        6.837863   -4.946721    2.342439
     67          1           0        7.161522   -5.744580    0.891356
     68          1           0        4.416014   -6.510197   -1.173121
     69          1           0        4.658474   -5.385931   -2.505444
     70          1           0        2.619592   -5.540391   -0.415997
     71          1           0        2.372163   -5.259960   -2.172935
     72          1           0        2.910383   -3.929425   -1.052799
     73          1           0        5.713081   -0.372264   -5.224503
     74          1           0        6.097447   -1.952628   -4.453931
     75          1           0        7.302841   -0.602913   -4.349733
     76          1           0        6.428880    3.770048   -1.843168
     77          1           0        4.455442    7.338505   -3.254253
     78          1           0        3.744234    7.152452   -1.539815
     79          1           0        3.080432    6.404083   -3.004410
     80         12           0       -4.232682   -0.739187   -1.048962
     81          6           0       -6.345905    1.502383    0.791901
     82          6           0       -3.243210    1.950670   -2.898351
     83          6           0       -2.708978   -2.748884   -2.974283
     84          6           0       -6.200764   -3.355025    0.146763
     85          7           0       -4.792742    1.399032   -0.967658
     86          6           0       -5.558810    2.145222   -0.186197
     87          6           0       -5.416029    3.673792   -0.415650
     88          6           0       -4.884704    3.640929   -1.930738
     89          6           0       -4.232774    2.259746   -1.931218
     90          6           0       -6.002208    3.641981   -2.960551
     91          6           0       -4.364064    4.327167    0.547922
     92          6           0       -4.396178    5.856435    0.593218
     93          1           0       -4.116819    6.521171    1.863086
     94          7           0       -2.781134   -0.408915   -2.361399
     95          6           0       -2.508081    0.749039   -2.998472
     96          6           0       -1.359008    0.466162   -3.872402
     97          6           0       -1.080058   -0.994794   -3.822342
     98          6           0       -2.217098   -1.453951   -3.050069
     99          6           0       -0.595717    1.543172   -4.587141
    100          6           0        0.020290   -1.840554   -4.388154
    101          8           0       -0.063640   -3.119039   -4.423897
    102          6           0        1.157564   -1.124153   -4.983841
    103          7           0       -4.549469   -2.734188   -1.540841
    104          6           0       -3.708238   -3.385475   -2.363083
    105          6           0       -3.976056   -4.871597   -2.351966
    106          6           0       -5.017899   -5.111493   -1.162595
    107          6           0       -5.250538   -3.647000   -0.730717
    108          6           0       -4.539444   -5.455723   -3.647255
    109          6           0       -4.619616   -6.148042   -0.076487
    110          6           0       -3.441321   -5.634707    0.719435
    111          7           0       -5.843225   -0.948316    0.375987
    112          6           0       -6.541716   -2.130282    0.706377
    113          6           0       -7.624151   -1.750556    1.637267
    114          6           0       -7.493608   -0.359637    1.766912
    115          6           0       -6.419248    0.098082    0.957126
    116          6           0       -8.587829   -2.635518    2.197875
    117          6           0       -8.027068    0.826889    2.396397
    118          8           0       -8.883899    1.045968    3.251720
    119          6           0       -7.387806    2.101950    1.694995
    120          6           0       -6.923108    3.041459    2.773837
    121          8           0       -5.998217    2.716958    3.539255
    122          8           0       -7.494878    4.244921    2.586426
    123          6           0       -7.056167    5.214348    3.625453
    124          1           0       -3.037904    2.680404   -3.682070
    125          1           0       -2.147753   -3.500003   -3.534918
    126          1           0       -6.796025   -4.125919    0.640783
    127          1           0       -6.343883    4.230270   -0.359016
    128          1           0       -4.140675    4.413806   -2.105235
    129          1           0       -6.974285    3.545048   -2.500319
    130          1           0       -5.805049    2.798712   -3.609458
    131          1           0       -5.931425    4.531746   -3.592715
    132          1           0       -3.357921    4.172450    0.137455
    133          1           0       -4.461477    3.934109    1.541218
    134          1           0       -5.307806    6.263215    0.138908
    135          1           0       -3.589198    6.239277   -0.036254
    136          1           0       -1.133620    2.499005   -4.566112
    137          1           0       -0.571657    1.268303   -5.647212
    138          1           0        0.429574    1.644045   -4.224849
    139          1           0        0.800557   -0.484606   -5.787578
    140          1           0        1.881032   -1.896348   -5.252525
    141          1           0        1.591152   -0.463410   -4.224872
    142          1           0       -3.069702   -5.426328   -2.142443
    143          1           0       -5.982524   -5.486232   -1.535297
    144          1           0       -3.919951   -6.272471   -4.063444
    145          1           0       -4.644325   -4.653901   -4.366019
    146          1           0       -5.556420   -5.837951   -3.577516
    147          1           0       -4.295488   -7.081000   -0.544131
    148          1           0       -5.428237   -6.392893    0.604069
    149          1           0       -2.584824   -5.905371    0.094739
    150          1           0       -3.392256   -6.124131    1.690050
    151          1           0       -3.462813   -4.541226    0.793531
    152          1           0       -8.681839   -2.371889    3.242941
    153          1           0       -8.292103   -3.675257    2.074393
    154          1           0       -9.461354   -2.382366    1.591133
    155          1           0       -8.157626    2.550041    1.065581
    156          1           0       -7.961461    5.606639    4.098988
    157          1           0       -6.406719    5.940479    3.101345
    158          1           0       -6.521822    4.822374    4.482946
 ---------------------------------------------------------------------

 SCF Done:  E(RCAM-B3LYP) =  -4069.81427231     A.U. after   18 cycles

 Excitation energies and oscillator strengths:

 Excited State   1:      Singlet-A      1.6430 eV  754.60 nm  f=0.0872  <S**2>=0.000
     309 -> 315        0.11636
     310 -> 316        0.11868
     311 -> 313       -0.47996
     312 -> 314        0.49269
 This state for optimization and/or second-order correction.
 Total Energy, E(TD-HF/TD-DFT) =  -4069.75389148
 Copying the excited state density for this state as the 1-particle RhoCI density.

 Excited State   2:      Singlet-A      1.7060 eV  726.75 nm  f=0.6348  <S**2>=0.000
     309 -> 315       -0.13083
     310 -> 316        0.12624
     311 -> 313        0.48999
     312 -> 314        0.47757

 Excited State   3:      Singlet-A      2.1859 eV  567.19 nm  f=0.0034  <S**2>=0.000
     309 -> 313       -0.41731
     310 -> 314        0.49075
     311 -> 315       -0.17507
     312 -> 316       -0.20677

 Excited State   4:      Singlet-A      2.1978 eV  564.12 nm  f=0.1714  <S**2>=0.000
     309 -> 313        0.48725
     310 -> 314        0.41331
     311 -> 315        0.21488
     312 -> 316       -0.18185

 Excited State   5:      Singlet-A      2.3688 eV  523.39 nm  f=0.0000  <S**2>=0.000
     312 -> 313        0.70683

 The electronic state is 1-A.
 Alpha  occ. eigenvalues --  -46.87848 -46.87385 -19.26634 -19.26244 -19.19430
 Alpha  occ. eigenvalues --  -19.19040 -19.18803 -19.18381 -19.18361 -19.17811
 Alpha  occ. eigenvalues --  -14.42510 -14.42225 -14.41471 -14.41086 -14.39449
 Alpha  occ. eigenvalues --  -14.39061 -14.38675 -14.38326 -10.39448 -10.38960
 Alpha  occ. eigenvalues --  -10.35429 -10.35030 -10.34588 -10.33998 -10.32038
 Alpha  occ. eigenvalues --  -10.31699 -10.31502 -10.31049 -10.30976 -10.30720
 Alpha  occ. eigenvalues --  -10.30659 -10.30570 -10.30172 -10.30140 -10.30070
 Alpha  occ. eigenvalues --  -10.29957 -10.29835 -10.29699 -10.29670 -10.29290
 Alpha  occ. eigenvalues --  -10.29105 -10.29074 -10.28863 -10.28709 -10.28534
 Alpha  occ. eigenvalues --  -10.28492 -10.28454 -10.28208 -10.28101 -10.27892
 Alpha  occ. eigenvalues --  -10.27888 -10.27781 -10.27690 -10.27635 -10.27492
 Alpha  occ. eigenvalues --  -10.27455 -10.27365 -10.27364 -10.27363 -10.27360
 Alpha  occ. eigenvalues --  -10.27293 -10.27216 -10.27177 -10.27111 -10.26858
 Alpha  occ. eigenvalues --  -10.26844 -10.26631 -10.26506 -10.26323 -10.26314
 Alpha  occ. eigenvalues --  -10.26023 -10.25963 -10.25934 -10.25872 -10.25825
 Alpha  occ. eigenvalues --  -10.25798 -10.25652 -10.25627 -10.25374 -10.25229
 Alpha  occ. eigenvalues --  -10.24958 -10.24827 -10.24582 -10.24517 -10.24429
 Alpha  occ. eigenvalues --  -10.24170  -3.16591  -3.16136  -1.91472  -1.91058
 Alpha  occ. eigenvalues --   -1.91019  -1.90902  -1.90607  -1.90443  -1.16986
 Alpha  occ. eigenvalues --   -1.16533  -1.08843  -1.08437  -1.07198  -1.07027
 Alpha  occ. eigenvalues --   -1.06821  -1.06630  -1.04651  -1.04219  -1.03795
 Alpha  occ. eigenvalues --   -1.03388  -1.03293  -1.02760  -1.02467  -1.01831
 Alpha  occ. eigenvalues --   -0.92089  -0.91728  -0.89470  -0.89278  -0.89242
 Alpha  occ. eigenvalues --   -0.88917  -0.88216  -0.87986  -0.87973  -0.87729
 Alpha  occ. eigenvalues --   -0.87528  -0.87405  -0.87287  -0.86644  -0.85069
 Alpha  occ. eigenvalues --   -0.84755  -0.83857  -0.83656  -0.82905  -0.82711
 Alpha  occ. eigenvalues --   -0.82567  -0.82290  -0.81754  -0.81398  -0.80687
 Alpha  occ. eigenvalues --   -0.80185  -0.78836  -0.78239  -0.77248  -0.77015
 Alpha  occ. eigenvalues --   -0.76850  -0.76690  -0.76028  -0.75573  -0.74872
 Alpha  occ. eigenvalues --   -0.74561  -0.72826  -0.72412  -0.71732  -0.71331
 Alpha  occ. eigenvalues --   -0.69723  -0.69527  -0.68947  -0.68564  -0.67716
 Alpha  occ. eigenvalues --   -0.67333  -0.67300  -0.66911  -0.65390  -0.65036
 Alpha  occ. eigenvalues --   -0.64957  -0.64676  -0.64523  -0.64419  -0.64208
 Alpha  occ. eigenvalues --   -0.63964  -0.62474  -0.62090  -0.60446  -0.59958
 Alpha  occ. eigenvalues --   -0.59894  -0.59539  -0.59053  -0.58736  -0.58579
 Alpha  occ. eigenvalues --   -0.58163  -0.57796  -0.57350  -0.57327  -0.56947
 Alpha  occ. eigenvalues --   -0.56414  -0.56172  -0.55911  -0.55669  -0.55580
 Alpha  occ. eigenvalues --   -0.55383  -0.55137  -0.55023  -0.54570  -0.54294
 Alpha  occ. eigenvalues --   -0.53998  -0.53677  -0.53337  -0.53301  -0.53045
 Alpha  occ. eigenvalues --   -0.52961  -0.52845  -0.52775  -0.52660  -0.52235
 Alpha  occ. eigenvalues --   -0.52199  -0.52160  -0.52024  -0.51707  -0.51646
 Alpha  occ. eigenvalues --   -0.51354  -0.51260  -0.50958  -0.50525  -0.49999
 Alpha  occ. eigenvalues --   -0.49990  -0.49865  -0.49611  -0.49588  -0.49534
 Alpha  occ. eigenvalues --   -0.49314  -0.49198  -0.49163  -0.48881  -0.48854
 Alpha  occ. eigenvalues --   -0.48740  -0.48518  -0.48433  -0.48317  -0.48159
 Alpha  occ. eigenvalues --   -0.47962  -0.47730  -0.47335  -0.47277  -0.46823
 Alpha  occ. eigenvalues --   -0.46759  -0.46652  -0.46453  -0.46427  -0.46292
 Alpha  occ. eigenvalues --   -0.46209  -0.45978  -0.45959  -0.45834  -0.45619
 Alpha  occ. eigenvalues --   -0.45154  -0.44971  -0.44714  -0.44516  -0.44284
 Alpha  occ. eigenvalues --   -0.44237  -0.44219  -0.44098  -0.44033  -0.43880
 Alpha  occ. eigenvalues --   -0.43806  -0.43645  -0.43546  -0.43418  -0.43365
 Alpha  occ. eigenvalues --   -0.43140  -0.43097  -0.42960  -0.42750  -0.42645
 Alpha  occ. eigenvalues --   -0.42552  -0.42267  -0.41953  -0.41768  -0.41736
 Alpha  occ. eigenvalues --   -0.41578  -0.41421  -0.41222  -0.41204  -0.40910
 Alpha  occ. eigenvalues --   -0.40823  -0.40739  -0.40478  -0.40477  -0.40380
 Alpha  occ. eigenvalues --   -0.40335  -0.40269  -0.39974  -0.39221  -0.39199
 Alpha  occ. eigenvalues --   -0.38417  -0.38130  -0.37861  -0.37450  -0.37371
 Alpha  occ. eigenvalues --   -0.37290  -0.37020  -0.36971  -0.36931  -0.36628
 Alpha  occ. eigenvalues --   -0.36248  -0.36000  -0.34360  -0.34116  -0.33989
 Alpha  occ. eigenvalues --   -0.33712  -0.33258  -0.32900  -0.31336  -0.31096
 Alpha  occ. eigenvalues --   -0.30940  -0.30702  -0.30228  -0.29727  -0.29527
 Alpha  occ. eigenvalues --   -0.29410  -0.29003  -0.28903  -0.24142  -0.23765
 Alpha  occ. eigenvalues --   -0.21183  -0.20824
 Alpha virt. eigenvalues --   -0.08836  -0.08483  -0.01783  -0.01410  -0.00107
 Alpha virt. eigenvalues --    0.00309   0.02083   0.02459   0.02780   0.03703
 Alpha virt. eigenvalues --    0.04644   0.04769   0.04968   0.05311   0.06035

 Mulliken charges:
               1
     1  Mg   0.838880
     2  C   -0.004406
     3  C   -0.093842
     4  C   -0.045240
     5  C   -0.062319
     6  N   -0.257089
     7  C   -0.052615
     8  C   -0.014171
     9  C   -0.087159
    10  C    0.046763
    11  C    0.104709
    12  C    0.053349
    13  C   -0.071465
    14  H    0.033976
    15  N   -0.433423
    16  C    0.169290
    17  C   -0.176216
    18  C   -0.003122
    19  C    0.149208
    20  C    0.109904
    21  C    0.013097
    22  O   -0.248983
    23  C    0.061925
    24  N   -0.341539
    25  C    0.042227
    26  C   -0.028207
    27  C   -0.023900
    28  C    0.075483
    29  C    0.076213
    30  C    0.034466
    31  C   -0.005975
    32  N   -0.309289
    33  C    0.078227
    34  C   -0.172990
    35  C    0.005840
    36  C    0.080375
    37  C    0.127597
    38  C    0.042329
    39  O   -0.190305
    40  C   -0.004369
    41  C    0.213816
    42  O   -0.262110
    43  O   -0.303505
    44  C    0.158252
    45  H   -0.017178
    46  H   -0.016058
    47  H   -0.040390
    48  H    0.000525
    49  H   -0.003543
    50  H    0.025361
    51  H    0.016851
    52  H    0.016994
    53  H    0.012524
    54  H    0.041981
    55  H    0.018158
    56  H    0.019117
    57  H    0.006037
    58  H    0.027167
    59  H    0.041897
    60  H    0.037203
    61  H    0.036313
    62  H    0.033452
    63  H    0.017539
    64  H    0.008880
    65  H    0.023376
    66  H    0.011965
    67  H    0.004880
    68  H    0.005361
    69  H    0.005680
    70  H    0.005601
    71  H    0.030318
    72  H    0.027131
    73  H    0.044787
    74  H    0.010929
    75  H    0.046321
    76  H    0.035748
    77  H    0.043435
    78  H    0.047342
    79  H    0.050910
    80  Mg   0.836502
    81  C   -0.017066
    82  C   -0.084535
    83  C   -0.046114
    84  C   -0.065074
    85  N   -0.254439
    86  C   -0.050978
    87  C   -0.015048
    88  C   -0.090634
    89  C    0.045155
    90  C    0.114390
    91  C    0.062061
    92  C   -0.077094
    93  H    0.032086
    94  N   -0.423883
    95  C    0.162789
    96  C   -0.171511
    97  C   -0.008545
    98  C    0.151993
    99  C    0.096630
   100  C    0.015310
   101  O   -0.257394
   102  C    0.059500
   103  N   -0.350129
   104  C    0.038184
   105  C   -0.019783
   106  C   -0.034404
   107  C    0.088279
   108  C    0.073983
   109  C    0.034942
   110  C   -0.007299
   111  N   -0.323711
   112  C    0.077276
   113  C   -0.164212
   114  C    0.001702
   115  C    0.095235
   116  C    0.131742
   117  C    0.041397
   118  O   -0.189739
   119  C    0.001134
   120  C    0.211214
   121  O   -0.252092
   122  O   -0.305410
   123  C    0.152474
   124  H   -0.018418
   125  H   -0.016591
   126  H   -0.041429
   127  H   -0.001452
   128  H   -0.003320
   129  H    0.021932
   130  H    0.014647
   131  H    0.016110
   132  H    0.015580
   133  H    0.036516
   134  H    0.020584
   135  H    0.020000
   136  H    0.009018
   137  H    0.024331
   138  H    0.058850
   139  H    0.039784
   140  H    0.031085
   141  H    0.045104
   142  H    0.013539
   143  H    0.011737
   144  H    0.024129
   145  H    0.011784
   146  H    0.005348
   147  H    0.005294
   148  H    0.003217
   149  H    0.010410
   150  H    0.018161
   151  H    0.030295
   152  H    0.044835
   153  H    0.007909
   154  H    0.046137
   155  H    0.034521
   156  H    0.043411
   157  H    0.049281
   158  H    0.052476
 Sum of Mulliken charges =  -0.00000

 Dipole moment (field-independent basis, Debye):
    X=              2.8674    Y=              3.1055    Z=              0.7624  Tot=              4.2951
 Quadrupole moment (field-independent basis, Debye-Ang):
   XX=           -530.5966   YY=           -463.4204   ZZ=           -518.5157
   XY=              4.7446   XZ=             47.2103   YZ=             17.9456

 Normal termination of Gaussian 16 at Thu Sep  9 15:13:44 2021.
