 Gaussian 16, Revision A.03,
 Gaussian 16:  ES64L-G16RevA.03 25-Dec-2016

 -----------------------------------
 #p cam-b3lyp/Def2SVP td=(nstates=5)
 -----------------------------------

 --------------------------------
 TDDFT excited states in gaussian
 --------------------------------
 Symbolic Z-matrix:
 Charge =  0 Multiplicity = 1

                         Standard orientation:
 ---------------------------------------------------------------------
 Center     Atomic      Atomic             Coordinates (Angstroms)
 Number     Number       Type             X           Y           Z
 ---------------------------------------------------------------------
      1         12           0       -3.880912   -0.733245    0.118665
      2          6           0       -4.039892    2.836162    0.333782
      3          6           0       -4.784710   -0.427352   -3.157406
      4          6           0       -4.189862   -3.887900    0.022126
      5          6           0       -4.108938   -0.805488    3.595510
      6          7           0       -4.325915    1.034095   -1.137969
      7          6           0       -4.292485    2.349785   -0.950850
      8          6           0       -4.476594    3.165642   -2.265329
      9          6           0       -5.250727    2.074458   -3.132528
     10          6           0       -4.730213    0.816162   -2.460458
     11          6           0       -6.766128    2.128365   -2.967737
     12          6           0       -3.108556    3.553275   -2.921029
     13          6           0       -3.188494    4.618610   -4.018310
     14          1           0       -2.102767    5.579482   -4.141885
     15          7           0       -3.930200   -1.969185   -1.421748
     16          6           0       -4.308505   -1.670578   -2.687846
     17          6           0       -4.170987   -2.923813   -3.460616
     18          6           0       -3.863830   -4.019487   -2.499758
     19          6           0       -4.010107   -3.331944   -1.242274
     20          6           0       -4.280811   -2.986390   -4.953188
     21          6           0       -3.506993   -5.460474   -2.685108
     22          8           0       -3.507729   -6.291751   -1.713742
     23          6           0       -3.238992   -5.898393   -4.066935
     24          7           0       -4.336497   -2.160596    1.572194
     25          6           0       -4.349129   -3.465315    1.278033
     26          6           0       -4.418273   -4.304293    2.519514
     27          6           0       -4.204571   -3.301203    3.743400
     28          6           0       -4.126946   -1.973686    2.949711
     29          6           0       -5.720990   -5.089650    2.724827
     30          6           0       -3.062260   -3.635399    4.735295
     31          6           0       -1.724318   -3.486684    4.046169
     32          7           0       -3.868102    0.731726    1.720146
     33          6           0       -3.998213    0.480513    3.093695
     34          6           0       -4.040603    1.789934    3.770221
     35          6           0       -3.948281    2.718188    2.735008
     36          6           0       -3.880616    2.032467    1.488613
     37          6           0       -4.209819    2.001168    5.167068
     38          6           0       -3.915868    4.130208    2.390036
     39          8           0       -3.848027    5.178662    3.033180
     40          6           0       -4.096640    4.265160    0.813667
     41          6           0       -3.043318    5.216657    0.315196
     42          8           0       -1.833818    4.912521    0.359674
     43          8           0       -3.631992    6.224000   -0.347575
     44          6           0       -2.640627    7.188814   -0.893911
     45          1           0       -5.289467   -0.468662   -4.124595
     46          1           0       -4.190248   -4.979671    0.043921
     47          1           0       -4.093905   -0.750594    4.685562
     48          1           0       -5.088701    4.061794   -2.162078
     49          1           0       -4.948683    2.097558   -4.179408
     50          1           0       -7.056823    2.824546   -2.181130
     51          1           0       -7.066946    1.113224   -2.707950
     52          1           0       -7.251481    2.350685   -3.918412
     53          1           0       -2.739205    2.711305   -3.506458
     54          1           0       -2.393017    3.870764   -2.161733
     55          1           0       -4.151597    5.129726   -4.008191
     56          1           0       -3.158686    4.116023   -4.985118
     57          1           0       -4.674914   -2.058159   -5.365032
     58          1           0       -5.041662   -3.731265   -5.185515
     59          1           0       -3.337480   -3.265641   -5.422738
     60          1           0       -4.119324   -5.709169   -4.681556
     61          1           0       -2.913436   -6.935607   -3.995873
     62          1           0       -2.437844   -5.286298   -4.482206
     63          1           0       -3.627828   -5.053639    2.529617
     64          1           0       -5.091469   -3.229937    4.373485
     65          1           0       -5.572150   -6.164442    2.831476
     66          1           0       -6.383646   -4.867672    1.888823
     67          1           0       -6.323448   -4.762257    3.571748
     68          1           0       -3.138876   -4.670280    5.067104
     69          1           0       -3.063373   -3.001776    5.622296
     70          1           0       -1.603541   -4.443735    3.539911
     71          1           0       -0.933388   -3.330957    4.780601
     72          1           0       -1.755817   -2.713526    3.278236
     73          1           0       -3.499495    2.779322    5.446144
     74          1           0       -4.034898    1.084704    5.730183
     75          1           0       -5.252132    2.318103    5.198555
     76          1           0       -5.103952    4.644633    0.645011
     77          1           0       -2.905646    8.173733   -0.509290
     78          1           0       -2.638356    7.051766   -1.975400
     79          1           0       -1.619186    7.091599   -0.524387
     80         12           0        4.063248   -0.822332    0.034113
     81          6           0        3.743877    2.746463    0.236008
     82          6           0        3.305258   -0.552999   -3.280624
     83          6           0        3.893633   -3.988568   -0.082560
     84          6           0        3.664636   -0.914652    3.495083
     85          7           0        3.604690    0.925380   -1.241606
     86          6           0        3.573199    2.238176   -1.068575
     87          6           0        3.425993    3.056352   -2.379487
     88          6           0        2.733766    1.929143   -3.290019
     89          6           0        3.271603    0.683767   -2.588262
     90          6           0        1.217712    1.918767   -3.186013
     91          6           0        4.812155    3.498154   -2.967177
     92          6           0        4.735318    4.556565   -4.069720
     93          1           0        5.791399    5.562394   -4.143810
     94          7           0        4.143439   -2.056400   -1.518044
     95          6           0        3.821420   -1.775786   -2.798215
     96          6           0        4.032026   -3.023358   -3.548794
     97          6           0        4.346645   -4.107071   -2.578590
     98          6           0        4.114578   -3.415435   -1.326435
     99          6           0        4.005948   -3.085033   -5.048433
    100          6           0        4.771996   -5.533968   -2.749618
    101          8           0        4.759509   -6.362171   -1.771485
    102          6           0        5.114361   -5.956786   -4.115446
    103          7           0        3.604745   -2.263291    1.460919
    104          6           0        3.655182   -3.573170    1.161595
    105          6           0        3.557605   -4.421474    2.407089
    106          6           0        3.674797   -3.400581    3.632496
    107          6           0        3.732833   -2.070700    2.849270
    108          6           0        2.278461   -5.245575    2.552140
    109          6           0        4.780986   -3.687752    4.684425
    110          6           0        6.145923   -3.495234    4.063723
    111          7           0        3.943364    0.634238    1.625365
    112          6           0        3.749838    0.380725    3.001006
    113          6           0        3.621050    1.690922    3.671252
    114          6           0        3.726396    2.622588    2.627523
    115          6           0        3.887795    1.940597    1.391273
    116          6           0        3.386007    1.895270    5.060178
    117          6           0        3.727109    4.027647    2.289127
    118          8           0        3.713352    5.076173    2.932668
    119          6           0        3.611706    4.167190    0.710011
    120          6           0        4.648379    5.157176    0.254202
    121          8           0        5.860027    4.902353    0.370715
    122          8           0        4.044550    6.140115   -0.438327
    123          6           0        5.033080    7.140947   -0.920980
    124          1           0        2.856013   -0.604557   -4.272802
    125          1           0        3.936587   -5.079751   -0.051843
    126          1           0        3.636362   -0.855762    4.585230
    127          1           0        2.779389    3.922382   -2.304254
    128          1           0        3.092497    1.974095   -4.315031
    129          1           0        0.861516    2.595892   -2.423936
    130          1           0        0.946462    0.899649   -2.943400
    131          1           0        0.771418    2.124967   -4.163071
    132          1           0        5.241710    2.664150   -3.536963
    133          1           0        5.466539    3.835750   -2.187152
    134          1           0        3.747968    5.031838   -4.116770
    135          1           0        4.839376    4.058505   -5.036736
    136          1           0        3.587089   -2.168296   -5.481513
    137          1           0        3.290254   -3.867190   -5.323903
    138          1           0        4.980024   -3.330503   -5.476906
    139          1           0        4.258964   -5.797918   -4.767767
    140          1           0        5.479133   -6.981467   -4.021366
    141          1           0        5.919006   -5.313857   -4.489374
    142          1           0        4.376778   -5.128135    2.458838
    143          1           0        2.751647   -3.373407    4.229905
    144          1           0        2.468211   -6.329559    2.666318
    145          1           0        1.651952   -5.057913    1.690278
    146          1           0        1.631023   -4.952067    3.376691
    147          1           0        4.732389   -4.729681    5.010293
    148          1           0        4.704053   -3.068785    5.572089
    149          1           0        6.325126   -4.450129    3.560583
    150          1           0        6.893168   -3.307623    4.832141
    151          1           0        6.121448   -2.716052    3.293042
    152          1           0        4.042345    2.696661    5.372408
    153          1           0        3.566262    0.987194    5.631740
    154          1           0        2.326647    2.164816    5.041131
    155          1           0        2.598605    4.501948    0.483887
    156          1           0        4.705879    8.117442   -0.550729
    157          1           0        5.080917    7.008485   -2.018204
    158          1           0        6.037703    7.087765   -0.518030
 ---------------------------------------------------------------------

 SCF Done:  E(RCAM-B3LYP) =  -4069.81140879     A.U. after   19 cycles

 Excitation energies and oscillator strengths:

 Excited State   1:      Singlet-A      1.6379 eV  756.97 nm  f=0.0018  <S**2>=0.000
     309 -> 315       -0.11392
     310 -> 316        0.11830
     311 -> 313       -0.47480
     312 -> 314        0.49828
 This state for optimization and/or second-order correction.
 Total Energy, E(TD-HF/TD-DFT) =  -4069.75121663
 Copying the excited state density for this state as the 1-particle RhoCI density.

 Excited State   2:      Singlet-A      1.7121 eV  724.14 nm  f=0.6770  <S**2>=0.000
     309 -> 315        0.13346
     310 -> 316        0.12584
     311 -> 313        0.49489
     312 -> 314        0.47160

 Excited State   3:      Singlet-A      2.1774 eV  569.42 nm  f=0.0094  <S**2>=0.000
     309 -> 313       -0.34322
     310 -> 314        0.54772
     311 -> 315        0.14009
     312 -> 316       -0.22544

 Excited State   4:      Singlet-A      2.1981 eV  564.06 nm  f=0.1577  <S**2>=0.000
     309 -> 313        0.54126
     310 -> 314        0.33689
     311 -> 315       -0.24070
     312 -> 316       -0.15156

 Excited State   5:      Singlet-A      2.2324 eV  555.40 nm  f=0.0000  <S**2>=0.000
     312 -> 313        0.70709

 The electronic state is 1-A.
 Alpha  occ. eigenvalues --  -46.87908 -46.87370 -19.26371 -19.26002 -19.19126
 Alpha  occ. eigenvalues --  -19.18885 -19.18807 -19.18467 -19.18220 -19.17618
 Alpha  occ. eigenvalues --  -14.42577 -14.42212 -14.41564 -14.41070 -14.39511
 Alpha  occ. eigenvalues --  -14.39064 -14.38688 -14.38285 -10.39184 -10.38719
 Alpha  occ. eigenvalues --  -10.35520 -10.35152 -10.34445 -10.33784 -10.31745
 Alpha  occ. eigenvalues --  -10.31533 -10.31491 -10.31045 -10.30996 -10.30732
 Alpha  occ. eigenvalues --  -10.30682 -10.30604 -10.30327 -10.30085 -10.30041
 Alpha  occ. eigenvalues --  -10.30022 -10.29901 -10.29731 -10.29586 -10.29363
 Alpha  occ. eigenvalues --  -10.29173 -10.29097 -10.28944 -10.28848 -10.28496
 Alpha  occ. eigenvalues --  -10.28470 -10.28421 -10.28289 -10.28081 -10.27886
 Alpha  occ. eigenvalues --  -10.27872 -10.27854 -10.27687 -10.27684 -10.27638
 Alpha  occ. eigenvalues --  -10.27634 -10.27560 -10.27519 -10.27403 -10.27315
 Alpha  occ. eigenvalues --  -10.27310 -10.27246 -10.27176 -10.27161 -10.27131
 Alpha  occ. eigenvalues --  -10.27002 -10.26539 -10.26494 -10.26467 -10.26377
 Alpha  occ. eigenvalues --  -10.26363 -10.26246 -10.26137 -10.25969 -10.25903
 Alpha  occ. eigenvalues --  -10.25723 -10.25664 -10.25525 -10.25504 -10.25135
 Alpha  occ. eigenvalues --  -10.24925 -10.24922 -10.24891 -10.24559 -10.24533
 Alpha  occ. eigenvalues --  -10.24385  -3.16650  -3.16120  -1.91531  -1.91119
 Alpha  occ. eigenvalues --   -1.91003  -1.90960  -1.90591  -1.90428  -1.16722
 Alpha  occ. eigenvalues --   -1.16294  -1.08674  -1.08208  -1.07281  -1.06739
 Alpha  occ. eigenvalues --   -1.06723  -1.06590  -1.04707  -1.04197  -1.03876
 Alpha  occ. eigenvalues --   -1.03369  -1.03339  -1.02745  -1.02519  -1.01808
 Alpha  occ. eigenvalues --   -0.92077  -0.91629  -0.89649  -0.89369  -0.89228
 Alpha  occ. eigenvalues --   -0.88876  -0.88412  -0.87965  -0.87961  -0.87813
 Alpha  occ. eigenvalues --   -0.87468  -0.87407  -0.87384  -0.86880  -0.85151
 Alpha  occ. eigenvalues --   -0.84733  -0.84068  -0.83622  -0.83075  -0.82791
 Alpha  occ. eigenvalues --   -0.82713  -0.82386  -0.81689  -0.81284  -0.80709
 Alpha  occ. eigenvalues --   -0.80148  -0.78907  -0.78366  -0.77363  -0.77083
 Alpha  occ. eigenvalues --   -0.76885  -0.76622  -0.76048  -0.75540  -0.75014
 Alpha  occ. eigenvalues --   -0.74528  -0.72886  -0.72403  -0.71789  -0.71284
 Alpha  occ. eigenvalues --   -0.70060  -0.69534  -0.69026  -0.68560  -0.67750
 Alpha  occ. eigenvalues --   -0.67400  -0.67307  -0.66961  -0.65446  -0.64982
 Alpha  occ. eigenvalues --   -0.64968  -0.64750  -0.64482  -0.64395  -0.64365
 Alpha  occ. eigenvalues --   -0.63941  -0.62395  -0.61965  -0.60551  -0.60082
 Alpha  occ. eigenvalues --   -0.59956  -0.59508  -0.59102  -0.58694  -0.58613
 Alpha  occ. eigenvalues --   -0.58115  -0.57677  -0.57417  -0.57161  -0.56933
 Alpha  occ. eigenvalues --   -0.56417  -0.56092  -0.55918  -0.55628  -0.55585
 Alpha  occ. eigenvalues --   -0.55455  -0.55180  -0.54964  -0.54640  -0.54204
 Alpha  occ. eigenvalues --   -0.54074  -0.53646  -0.53410  -0.53358  -0.53039
 Alpha  occ. eigenvalues --   -0.52960  -0.52889  -0.52865  -0.52621  -0.52594
 Alpha  occ. eigenvalues --   -0.52445  -0.52182  -0.51994  -0.51777  -0.51540
 Alpha  occ. eigenvalues --   -0.51402  -0.51308  -0.50889  -0.50696  -0.50277
 Alpha  occ. eigenvalues --   -0.50176  -0.50042  -0.49729  -0.49650  -0.49617
 Alpha  occ. eigenvalues --   -0.49325  -0.49235  -0.49227  -0.48897  -0.48791
 Alpha  occ. eigenvalues --   -0.48702  -0.48564  -0.48531  -0.48257  -0.48116
 Alpha  occ. eigenvalues --   -0.48053  -0.47824  -0.47410  -0.47334  -0.46933
 Alpha  occ. eigenvalues --   -0.46869  -0.46723  -0.46474  -0.46443  -0.46300
 Alpha  occ. eigenvalues --   -0.46265  -0.46005  -0.45919  -0.45780  -0.45497
 Alpha  occ. eigenvalues --   -0.45317  -0.44931  -0.44676  -0.44653  -0.44277
 Alpha  occ. eigenvalues --   -0.44240  -0.44232  -0.44191  -0.44116  -0.43846
 Alpha  occ. eigenvalues --   -0.43824  -0.43637  -0.43597  -0.43525  -0.43260
 Alpha  occ. eigenvalues --   -0.43140  -0.43099  -0.42822  -0.42766  -0.42626
 Alpha  occ. eigenvalues --   -0.42567  -0.42310  -0.42159  -0.41814  -0.41711
 Alpha  occ. eigenvalues --   -0.41701  -0.41324  -0.41261  -0.41201  -0.41038
 Alpha  occ. eigenvalues --   -0.40941  -0.40710  -0.40695  -0.40487  -0.40459
 Alpha  occ. eigenvalues --   -0.40449  -0.40229  -0.39993  -0.39606  -0.39212
 Alpha  occ. eigenvalues --   -0.38611  -0.38103  -0.37960  -0.37450  -0.37423
 Alpha  occ. eigenvalues --   -0.37411  -0.37003  -0.36922  -0.36818  -0.36456
 Alpha  occ. eigenvalues --   -0.36314  -0.35935  -0.34397  -0.33954  -0.33873
 Alpha  occ. eigenvalues --   -0.33513  -0.33297  -0.32878  -0.31417  -0.31149
 Alpha  occ. eigenvalues --   -0.31025  -0.30667  -0.30080  -0.29546  -0.29515
 Alpha  occ. eigenvalues --   -0.29410  -0.29045  -0.28866  -0.24194  -0.23725
 Alpha  occ. eigenvalues --   -0.21242  -0.20824
 Alpha virt. eigenvalues --   -0.08879  -0.08487  -0.01861  -0.01401  -0.00157
 Alpha virt. eigenvalues --    0.00251   0.02113   0.02406   0.02669   0.03622
 Alpha virt. eigenvalues --    0.04551   0.04932   0.05046   0.05536   0.05895

 Mulliken charges:
               1
     1  Mg   0.838635
     2  C   -0.003498
     3  C   -0.095326
     4  C   -0.045191
     5  C   -0.063900
     6  N   -0.256580
     7  C   -0.053364
     8  C   -0.013484
     9  C   -0.086853
    10  C    0.045975
    11  C    0.104795
    12  C    0.050581
    13  C   -0.071184
    14  H    0.034257
    15  N   -0.433311
    16  C    0.168329
    17  C   -0.177929
    18  C   -0.003623
    19  C    0.149145
    20  C    0.110383
    21  C    0.013386
    22  O   -0.248539
    23  C    0.062487
    24  N   -0.340952
    25  C    0.041019
    26  C   -0.028649
    27  C   -0.024159
    28  C    0.074739
    29  C    0.076020
    30  C    0.036232
    31  C   -0.010741
    32  N   -0.310734
    33  C    0.080796
    34  C   -0.169534
    35  C    0.009079
    36  C    0.083341
    37  C    0.127043
    38  C    0.047059
    39  O   -0.186368
    40  C   -0.005995
    41  C    0.214160
    42  O   -0.258215
    43  O   -0.304831
    44  C    0.156568
    45  H   -0.017906
    46  H   -0.016350
    47  H   -0.041485
    48  H    0.001543
    49  H   -0.005018
    50  H    0.025871
    51  H    0.016869
    52  H    0.016636
    53  H    0.010477
    54  H    0.044662
    55  H    0.019371
    56  H    0.016938
    57  H    0.005239
    58  H    0.027258
    59  H    0.037863
    60  H    0.036970
    61  H    0.036738
    62  H    0.030296
    63  H    0.017042
    64  H    0.009916
    65  H    0.023605
    66  H    0.012750
    67  H    0.004897
    68  H    0.006460
    69  H    0.004477
    70  H    0.012230
    71  H    0.017394
    72  H    0.031317
    73  H    0.048796
    74  H    0.008745
    75  H    0.046351
    76  H    0.035370
    77  H    0.044254
    78  H    0.044965
    79  H    0.055545
    80  Mg   0.836665
    81  C   -0.014781
    82  C   -0.088237
    83  C   -0.045328
    84  C   -0.065641
    85  N   -0.254537
    86  C   -0.047859
    87  C   -0.014962
    88  C   -0.091906
    89  C    0.045572
    90  C    0.110348
    91  C    0.062755
    92  C   -0.076907
    93  H    0.033948
    94  N   -0.423384
    95  C    0.162556
    96  C   -0.176193
    97  C   -0.008145
    98  C    0.151517
    99  C    0.100195
   100  C    0.015105
   101  O   -0.253353
   102  C    0.061559
   103  N   -0.350329
   104  C    0.037239
   105  C   -0.020409
   106  C   -0.034812
   107  C    0.089642
   108  C    0.073073
   109  C    0.034678
   110  C   -0.007365
   111  N   -0.324898
   112  C    0.079576
   113  C   -0.162394
   114  C    0.005185
   115  C    0.095495
   116  C    0.130613
   117  C    0.046498
   118  O   -0.185882
   119  C   -0.001924
   120  C    0.210105
   121  O   -0.252461
   122  O   -0.304382
   123  C    0.152411
   124  H   -0.022178
   125  H   -0.015784
   126  H   -0.041416
   127  H    0.001842
   128  H   -0.006397
   129  H    0.033597
   130  H    0.013420
   131  H    0.011748
   132  H    0.013243
   133  H    0.037749
   134  H    0.019864
   135  H    0.018454
   136  H    0.007188
   137  H    0.023483
   138  H    0.038984
   139  H    0.036998
   140  H    0.035827
   141  H    0.033425
   142  H    0.013791
   143  H    0.011303
   144  H    0.024355
   145  H    0.013948
   146  H    0.004714
   147  H    0.005492
   148  H    0.002980
   149  H    0.010805
   150  H    0.017405
   151  H    0.030583
   152  H    0.045735
   153  H    0.006719
   154  H    0.050454
   155  H    0.047544
   156  H    0.043255
   157  H    0.048112
   158  H    0.052954
 Sum of Mulliken charges =  -0.00000

 Dipole moment (field-independent basis, Debye):
    X=             -4.1534    Y=             -1.9184    Z=             -7.2071  Tot=              8.5366
 Quadrupole moment (field-independent basis, Debye-Ang):
   XX=           -516.6101   YY=           -551.1816   ZZ=           -449.2372
   XY=             -3.3299   XZ=             -0.4208   YZ=            -47.6064

 Normal termination of Gaussian 16 at Thu Sep  9 07:24:30 2021.
