 Gaussian 16, Revision A.03,
 Gaussian 16:  ES64L-G16RevA.03 25-Dec-2016

 -----------------------------------
 #p cam-b3lyp/Def2SVP td=(nstates=5)
 -----------------------------------

 --------------------------------
 TDDFT excited states in gaussian
 --------------------------------
 Symbolic Z-matrix:
 Charge =  0 Multiplicity = 1

                         Standard orientation:
 ---------------------------------------------------------------------
 Center     Atomic      Atomic             Coordinates (Angstroms)
 Number     Number       Type             X           Y           Z
 ---------------------------------------------------------------------
      1         12           0        4.308352    1.000348    0.468491
      2          6           0        5.150752   -1.819459   -1.568975
      3          6           0        4.713072    2.940157   -2.309351
      4          6           0        4.014797    3.546131    2.336493
      5          6           0        5.076406   -0.962332    3.244034
      6          7           0        4.861068    0.506275   -1.617425
      7          6           0        5.099698   -0.619823   -2.282354
      8          6           0        5.215862   -0.415136   -3.822478
      9          6           0        5.627111    1.125161   -3.841399
     10          6           0        5.000193    1.560094   -2.528489
     11          6           0        7.133171    1.354629   -3.766370
     12          6           0        3.854473   -0.653696   -4.558303
     13          6           0        3.950283   -0.794727   -6.080238
     14          1           0        3.053369   -1.720356   -6.755593
     15          7           0        3.881679    2.876360    0.019739
     16          6           0        4.099259    3.495121   -1.165622
     17          6           0        3.611927    4.881084   -0.997409
     18          6           0        3.268226    5.071354    0.439170
     19          6           0        3.738564    3.831155    1.001367
     20          6           0        3.466513    5.845803   -2.134037
     21          6           0        2.628456    6.197213    1.188349
     22          8           0        2.633455    6.253947    2.465584
     23          6           0        2.065743    7.290991    0.375917
     24          7           0        4.723002    1.336222    2.486631
     25          6           0        4.448966    2.512701    3.060900
     26          6           0        4.562415    2.430895    4.554345
     27          6           0        4.736009    0.881723    4.900297
     28          6           0        4.775930    0.320734    3.457394
     29          6           0        5.715071    3.226363    5.182537
     30          6           0        3.726800    0.267684    5.902730
     31          6           0        2.345467    0.239134    5.287749
     32          7           0        4.822176   -1.078386    0.823308
     33          6           0        5.123648   -1.673687    2.056761
     34          6           0        5.513507   -3.068392    1.779500
     35          6           0        5.427159   -3.183528    0.393451
     36          6           0        5.035178   -1.932195   -0.162254
     37          6           0        5.941332   -4.021790    2.745126
     38          6           0        5.598690   -4.065741   -0.749411
     39          8           0        5.828486   -5.267766   -0.890207
     40          6           0        5.544751   -3.184864   -2.074919
     41          6           0        4.617149   -3.871859   -3.039752
     42          8           0        3.395650   -3.960245   -2.799971
     43          8           0        5.265716   -4.103788   -4.191321
     44          6           0        4.392928   -4.757339   -5.202886
     45          1           0        5.039203    3.671450   -3.051503
     46          1           0        3.818779    4.368319    3.027884
     47          1           0        5.247493   -1.658047    4.067542
     48          1           0        5.990206   -1.013137   -4.303321
     49          1           0        5.169757    1.658269   -4.674673
     50          1           0        7.669287    0.423799   -3.581825
     51          1           0        7.280884    2.049425   -2.939369
     52          1           0        7.491415    1.869700   -4.658077
     53          1           0        3.247792    0.249521   -4.493505
     54          1           0        3.341000   -1.523580   -4.147239
     55          1           0        4.979519   -0.957212   -6.401453
     56          1           0        3.673591    0.159011   -6.529712
     57          1           0        3.952325    5.477368   -3.036692
     58          1           0        4.030572    6.739362   -1.867392
     59          1           0        2.424889    6.109738   -2.317583
     60          1           0        2.855120    7.727138   -0.236627
     61          1           0        1.571550    7.962708    1.076931
     62          1           0        1.333960    6.875387   -0.317420
     63          1           0        3.660259    2.805582    5.036165
     64          1           0        5.710685    0.667398    5.339324
     65          1           0        5.391111    3.948626    5.932264
     66          1           0        6.263676    3.716480    4.378729
     67          1           0        6.495727    2.617557    5.637893
     68          1           0        3.665072    0.880038    6.801707
     69          1           0        3.986799   -0.745675    6.208923
     70          1           0        1.971538    1.243686    5.482389
     71          1           0        1.725256   -0.510547    5.780219
     72          1           0        2.393862    0.113383    4.205930
     73          1           0        5.439900   -4.956381    2.493983
     74          1           0        5.694608   -3.699201    3.756396
     75          1           0        7.015275   -4.029204    2.559526
     76          1           0        6.563955   -3.129277   -2.456041
     77          1           0        4.892250   -5.675546   -5.512414
     78          1           0        4.191397   -4.008106   -5.968680
     79          1           0        3.444064   -5.152054   -4.837926
     80         12           0       -4.456955   -1.052037    0.592911
     81          6           0       -4.811684    1.194721   -2.182933
     82          6           0       -4.174457    1.698297    2.590523
     83          6           0       -3.693673   -2.991014    2.985646
     84          6           0       -3.629903   -3.538781   -1.704432
     85          7           0       -4.503765    1.113403    0.144648
     86          6           0       -4.705964    1.849194   -0.937982
     87          6           0       -4.880398    3.366569   -0.661024
     88          6           0       -4.099266    3.446689    0.739797
     89          6           0       -4.296629    2.007793    1.212349
     90          6           0       -2.608667    3.698087    0.584142
     91          6           0       -6.386839    3.776003   -0.502907
     92          6           0       -6.650896    5.282894   -0.538903
     93          1           0       -7.882581    5.759003   -1.162408
     94          7           0       -4.485229   -0.745365    2.553455
     95          6           0       -4.381766    0.438232    3.193509
     96          6           0       -4.436847    0.125045    4.629842
     97          6           0       -4.415504   -1.354508    4.788489
     98          6           0       -4.170976   -1.762883    3.419714
     99          6           0       -4.582015    1.180135    5.687729
    100          6           0       -4.574450   -2.252731    5.977656
    101          8           0       -4.283095   -3.499726    5.923326
    102          6           0       -4.992186   -1.611052    7.232740
    103          7           0       -3.558295   -2.925683    0.657611
    104          6           0       -3.390481   -3.571998    1.824667
    105          6           0       -2.979860   -5.007578    1.599066
    106          6           0       -3.142285   -5.259078    0.028094
    107          6           0       -3.551300   -3.837146   -0.414870
    108          6           0       -1.557528   -5.367842    2.027504
    109          6           0       -4.035673   -6.453734   -0.404719
    110          6           0       -5.477263   -6.177923   -0.042594
    111          7           0       -4.428325   -1.233525   -1.559835
    112          6           0       -4.023502   -2.355350   -2.315949
    113          6           0       -4.069951   -1.961062   -3.738900
    114          6           0       -4.479702   -0.619504   -3.710479
    115          6           0       -4.655365   -0.200837   -2.363861
    116          6           0       -3.711637   -2.785357   -4.842660
    117          6           0       -4.793314    0.540821   -4.512973
    118          8           0       -4.904394    0.758854   -5.718733
    119          6           0       -4.900095    1.804282   -3.554515
    120          6           0       -6.156274    2.551670   -3.909417
    121          8           0       -7.272401    2.034433   -3.726895
    122          8           0       -5.842788    3.827556   -4.199610
    123          6           0       -7.057461    4.612108   -4.547270
    124          1           0       -3.847863    2.484442    3.271844
    125          1           0       -3.520720   -3.733098    3.768509
    126          1           0       -3.481113   -4.286212   -2.486666
    127          1           0       -4.409230    4.017999   -1.387259
    128          1           0       -4.581943    4.141661    1.421999
    129          1           0       -2.300118    3.663630   -0.450152
    130          1           0       -2.117970    2.918128    1.151529
    131          1           0       -2.332949    4.640388    1.066207
    132          1           0       -6.713067    3.552496    0.520992
    133          1           0       -6.994294    3.285033   -1.238142
    134          1           0       -5.787313    5.843793   -0.916488
    135          1           0       -6.773543    5.638315    0.487085
    136          1           0       -4.404235    2.183712    5.282004
    137          1           0       -3.767510    1.028646    6.404322
    138          1           0       -5.534987    1.117210    6.217412
    139          1           0       -4.269525   -0.845432    7.504860
    140          1           0       -5.137680   -2.426723    7.943656
    141          1           0       -5.945376   -1.097999    7.062994
    142          1           0       -3.634410   -5.685505    2.133011
    143          1           0       -2.176122   -5.472200   -0.452469
    144          1           0       -1.518723   -6.198193    2.757633
    145          1           0       -1.088755   -4.481631    2.434226
    146          1           0       -0.883652   -5.633310    1.214711
    147          1           0       -3.747202   -7.358030    0.136749
    148          1           0       -3.972477   -6.678772   -1.464135
    149          1           0       -5.528274   -6.473433    1.009613
    150          1           0       -6.147520   -6.778542   -0.654192
    151          1           0       -5.697909   -5.105433   -0.094847
    152          1           0       -4.467614   -2.634997   -5.601860
    153          1           0       -3.641959   -3.831392   -4.551576
    154          1           0       -2.734755   -2.362864   -5.092580
    155          1           0       -4.006053    2.409476   -3.709422
    156          1           0       -6.882717    5.050803   -5.534545
    157          1           0       -7.211932    5.312491   -3.705042
    158          1           0       -7.976182    4.063614   -4.719170
 ---------------------------------------------------------------------

 SCF Done:  E(RCAM-B3LYP) =  -4069.81234210     A.U. after   19 cycles

 Excitation energies and oscillator strengths:

 Excited State   1:      Singlet-A      1.6704 eV  742.24 nm  f=0.3183  <S**2>=0.000
     310 -> 316       -0.16500
     311 -> 313        0.20285
     312 -> 314        0.65540
 This state for optimization and/or second-order correction.
 Total Energy, E(TD-HF/TD-DFT) =  -4069.75095619
 Copying the excited state density for this state as the 1-particle RhoCI density.

 Excited State   2:      Singlet-A      1.6755 eV  739.98 nm  f=0.3532  <S**2>=0.000
     309 -> 315       -0.16599
     311 -> 313        0.65485
     312 -> 314       -0.20253

 Excited State   3:      Singlet-A      2.1835 eV  567.81 nm  f=0.0973  <S**2>=0.000
     309 -> 313        0.14636
     310 -> 314        0.62610
     312 -> 316        0.26419

 Excited State   4:      Singlet-A      2.1910 eV  565.87 nm  f=0.1003  <S**2>=0.000
     309 -> 313        0.62400
     310 -> 314       -0.14561
     311 -> 315        0.26944

 Excited State   5:      Singlet-A      2.3471 eV  528.24 nm  f=0.0000  <S**2>=0.000
     312 -> 313        0.70706

 The electronic state is 1-A.
 Alpha  occ. eigenvalues --  -46.87911 -46.87452 -19.26388 -19.26316 -19.19143
 Alpha  occ. eigenvalues --  -19.19098 -19.19017 -19.18554 -19.18293 -19.17930
 Alpha  occ. eigenvalues --  -14.42553 -14.42299 -14.41566 -14.41122 -14.39526
 Alpha  occ. eigenvalues --  -14.39152 -14.38701 -14.38398 -10.39199 -10.39024
 Alpha  occ. eigenvalues --  -10.35653 -10.35234 -10.34511 -10.34110 -10.31771
 Alpha  occ. eigenvalues --  -10.31753 -10.31496 -10.31122 -10.31015 -10.30851
 Alpha  occ. eigenvalues --  -10.30677 -10.30635 -10.30332 -10.30192 -10.30165
 Alpha  occ. eigenvalues --  -10.30043 -10.29877 -10.29758 -10.29645 -10.29380
 Alpha  occ. eigenvalues --  -10.29223 -10.29210 -10.28805 -10.28603 -10.28598
 Alpha  occ. eigenvalues --  -10.28514 -10.28485 -10.28225 -10.28173 -10.27993
 Alpha  occ. eigenvalues --  -10.27916 -10.27828 -10.27817 -10.27720 -10.27623
 Alpha  occ. eigenvalues --  -10.27599 -10.27588 -10.27516 -10.27463 -10.27298
 Alpha  occ. eigenvalues --  -10.27298 -10.27280 -10.27269 -10.27141 -10.27022
 Alpha  occ. eigenvalues --  -10.26948 -10.26725 -10.26651 -10.26598 -10.26299
 Alpha  occ. eigenvalues --  -10.26290 -10.26288 -10.26131 -10.25944 -10.25881
 Alpha  occ. eigenvalues --  -10.25813 -10.25681 -10.25656 -10.25568 -10.24955
 Alpha  occ. eigenvalues --  -10.24922 -10.24916 -10.24805 -10.24695 -10.24470
 Alpha  occ. eigenvalues --  -10.24463  -3.16653  -3.16202  -1.91535  -1.91121
 Alpha  occ. eigenvalues --   -1.91084  -1.90964  -1.90672  -1.90510  -1.16740
 Alpha  occ. eigenvalues --   -1.16603  -1.08750  -1.08548  -1.07425  -1.06885
 Alpha  occ. eigenvalues --   -1.06808  -1.06763  -1.04686  -1.04306  -1.03877
 Alpha  occ. eigenvalues --   -1.03455  -1.03354  -1.02813  -1.02529  -1.01897
 Alpha  occ. eigenvalues --   -0.92085  -0.91816  -0.89639  -0.89249  -0.89242
 Alpha  occ. eigenvalues --   -0.89001  -0.88409  -0.87982  -0.87930  -0.87770
 Alpha  occ. eigenvalues --   -0.87603  -0.87478  -0.87421  -0.86946  -0.85061
 Alpha  occ. eigenvalues --   -0.84842  -0.84059  -0.83597  -0.83140  -0.82750
 Alpha  occ. eigenvalues --   -0.82741  -0.82493  -0.81689  -0.81468  -0.80712
 Alpha  occ. eigenvalues --   -0.80286  -0.78926  -0.78451  -0.77321  -0.77015
 Alpha  occ. eigenvalues --   -0.76969  -0.76715  -0.76012  -0.75690  -0.75015
 Alpha  occ. eigenvalues --   -0.74518  -0.72886  -0.72494  -0.71779  -0.71361
 Alpha  occ. eigenvalues --   -0.70026  -0.69461  -0.68966  -0.68670  -0.67767
 Alpha  occ. eigenvalues --   -0.67415  -0.67300  -0.67065  -0.65366  -0.65127
 Alpha  occ. eigenvalues --   -0.64964  -0.64723  -0.64583  -0.64483  -0.64388
 Alpha  occ. eigenvalues --   -0.63939  -0.62407  -0.62142  -0.60583  -0.60135
 Alpha  occ. eigenvalues --   -0.59886  -0.59640  -0.59100  -0.58787  -0.58620
 Alpha  occ. eigenvalues --   -0.58236  -0.57699  -0.57437  -0.57436  -0.57019
 Alpha  occ. eigenvalues --   -0.56428  -0.56077  -0.56033  -0.55773  -0.55655
 Alpha  occ. eigenvalues --   -0.55458  -0.55313  -0.55025  -0.54639  -0.54270
 Alpha  occ. eigenvalues --   -0.53962  -0.53770  -0.53435  -0.53331  -0.53040
 Alpha  occ. eigenvalues --   -0.53034  -0.52984  -0.52884  -0.52752  -0.52560
 Alpha  occ. eigenvalues --   -0.52521  -0.52126  -0.52025  -0.51709  -0.51697
 Alpha  occ. eigenvalues --   -0.51524  -0.51303  -0.51027  -0.50734  -0.50302
 Alpha  occ. eigenvalues --   -0.50150  -0.50060  -0.49815  -0.49626  -0.49584
 Alpha  occ. eigenvalues --   -0.49334  -0.49332  -0.49176  -0.49057  -0.48954
 Alpha  occ. eigenvalues --   -0.48696  -0.48616  -0.48574  -0.48415  -0.48192
 Alpha  occ. eigenvalues --   -0.48092  -0.47807  -0.47418  -0.47413  -0.46907
 Alpha  occ. eigenvalues --   -0.46901  -0.46630  -0.46508  -0.46476  -0.46382
 Alpha  occ. eigenvalues --   -0.46277  -0.46065  -0.45921  -0.45854  -0.45666
 Alpha  occ. eigenvalues --   -0.45323  -0.44921  -0.44693  -0.44629  -0.44366
 Alpha  occ. eigenvalues --   -0.44302  -0.44267  -0.44168  -0.44140  -0.43975
 Alpha  occ. eigenvalues --   -0.43865  -0.43796  -0.43604  -0.43481  -0.43420
 Alpha  occ. eigenvalues --   -0.43199  -0.43137  -0.42829  -0.42817  -0.42770
 Alpha  occ. eigenvalues --   -0.42702  -0.42299  -0.42113  -0.41819  -0.41754
 Alpha  occ. eigenvalues --   -0.41607  -0.41492  -0.41282  -0.41244  -0.41004
 Alpha  occ. eigenvalues --   -0.40941  -0.40792  -0.40680  -0.40575  -0.40528
 Alpha  occ. eigenvalues --   -0.40278  -0.40218  -0.40115  -0.39561  -0.39128
 Alpha  occ. eigenvalues --   -0.38579  -0.38076  -0.37808  -0.37518  -0.37434
 Alpha  occ. eigenvalues --   -0.37341  -0.37052  -0.36998  -0.36827  -0.36666
 Alpha  occ. eigenvalues --   -0.36302  -0.35987  -0.34399  -0.34053  -0.33895
 Alpha  occ. eigenvalues --   -0.33771  -0.33304  -0.32966  -0.31544  -0.31153
 Alpha  occ. eigenvalues --   -0.31109  -0.30774  -0.30150  -0.29838  -0.29586
 Alpha  occ. eigenvalues --   -0.29444  -0.29145  -0.29029  -0.24194  -0.23827
 Alpha  occ. eigenvalues --   -0.21243  -0.20908
 Alpha virt. eigenvalues --   -0.08899  -0.08596  -0.01874  -0.01466  -0.00204
 Alpha virt. eigenvalues --    0.00137   0.02073   0.02374   0.02841   0.03487
 Alpha virt. eigenvalues --    0.04634   0.04922   0.04982   0.05241   0.06137

 Mulliken charges:
               1
     1  Mg   0.838934
     2  C   -0.002932
     3  C   -0.093407
     4  C   -0.046618
     5  C   -0.063771
     6  N   -0.256871
     7  C   -0.051961
     8  C   -0.014204
     9  C   -0.087104
    10  C    0.046369
    11  C    0.104727
    12  C    0.053230
    13  C   -0.072380
    14  H    0.037063
    15  N   -0.433057
    16  C    0.168186
    17  C   -0.177144
    18  C   -0.004669
    19  C    0.148556
    20  C    0.110039
    21  C    0.010863
    22  O   -0.250778
    23  C    0.062720
    24  N   -0.341205
    25  C    0.041463
    26  C   -0.027978
    27  C   -0.023988
    28  C    0.074971
    29  C    0.076196
    30  C    0.035125
    31  C   -0.004554
    32  N   -0.310533
    33  C    0.080641
    34  C   -0.169669
    35  C    0.008180
    36  C    0.083064
    37  C    0.127375
    38  C    0.045763
    39  O   -0.188430
    40  C   -0.005200
    41  C    0.213026
    42  O   -0.258023
    43  O   -0.304461
    44  C    0.157889
    45  H   -0.017136
    46  H   -0.017587
    47  H   -0.041104
    48  H    0.001070
    49  H   -0.003196
    50  H    0.025459
    51  H    0.016262
    52  H    0.017136
    53  H    0.012108
    54  H    0.043598
    55  H    0.017689
    56  H    0.019199
    57  H    0.006821
    58  H    0.026877
    59  H    0.039195
    60  H    0.038462
    61  H    0.034360
    62  H    0.030424
    63  H    0.015341
    64  H    0.009742
    65  H    0.022740
    66  H    0.012759
    67  H    0.005090
    68  H    0.005816
    69  H    0.005645
    70  H    0.006232
    71  H    0.020226
    72  H    0.029414
    73  H    0.047406
    74  H    0.009628
    75  H    0.046270
    76  H    0.035548
    77  H    0.043136
    78  H    0.047235
    79  H    0.052620
    80  Mg   0.837959
    81  C   -0.017397
    82  C   -0.088374
    83  C   -0.045605
    84  C   -0.061235
    85  N   -0.254674
    86  C   -0.050083
    87  C   -0.015002
    88  C   -0.090391
    89  C    0.045379
    90  C    0.114000
    91  C    0.062667
    92  C   -0.077463
    93  H    0.034248
    94  N   -0.423479
    95  C    0.162875
    96  C   -0.174742
    97  C   -0.008151
    98  C    0.152303
    99  C    0.099474
   100  C    0.015010
   101  O   -0.253273
   102  C    0.061364
   103  N   -0.350053
   104  C    0.038481
   105  C   -0.020670
   106  C   -0.035606
   107  C    0.089101
   108  C    0.072062
   109  C    0.034502
   110  C   -0.007485
   111  N   -0.324142
   112  C    0.078089
   113  C   -0.162470
   114  C    0.001455
   115  C    0.096534
   116  C    0.131885
   117  C    0.041782
   118  O   -0.189560
   119  C    0.001132
   120  C    0.211166
   121  O   -0.250850
   122  O   -0.306203
   123  C    0.152133
   124  H   -0.018863
   125  H   -0.015537
   126  H   -0.039139
   127  H   -0.002477
   128  H   -0.004327
   129  H    0.019947
   130  H    0.016197
   131  H    0.017373
   132  H    0.014187
   133  H    0.037495
   134  H    0.019685
   135  H    0.019852
   136  H    0.009179
   137  H    0.025598
   138  H    0.039257
   139  H    0.037701
   140  H    0.035909
   141  H    0.033842
   142  H    0.013465
   143  H    0.018180
   144  H    0.023738
   145  H    0.011502
   146  H    0.012784
   147  H    0.006712
   148  H    0.003749
   149  H    0.010534
   150  H    0.017095
   151  H    0.029346
   152  H    0.044795
   153  H    0.009165
   154  H    0.047223
   155  H    0.033156
   156  H    0.043023
   157  H    0.049373
   158  H    0.053665
 Sum of Mulliken charges =  -0.00000

 Dipole moment (field-independent basis, Debye):
    X=              2.9413    Y=              5.7909    Z=              1.0139  Tot=              6.5737
 Quadrupole moment (field-independent basis, Debye-Ang):
   XX=           -520.9282   YY=           -502.9468   ZZ=           -495.6976
   XY=              2.5064   XZ=            -31.3462   YZ=              1.0336

 Normal termination of Gaussian 16 at Fri Sep  3 21:59:37 2021.
