 Gaussian 16, Revision A.03,
 Gaussian 16:  ES64L-G16RevA.03 25-Dec-2016

 -----------------------------------
 #p cam-b3lyp/Def2SVP td=(nstates=5)
 -----------------------------------

 --------------------------------
 TDDFT excited states in gaussian
 --------------------------------
 Symbolic Z-matrix:
 Charge =  0 Multiplicity = 1

                         Standard orientation:
 ---------------------------------------------------------------------
 Center     Atomic      Atomic             Coordinates (Angstroms)
 Number     Number       Type             X           Y           Z
 ---------------------------------------------------------------------
      1         12           0        6.184552    0.913487    0.498887
      2          6           0        6.664561   -2.288128   -1.028028
      3          6           0        7.139939    2.305183   -2.466494
      4          6           0        6.207121    3.731445    1.953267
      5          6           0        6.375774   -0.694112    3.585102
      6          7           0        6.798478    0.017460   -1.430070
      7          6           0        6.882853   -1.221918   -1.903351
      8          6           0        7.151222   -1.280684   -3.436941
      9          6           0        7.830556    0.148924   -3.628578
     10          6           0        7.192495    0.879619   -2.460294
     11          6           0        9.343163    0.135884   -3.432738
     12          6           0        5.829522   -1.402885   -4.267548
     13          6           0        6.014932   -1.792219   -5.737036
     14          1           0        5.021839   -2.650815   -6.364672
     15          7           0        6.134606    2.741482   -0.248636
     16          6           0        6.549076    3.124381   -1.480256
     17          6           0        6.305061    4.580783   -1.557907
     18          6           0        5.891776    5.045685   -0.204704
     19          6           0        6.089158    3.847408    0.570248
     20          6           0        6.421339    5.368043   -2.826942
     21          6           0        5.407384    6.364010    0.310576
     22          8           0        5.324588    6.616650    1.561132
     23          6           0        5.112454    7.396058   -0.699838
     24          7           0        6.496629    1.485486    2.482082
     25          6           0        6.393439    2.765703    2.855417
     26          6           0        6.375793    2.899078    4.349351
     27          6           0        6.243573    1.415194    4.924118
     28          6           0        6.293276    0.638277    3.585387
     29          6           0        7.600193    3.581427    4.974855
     30          6           0        5.067353    1.138966    5.893976
     31          6           0        3.754253    1.243363    5.151030
     32          7           0        6.291068   -1.140907    1.191106
     33          6           0        6.386292   -1.579029    2.519885
     34          6           0        6.541478   -3.044806    2.481387
     35          6           0        6.542396   -3.357811    1.123495
     36          6           0        6.423370   -2.160595    0.361394
     37          6           0        6.717362   -3.894115    3.609294
     38          6           0        6.640999   -4.422743    0.138581
     39          8           0        6.663042   -5.653286    0.191223
     40          6           0        6.846541   -3.761534   -1.295428
     41          6           0        5.888029   -4.427554   -2.244628
     42          8           0        4.655611   -4.275137   -2.121011
     43          8           0        6.571144   -4.939046   -3.280134
     44          6           0        5.675942   -5.588775   -4.274428
     45          1           0        7.647010    2.848582   -3.266205
     46          1           0        6.108373    4.671886    2.499397
     47          1           0        6.356590   -1.272171    4.510809
     48          1           0        7.841137   -2.065391   -3.747871
     49          1           0        7.540684    0.614257   -4.570470
     50          1           0        9.689116   -0.830498   -3.066207
     51          1           0        9.548537    0.916637   -2.700114
     52          1           0        9.854664    0.440172   -4.346276
     53          1           0        5.390330   -0.413078   -4.391856
     54          1           0        5.139327   -2.101782   -3.793734
     55          1           0        7.020275   -2.169948   -5.925491
     56          1           0        5.947847   -0.887389   -6.341174
     57          1           0        6.901406    4.789037   -3.614872
     58          1           0        7.113481    6.186832   -2.631404
     59          1           0        5.460573    5.768301   -3.151064
     60          1           0        6.011463    7.595742   -1.283327
     61          1           0        4.693646    8.240564   -0.153707
     62          1           0        4.373608    7.004245   -1.399508
     63          1           0        5.520629    3.487481    4.679354
     64          1           0        7.127936    1.113937    5.486096
     65          1           0        7.353661    4.454674    5.579311
     66          1           0        8.287264    3.843679    4.170836
     67          1           0        8.222683    2.930437    5.588154
     68          1           0        5.047061    1.885101    6.687585
     69          1           0        5.118411    0.156577    6.363611
     70          1           0        3.551506    2.313667    5.164254
     71          1           0        2.974529    0.691772    5.677327
     72          1           0        3.862167    0.945024    4.108037
     73          1           0        6.078159   -4.760786    3.441155
     74          1           0        6.455358   -3.382311    4.535044
     75          1           0        7.783807   -4.107121    3.537329
     76          1           0        7.885485   -3.934494   -1.574357
     77          1           0        6.025885   -6.613468   -4.400040
     78          1           0        5.670377   -4.944613   -5.153876
     79          1           0        4.646816   -5.760240   -3.956877
     80         12           0       -6.995311    0.116642   -0.227910
     81          6           0       -4.321779   -2.147686    0.549324
     82          6           0       -4.643442    2.575495   -0.467351
     83          6           0       -9.360344    2.217972   -0.469709
     84          6           0       -9.183989   -2.206552    1.171442
     85          7           0       -4.798556    0.093054    0.028923
     86          6           0       -3.885367   -0.837384    0.262819
     87          6           0       -2.418914   -0.353077    0.106241
     88          6           0       -2.655210    1.215012    0.359516
     89          6           0       -4.112707    1.317547   -0.085296
     90          6           0       -2.574594    1.606682    1.825617
     91          6           0       -1.850351   -0.623503   -1.330990
     92          6           0       -0.334647   -0.460291   -1.464178
     93          1           0        0.384476   -1.351842   -2.369984
     94          7           0       -6.992697    1.980238   -0.910217
     95          6           0       -5.944505    2.829128   -0.954432
     96          6           0       -6.465247    4.082134   -1.522743
     97          6           0       -7.942143    3.958072   -1.657232
     98          6           0       -8.162939    2.694162   -0.983535
     99          6           0       -5.575590    5.212269   -1.952559
    100          6           0       -8.984934    4.838282   -2.276932
    101          8           0      -10.235555    4.649211   -2.069490
    102          6           0       -8.496006    5.983991   -3.057822
    103          7           0       -8.955556    0.119104    0.464751
    104          6           0       -9.789690    1.133265    0.175569
    105          6           0      -11.213936    0.789274    0.541046
    106          6           0      -11.198130   -0.765770    0.914129
    107          6           0       -9.684657   -1.042839    0.779932
    108          6           0      -11.813808    1.584458    1.700449
    109          6           0      -12.188528   -1.683759    0.146601
    110          6           0      -11.790518   -1.769143   -1.309319
    111          7           0       -6.845766   -1.901287    0.529504
    112          6           0       -7.880257   -2.679435    1.093774
    113          6           0       -7.269173   -3.938097    1.567882
    114          6           0       -5.906836   -3.794048    1.264919
    115          6           0       -5.681329   -2.526150    0.664021
    116          6           0       -7.952743   -4.997474    2.228609
    117          6           0       -4.606566   -4.421894    1.326454
    118          8           0       -4.193370   -5.533741    1.653226
    119          6           0       -3.502319   -3.332094    0.980926
    120          6           0       -2.555560   -3.932014   -0.022197
    121          8           0       -2.948434   -4.226004   -1.164918
    122          8           0       -1.300606   -3.858268    0.457418
    123          6           0       -0.323818   -4.430893   -0.506859
    124          1           0       -4.019444    3.461062   -0.343710
    125          1           0      -10.229888    2.860102   -0.627972
    126          1           0       -9.815023   -3.022463    1.530267
    127          1           0       -1.728863   -0.748686    0.841835
    128          1           0       -2.017709    1.819026   -0.280893
    129          1           0       -2.488576    0.743686    2.469034
    130          1           0       -3.488540    2.146323    2.036623
    131          1           0       -1.760460    2.320408    1.980904
    132          1           0       -2.185297    0.175610   -2.004762
    133          1           0       -2.141091   -1.595589   -1.679048
    134          1           0        0.163142   -0.421476   -0.487628
    135          1           0       -0.128540    0.516233   -1.909073
    136          1           0       -4.552433    5.083402   -1.578471
    137          1           0       -5.937862    6.114254   -1.447537
    138          1           0       -5.597437    5.378524   -3.031705
    139          1           0       -7.879585    6.616630   -2.423590
    140          1           0       -9.386070    6.441300   -3.494323
    141          1           0       -7.845892    5.610797   -3.856999
    142          1           0      -11.877040    0.941759   -0.301648
    143          1           0      -11.456003   -0.934090    1.970062
    144          1           0      -12.744662    2.117215    1.428862
    145          1           0      -11.067620    2.281172    2.058678
    146          1           0      -12.034699    1.002905    2.593869
    147          1           0      -13.194595   -1.257741    0.168848
    148          1           0      -12.254156   -2.686227    0.556167
    149          1           0      -12.235394   -0.867137   -1.740077
    150          1           0      -12.199724   -2.667933   -1.766231
    151          1           0      -10.703491   -1.688358   -1.425546
    152          1           0       -7.592480   -5.919950    1.793017
    153          1           0       -9.031363   -4.901624    2.122887
    154          1           0       -7.624628   -4.829325    3.257846
    155          1           0       -2.999241   -3.068796    1.912141
    156          1           0        0.235622   -5.205313    0.026981
    157          1           0        0.252601   -3.570129   -0.894874
    158          1           0       -0.717955   -4.994205   -1.344583
 ---------------------------------------------------------------------

 SCF Done:  E(RCAM-B3LYP) =  -4069.81239485     A.U. after   19 cycles

 Excitation energies and oscillator strengths:

 Excited State   1:      Singlet-A      1.6632 eV  745.44 nm  f=0.0047  <S**2>=0.000
     309 -> 315       -0.11501
     310 -> 316        0.12587
     311 -> 313       -0.46107
     312 -> 314        0.50900
 This state for optimization and/or second-order correction.
 Total Energy, E(TD-HF/TD-DFT) =  -4069.75127195
 Copying the excited state density for this state as the 1-particle RhoCI density.

 Excited State   2:      Singlet-A      1.6900 eV  733.62 nm  f=0.7310  <S**2>=0.000
     309 -> 315        0.13195
     310 -> 316        0.11865
     311 -> 313        0.50764
     312 -> 314        0.45995

 Excited State   3:      Singlet-A      2.1844 eV  567.58 nm  f=0.1065  <S**2>=0.000
     310 -> 314        0.64205
     312 -> 316       -0.27150

 Excited State   4:      Singlet-A      2.1927 eV  565.45 nm  f=0.0960  <S**2>=0.000
     309 -> 313        0.63994
     311 -> 315       -0.27784

 Excited State   5:      Singlet-A      2.5607 eV  484.18 nm  f=0.0000  <S**2>=0.000
     312 -> 313        0.70675

 The electronic state is 1-A.
 Alpha  occ. eigenvalues --  -46.88053 -46.87479 -19.26518 -19.25738 -19.19303
 Alpha  occ. eigenvalues --  -19.19083 -19.18686 -19.18575 -19.18395 -19.17805
 Alpha  occ. eigenvalues --  -14.42693 -14.42306 -14.41696 -14.41181 -14.39659
 Alpha  occ. eigenvalues --  -14.39175 -14.38836 -14.38414 -10.39353 -10.38622
 Alpha  occ. eigenvalues --  -10.35717 -10.35256 -10.34616 -10.33970 -10.31870
 Alpha  occ. eigenvalues --  -10.31636 -10.31155 -10.31101 -10.30867 -10.30814
 Alpha  occ. eigenvalues --  -10.30809 -10.30755 -10.30451 -10.30217 -10.30167
 Alpha  occ. eigenvalues --  -10.30158 -10.29986 -10.29874 -10.29718 -10.29501
 Alpha  occ. eigenvalues --  -10.29273 -10.29223 -10.28970 -10.28728 -10.28615
 Alpha  occ. eigenvalues --  -10.28442 -10.28329 -10.28219 -10.28209 -10.28030
 Alpha  occ. eigenvalues --  -10.27963 -10.27906 -10.27834 -10.27819 -10.27726
 Alpha  occ. eigenvalues --  -10.27726 -10.27677 -10.27647 -10.27486 -10.27393
 Alpha  occ. eigenvalues --  -10.27384 -10.27340 -10.27293 -10.27273 -10.27239
 Alpha  occ. eigenvalues --  -10.26938 -10.26734 -10.26695 -10.26422 -10.26411
 Alpha  occ. eigenvalues --  -10.26363 -10.26313 -10.26256 -10.26020 -10.26015
 Alpha  occ. eigenvalues --  -10.25806 -10.25765 -10.25686 -10.25635 -10.25277
 Alpha  occ. eigenvalues --  -10.25069 -10.25034 -10.24959 -10.24681 -10.24616
 Alpha  occ. eigenvalues --  -10.24512  -3.16797  -3.16229  -1.91679  -1.91265
 Alpha  occ. eigenvalues --   -1.91112  -1.91107  -1.90700  -1.90537  -1.16874
 Alpha  occ. eigenvalues --   -1.16066  -1.08853  -1.08391  -1.07487  -1.06915
 Alpha  occ. eigenvalues --   -1.06830  -1.06459  -1.04823  -1.04298  -1.04005
 Alpha  occ. eigenvalues --   -1.03482  -1.03479  -1.02862  -1.02657  -1.01929
 Alpha  occ. eigenvalues --   -0.92213  -0.91759  -0.89758  -0.89407  -0.89324
 Alpha  occ. eigenvalues --   -0.88904  -0.88521  -0.88088  -0.88063  -0.87908
 Alpha  occ. eigenvalues --   -0.87611  -0.87528  -0.87481  -0.86969  -0.85209
 Alpha  occ. eigenvalues --   -0.84754  -0.84171  -0.83704  -0.83226  -0.82881
 Alpha  occ. eigenvalues --   -0.82790  -0.82408  -0.81810  -0.81214  -0.80832
 Alpha  occ. eigenvalues --   -0.80123  -0.79039  -0.78468  -0.77447  -0.77154
 Alpha  occ. eigenvalues --   -0.76936  -0.76595  -0.76143  -0.75524  -0.75123
 Alpha  occ. eigenvalues --   -0.74586  -0.73006  -0.72514  -0.71900  -0.71363
 Alpha  occ. eigenvalues --   -0.70146  -0.69609  -0.69102  -0.68587  -0.67881
 Alpha  occ. eigenvalues --   -0.67454  -0.67388  -0.66946  -0.65515  -0.65089
 Alpha  occ. eigenvalues --   -0.65007  -0.64853  -0.64558  -0.64506  -0.64345
 Alpha  occ. eigenvalues --   -0.64010  -0.62529  -0.61856  -0.60691  -0.60181
 Alpha  occ. eigenvalues --   -0.60031  -0.59569  -0.59223  -0.58783  -0.58741
 Alpha  occ. eigenvalues --   -0.58198  -0.57823  -0.57550  -0.57246  -0.57017
 Alpha  occ. eigenvalues --   -0.56542  -0.56204  -0.56011  -0.55759  -0.55572
 Alpha  occ. eigenvalues --   -0.55498  -0.55181  -0.54979  -0.54761  -0.54162
 Alpha  occ. eigenvalues --   -0.54119  -0.53658  -0.53540  -0.53457  -0.53161
 Alpha  occ. eigenvalues --   -0.53018  -0.53002  -0.52894  -0.52679  -0.52595
 Alpha  occ. eigenvalues --   -0.52482  -0.52238  -0.52120  -0.51847  -0.51695
 Alpha  occ. eigenvalues --   -0.51424  -0.51393  -0.50940  -0.50832  -0.50339
 Alpha  occ. eigenvalues --   -0.50264  -0.50164  -0.49798  -0.49751  -0.49707
 Alpha  occ. eigenvalues --   -0.49451  -0.49310  -0.49285  -0.48968  -0.48853
 Alpha  occ. eigenvalues --   -0.48818  -0.48706  -0.48679  -0.48273  -0.48210
 Alpha  occ. eigenvalues --   -0.48114  -0.47930  -0.47530  -0.47358  -0.47029
 Alpha  occ. eigenvalues --   -0.46903  -0.46781  -0.46597  -0.46503  -0.46391
 Alpha  occ. eigenvalues --   -0.46297  -0.46076  -0.46033  -0.45833  -0.45499
 Alpha  occ. eigenvalues --   -0.45431  -0.45029  -0.44804  -0.44746  -0.44385
 Alpha  occ. eigenvalues --   -0.44308  -0.44259  -0.44251  -0.44244  -0.43914
 Alpha  occ. eigenvalues --   -0.43874  -0.43718  -0.43692  -0.43615  -0.43257
 Alpha  occ. eigenvalues --   -0.43220  -0.43082  -0.42936  -0.42892  -0.42694
 Alpha  occ. eigenvalues --   -0.42418  -0.42361  -0.42245  -0.41938  -0.41757
 Alpha  occ. eigenvalues --   -0.41757  -0.41438  -0.41368  -0.41212  -0.41102
 Alpha  occ. eigenvalues --   -0.41076  -0.40801  -0.40781  -0.40544  -0.40476
 Alpha  occ. eigenvalues --   -0.40460  -0.40295  -0.39937  -0.39685  -0.39282
 Alpha  occ. eigenvalues --   -0.38699  -0.38175  -0.37972  -0.37556  -0.37497
 Alpha  occ. eigenvalues --   -0.37362  -0.37083  -0.36961  -0.36934  -0.36435
 Alpha  occ. eigenvalues --   -0.36372  -0.35898  -0.34529  -0.34059  -0.34050
 Alpha  occ. eigenvalues --   -0.33452  -0.33434  -0.32968  -0.31612  -0.31280
 Alpha  occ. eigenvalues --   -0.31132  -0.30774  -0.30253  -0.29702  -0.29698
 Alpha  occ. eigenvalues --   -0.29561  -0.29157  -0.29023  -0.24326  -0.23845
 Alpha  occ. eigenvalues --   -0.21369  -0.20936
 Alpha virt. eigenvalues --   -0.09019  -0.08610  -0.01998  -0.01507  -0.00310
 Alpha virt. eigenvalues --    0.00146   0.01963   0.02412   0.02676   0.03395
 Alpha virt. eigenvalues --    0.04488   0.04829   0.04976   0.05604   0.05963

 Mulliken charges:
               1
     1  Mg   0.836633
     2  C   -0.003634
     3  C   -0.094065
     4  C   -0.046285
     5  C   -0.063674
     6  N   -0.256871
     7  C   -0.052369
     8  C   -0.013910
     9  C   -0.086955
    10  C    0.046053
    11  C    0.104682
    12  C    0.053542
    13  C   -0.072302
    14  H    0.036941
    15  N   -0.433210
    16  C    0.167893
    17  C   -0.177338
    18  C   -0.004439
    19  C    0.148151
    20  C    0.110093
    21  C    0.011359
    22  O   -0.249679
    23  C    0.062851
    24  N   -0.341049
    25  C    0.041144
    26  C   -0.028199
    27  C   -0.024119
    28  C    0.074518
    29  C    0.076015
    30  C    0.035110
    31  C   -0.004601
    32  N   -0.310590
    33  C    0.080224
    34  C   -0.169197
    35  C    0.008565
    36  C    0.082492
    37  C    0.127282
    38  C    0.045587
    39  O   -0.187452
    40  C   -0.005183
    41  C    0.213799
    42  O   -0.259986
    43  O   -0.304212
    44  C    0.157554
    45  H   -0.017154
    46  H   -0.016782
    47  H   -0.040730
    48  H    0.001478
    49  H   -0.003815
    50  H    0.025776
    51  H    0.016563
    52  H    0.017182
    53  H    0.010784
    54  H    0.042934
    55  H    0.018462
    56  H    0.018221
    57  H    0.006284
    58  H    0.027299
    59  H    0.038808
    60  H    0.038088
    61  H    0.035559
    62  H    0.030240
    63  H    0.016118
    64  H    0.010157
    65  H    0.023436
    66  H    0.012787
    67  H    0.005299
    68  H    0.006912
    69  H    0.005700
    70  H    0.008079
    71  H    0.018714
    72  H    0.027676
    73  H    0.048329
    74  H    0.009692
    75  H    0.046581
    76  H    0.035946
    77  H    0.044167
    78  H    0.046943
    79  H    0.052961
    80  Mg   0.837278
    81  C   -0.016484
    82  C   -0.087984
    83  C   -0.045868
    84  C   -0.065444
    85  N   -0.254497
    86  C   -0.049884
    87  C   -0.014781
    88  C   -0.090345
    89  C    0.045706
    90  C    0.114349
    91  C    0.063195
    92  C   -0.080063
    93  H    0.041918
    94  N   -0.423389
    95  C    0.162634
    96  C   -0.174917
    97  C   -0.008253
    98  C    0.151992
    99  C    0.099518
   100  C    0.015259
   101  O   -0.253654
   102  C    0.061357
   103  N   -0.350157
   104  C    0.037354
   105  C   -0.019684
   106  C   -0.034796
   107  C    0.089112
   108  C    0.073819
   109  C    0.034834
   110  C   -0.007608
   111  N   -0.324181
   112  C    0.078687
   113  C   -0.163434
   114  C    0.002544
   115  C    0.096048
   116  C    0.131521
   117  C    0.042036
   118  O   -0.186799
   119  C    0.001499
   120  C    0.211374
   121  O   -0.252323
   122  O   -0.306228
   123  C    0.151023
   124  H   -0.019917
   125  H   -0.016099
   126  H   -0.040827
   127  H    0.000468
   128  H   -0.004759
   129  H    0.022353
   130  H    0.013849
   131  H    0.016529
   132  H    0.012146
   133  H    0.038216
   134  H    0.021250
   135  H    0.016452
   136  H    0.008448
   137  H    0.025741
   138  H    0.038875
   139  H    0.038038
   140  H    0.035872
   141  H    0.033498
   142  H    0.014055
   143  H    0.012158
   144  H    0.024729
   145  H    0.011582
   146  H    0.005368
   147  H    0.005901
   148  H    0.003528
   149  H    0.010717
   150  H    0.017667
   151  H    0.030361
   152  H    0.046165
   153  H    0.008125
   154  H    0.046776
   155  H    0.034944
   156  H    0.048159
   157  H    0.056051
   158  H    0.051433
 Sum of Mulliken charges =  -0.00000

 Dipole moment (field-independent basis, Debye):
    X=              4.2065    Y=              6.8357    Z=             -2.2637  Tot=              8.3395
 Quadrupole moment (field-independent basis, Debye-Ang):
   XX=           -488.1189   YY=           -554.5268   ZZ=           -472.0677
   XY=             21.7853   XZ=            -34.2571   YZ=            -11.1958

 Normal termination of Gaussian 16 at Sat Sep 11 11:42:35 2021.
