 Gaussian 16, Revision A.03,
 Gaussian 16:  ES64L-G16RevA.03 25-Dec-2016

 -----------------------------------
 #p cam-b3lyp/Def2SVP td=(nstates=5)
 -----------------------------------

 --------------------------------
 TDDFT excited states in gaussian
 --------------------------------
 Symbolic Z-matrix:
 Charge =  0 Multiplicity = 1

                         Standard orientation:
 ---------------------------------------------------------------------
 Center     Atomic      Atomic             Coordinates (Angstroms)
 Number     Number       Type             X           Y           Z
 ---------------------------------------------------------------------
      1         12           0       15.778973    0.641345    0.463400
      2          6           0       16.123390   -2.494148   -1.228425
      3          6           0       16.600136    2.152429   -2.483698
      4          6           0       15.926025    3.389595    2.038874
      5          6           0       16.105365   -1.107603    3.460116
      6          7           0       16.275029   -0.174855   -1.533696
      7          6           0       16.313282   -1.392517   -2.065680
      8          6           0       16.499370   -1.385362   -3.612513
      9          6           0       17.191818    0.041431   -3.776155
     10          6           0       16.628745    0.727444   -2.543978
     11          6           0       18.712207   -0.002550   -3.662215
     12          6           0       15.133825   -1.450373   -4.375921
     13          6           0       15.234852   -1.775115   -5.869136
     14          1           0       14.195615   -2.589704   -6.480511
     15          7           0       15.720706    2.501988   -0.198012
     16          6           0       16.076091    2.934438   -1.431696
     17          6           0       15.853072    4.396266   -1.431083
     18          6           0       15.519671    4.805101   -0.038319
     19          6           0       15.737280    3.570061    0.670695
     20          6           0       15.915612    5.238664   -2.668097
     21          6           0       15.085568    6.105540    0.560467
     22          8           0       15.073133    6.302208    1.823693
     23          6           0       14.755324    7.186674   -0.385647
     24          7           0       16.204858    1.117923    2.450642
     25          6           0       16.143241    2.381199    2.885751
     26          6           0       16.206666    2.446717    4.382957
     27          6           0       16.079775    0.940307    4.897135
     28          6           0       16.045621    0.224455    3.524306
     29          6           0       17.473750    3.081986    4.971974
     30          6           0       14.951817    0.637417    5.915166
     31          6           0       13.603327    0.794632    5.248866
     32          7           0       15.886962   -1.443746    1.056509
     33          6           0       16.044676   -1.943205    2.357409
     34          6           0       16.172718   -3.407819    2.245259
     35          6           0       16.096716   -3.658707    0.876637
     36          6           0       15.958003   -2.426453    0.176208
     37          6           0       16.393396   -4.310032    3.323102
     38          6           0       16.125157   -4.679054   -0.158707
     39          8           0       16.129058   -5.910908   -0.162319
     40          6           0       16.265984   -3.956360   -1.570694
     41          6           0       15.247586   -4.564468   -2.496102
     42          8           0       14.026166   -4.399886   -2.300112
     43          8           0       15.866366   -5.038225   -3.588443
     44          6           0       14.909080   -5.628933   -4.561491
     45          1           0       17.073479    2.724197   -3.284303
     46          1           0       15.872188    4.305557    2.630950
     47          1           0       16.125216   -1.726835    4.358788
     48          1           0       17.158512   -2.165083   -3.994601
     49          1           0       16.860618    0.553306   -4.679489
     50          1           0       19.060557   -0.989544   -3.358216
     51          1           0       18.969151    0.740990   -2.907482
     52          1           0       19.179914    0.335495   -4.587284
     53          1           0       14.705550   -0.449639   -4.432256
     54          1           0       14.457815   -2.159967   -3.897578
     55          1           0       16.222302   -2.158493   -6.127731
     56          1           0       15.151367   -0.842856   -6.427817
     57          1           0       16.343564    4.689166   -3.505626
     58          1           0       16.630898    6.037534   -2.473464
     59          1           0       14.946022    5.667213   -2.922211
     60          1           0       15.625571    7.399572   -1.006850
     61          1           0       14.380290    8.011476    0.219252
     62          1           0       13.974067    6.837907   -1.061626
     63          1           0       15.380203    3.031900    4.784138
     64          1           0       16.987303    0.600938    5.397031
     65          1           0       17.274292    3.930331    5.627131
     66          1           0       18.121819    3.370501    4.144896
     67          1           0       18.116578    2.394766    5.521445
     68          1           0       14.986069    1.346894    6.741251
     69          1           0       15.010890   -0.365959    6.337065
     70          1           0       13.419753    1.866067    5.320685
     71          1           0       12.843193    0.231092    5.790926
     72          1           0       13.651012    0.542508    4.189316
     73          1           0       15.731600   -5.158748    3.150834
     74          1           0       16.189299   -3.837108    4.283461
     75          1           0       17.450794   -4.535065    3.184803
     76          1           0       17.285688   -4.131577   -1.912196
     77          1           0       15.234470   -6.651842   -4.751257
     78          1           0       14.868079   -4.945418   -5.409742
     79          1           0       13.895370   -5.799648   -4.197366
     80         12           0      -15.949238   -0.725347    0.354676
     81          6           0      -15.862237    2.203711   -1.717074
     82          6           0      -15.168192    1.296606    2.988352
     83          6           0      -15.575218   -3.335496    2.119509
     84          6           0      -15.589374   -2.619799   -2.548302
     85          7           0      -15.587717    1.452437    0.491833
     86          6           0      -15.642778    2.473425   -0.350140
     87          6           0      -15.531822    3.868181    0.322106
     88          6           0      -14.757167    3.429931    1.658789
     89          6           0      -15.222785    1.977954    1.746224
     90          6           0      -13.245023    3.438361    1.508241
     91          6           0      -16.935931    4.487629    0.648839
     92          6           0      -16.913255    5.971888    1.020615
     93          1           0      -18.030709    6.812167    0.599056
     94          7           0      -15.930376   -0.950669    2.326334
     95          6           0      -15.610849   -0.018899    3.248814
     96          6           0      -15.731395   -0.686955    4.553932
     97          6           0      -15.988052   -2.133801    4.318355
     98          6           0      -15.816748   -2.201275    2.880929
     99          6           0      -15.682430    0.057339    5.856644
    100          6           0      -16.318718   -3.271222    5.236569
    101          8           0      -16.265466   -4.490381    4.844583
    102          6           0      -16.615908   -2.921174    6.633222
    103          7           0      -15.417268   -2.679808   -0.113749
    104          6           0      -15.379714   -3.632262    0.834589
    105          6           0      -15.243642   -5.006139    0.222764
    106          6           0      -15.441642   -4.797406   -1.350389
    107          6           0      -15.575021   -3.259140   -1.386745
    108          6           0      -13.916161   -5.719577    0.478125
    109          6           0      -16.540346   -5.651130   -2.040819
    110          6           0      -17.906850   -5.224159   -1.555298
    111          7           0      -15.943269   -0.330513   -1.769500
    112          6           0      -15.751303   -1.265356   -2.810321
    113          6           0      -15.715391   -0.505605   -4.076780
    114          6           0      -15.867115    0.831484   -3.679716
    115          6           0      -15.968736    0.902074   -2.264017
    116          6           0      -15.511562   -1.057952   -5.372733
    117          6           0      -15.953766    2.200242   -4.135467
    118          8           0      -16.015493    2.747165   -5.235830
    119          6           0      -15.827568    3.161261   -2.875749
    120          6           0      -16.919806    4.191477   -2.966193
    121          8           0      -18.113971    3.856152   -2.876052
    122          8           0      -16.371610    5.419573   -2.925698
    123          6           0      -17.416176    6.475504   -3.001291
    124          1           0      -14.704041    1.800564    3.836579
    125          1           0      -15.548416   -4.277484    2.672147
    126          1           0      -15.578743   -3.146686   -3.504827
    127          1           0      -14.943150    4.592220   -0.228368
    128          1           0      -15.105047    3.994416    2.520000
    129          1           0      -12.942716    3.624409    0.488367
    130          1           0      -12.911985    2.459996    1.829080
    131          1           0      -12.800547    4.152334    2.207536
    132          1           0      -17.303798    4.063323    1.591903
    133          1           0      -17.620464    4.328524   -0.161545
    134          1           0      -15.957946    6.446272    0.765092
    135          1           0      -16.972870    6.058136    2.108278
    136          1           0      -15.317848    1.082982    5.720471
    137          1           0      -14.914574   -0.424490    6.471532
    138          1           0      -16.633241    0.030276    6.393207
    139          1           0      -15.764293   -2.399939    7.063942
    140          1           0      -16.915296   -3.855835    7.111389
    141          1           0      -17.455365   -2.217084    6.646401
    142          1           0      -16.016344   -5.670858    0.589069
    143          1           0      -14.529783   -5.047143   -1.912500
    144          1           0      -14.037358   -6.706742    0.962774
    145          1           0      -13.292127   -5.073779    1.081510
    146          1           0      -13.299401   -5.877488   -0.404979
    147          1           0      -16.429077   -6.703572   -1.768526
    148          1           0      -16.514559   -5.594237   -3.123914
    149          1           0      -18.018004   -5.774189   -0.616048
    150          1           0      -18.674277   -5.508518   -2.272412
    151          1           0      -17.922701   -4.154767   -1.314915
    152          1           0      -16.221903   -0.576499   -6.031619
    153          1           0      -15.640363   -2.138302   -5.369216
    154          1           0      -14.471535   -0.769115   -5.546473
    155          1           0      -14.835261    3.612894   -2.906349
    156          1           0      -17.157060    7.121353   -3.845930
    157          1           0      -17.441513    6.942955   -1.998988
    158          1           0      -18.420322    6.168861   -3.269794
 ---------------------------------------------------------------------

 SCF Done:  E(RCAM-B3LYP) =  -4069.81178245     A.U. after   19 cycles

 Excitation energies and oscillator strengths:

 Excited State   1:      Singlet-A      1.6755 eV  739.98 nm  f=0.3492  <S**2>=0.000
     310 -> 316        0.17246
     312 -> 313        0.68151
     310 <- 316        0.10396
 This state for optimization and/or second-order correction.
 Total Energy, E(TD-HF/TD-DFT) =  -4069.75020893
 Copying the excited state density for this state as the 1-particle RhoCI density.

 Excited State   2:      Singlet-A      1.6799 eV  738.03 nm  f=0.4273  <S**2>=0.000
     309 -> 315        0.17438
     311 -> 314        0.68116
     309 <- 315        0.10442

 Excited State   3:      Singlet-A      2.1861 eV  567.14 nm  f=0.1006  <S**2>=0.000
     310 -> 313        0.64237
     312 -> 316       -0.27309

 Excited State   4:      Singlet-A      2.1925 eV  565.48 nm  f=0.1002  <S**2>=0.000
     309 -> 314        0.64060
     311 -> 315       -0.27823

 Excited State   5:      Singlet-A      3.0657 eV  404.43 nm  f=0.0000  <S**2>=0.000
     311 -> 313        0.70711

 The electronic state is 1-A.
 Alpha  occ. eigenvalues --  -46.87796 -46.87661 -19.26355 -19.26279 -19.19166
 Alpha  occ. eigenvalues --  -19.19016 -19.18815 -19.18712 -19.18168 -19.18054
 Alpha  occ. eigenvalues --  -14.42498 -14.42449 -14.41449 -14.41359 -14.39402
 Alpha  occ. eigenvalues --  -14.39352 -14.38601 -14.38586 -10.39095 -10.39076
 Alpha  occ. eigenvalues --  -10.35449 -10.35389 -10.34388 -10.34232 -10.31763
 Alpha  occ. eigenvalues --  -10.31673 -10.31403 -10.31310 -10.31024 -10.30907
 Alpha  occ. eigenvalues --  -10.30569 -10.30507 -10.30398 -10.30362 -10.30207
 Alpha  occ. eigenvalues --  -10.30140 -10.29921 -10.29895 -10.29630 -10.29436
 Alpha  occ. eigenvalues --  -10.29401 -10.29254 -10.28745 -10.28721 -10.28657
 Alpha  occ. eigenvalues --  -10.28530 -10.28405 -10.28364 -10.28141 -10.28113
 Alpha  occ. eigenvalues --  -10.28002 -10.27792 -10.27726 -10.27669 -10.27584
 Alpha  occ. eigenvalues --  -10.27516 -10.27504 -10.27484 -10.27479 -10.27467
 Alpha  occ. eigenvalues --  -10.27463 -10.27452 -10.27402 -10.27373 -10.27156
 Alpha  occ. eigenvalues --  -10.27054 -10.26699 -10.26695 -10.26411 -10.26410
 Alpha  occ. eigenvalues --  -10.26230 -10.26189 -10.26136 -10.26025 -10.26020
 Alpha  occ. eigenvalues --  -10.25935 -10.25854 -10.25844 -10.25439 -10.25392
 Alpha  occ. eigenvalues --  -10.24874 -10.24832 -10.24788 -10.24730 -10.24693
 Alpha  occ. eigenvalues --  -10.24690  -3.16539  -3.16411  -1.91420  -1.91293
 Alpha  occ. eigenvalues --   -1.91007  -1.90881  -1.90849  -1.90718  -1.16649
 Alpha  occ. eigenvalues --   -1.16628  -1.08662  -1.08626  -1.07217  -1.06964
 Alpha  occ. eigenvalues --   -1.06950  -1.06638  -1.04580  -1.04496  -1.03760
 Alpha  occ. eigenvalues --   -1.03664  -1.03233  -1.03039  -1.02411  -1.02112
 Alpha  occ. eigenvalues --   -0.91988  -0.91971  -0.89521  -0.89494  -0.89184
 Alpha  occ. eigenvalues --   -0.89152  -0.88288  -0.88219  -0.87870  -0.87795
 Alpha  occ. eigenvalues --   -0.87684  -0.87671  -0.87273  -0.87119  -0.85001
 Alpha  occ. eigenvalues --   -0.84979  -0.83938  -0.83875  -0.82967  -0.82930
 Alpha  occ. eigenvalues --   -0.82653  -0.82646  -0.81599  -0.81583  -0.80595
 Alpha  occ. eigenvalues --   -0.80444  -0.78796  -0.78636  -0.77218  -0.77145
 Alpha  occ. eigenvalues --   -0.76932  -0.76900  -0.75920  -0.75840  -0.74899
 Alpha  occ. eigenvalues --   -0.74802  -0.72774  -0.72700  -0.71671  -0.71581
 Alpha  occ. eigenvalues --   -0.69910  -0.69757  -0.68871  -0.68828  -0.67640
 Alpha  occ. eigenvalues --   -0.67602  -0.67216  -0.67201  -0.65284  -0.65273
 Alpha  occ. eigenvalues --   -0.64852  -0.64771  -0.64655  -0.64619  -0.64270
 Alpha  occ. eigenvalues --   -0.64204  -0.62295  -0.62281  -0.60442  -0.60339
 Alpha  occ. eigenvalues --   -0.59802  -0.59797  -0.58993  -0.58987  -0.58503
 Alpha  occ. eigenvalues --   -0.58426  -0.57582  -0.57557  -0.57309  -0.57237
 Alpha  occ. eigenvalues --   -0.56309  -0.56205  -0.55975  -0.55889  -0.55519
 Alpha  occ. eigenvalues --   -0.55453  -0.55340  -0.55248  -0.54523  -0.54489
 Alpha  occ. eigenvalues --   -0.53914  -0.53891  -0.53298  -0.53228  -0.53220
 Alpha  occ. eigenvalues --   -0.53143  -0.52913  -0.52904  -0.52754  -0.52667
 Alpha  occ. eigenvalues --   -0.52441  -0.52401  -0.51915  -0.51887  -0.51660
 Alpha  occ. eigenvalues --   -0.51614  -0.51203  -0.51195  -0.50572  -0.50473
 Alpha  occ. eigenvalues --   -0.50033  -0.49980  -0.49917  -0.49866  -0.49513
 Alpha  occ. eigenvalues --   -0.49488  -0.49213  -0.49203  -0.49106  -0.49093
 Alpha  occ. eigenvalues --   -0.48591  -0.48560  -0.48462  -0.48444  -0.48376
 Alpha  occ. eigenvalues --   -0.48338  -0.47693  -0.47595  -0.47296  -0.47118
 Alpha  occ. eigenvalues --   -0.46797  -0.46710  -0.46555  -0.46552  -0.46359
 Alpha  occ. eigenvalues --   -0.46271  -0.46162  -0.46086  -0.45825  -0.45820
 Alpha  occ. eigenvalues --   -0.45207  -0.45203  -0.44576  -0.44516  -0.44506
 Alpha  occ. eigenvalues --   -0.44477  -0.44145  -0.44128  -0.44086  -0.44078
 Alpha  occ. eigenvalues --   -0.44018  -0.43939  -0.43556  -0.43493  -0.43387
 Alpha  occ. eigenvalues --   -0.43384  -0.43026  -0.42933  -0.42903  -0.42697
 Alpha  occ. eigenvalues --   -0.42655  -0.42553  -0.42010  -0.41965  -0.41703
 Alpha  occ. eigenvalues --   -0.41671  -0.41531  -0.41460  -0.41140  -0.40990
 Alpha  occ. eigenvalues --   -0.40867  -0.40822  -0.40722  -0.40698  -0.40572
 Alpha  occ. eigenvalues --   -0.40493  -0.40229  -0.40228  -0.39444  -0.39425
 Alpha  occ. eigenvalues --   -0.38470  -0.38350  -0.37744  -0.37656  -0.37321
 Alpha  occ. eigenvalues --   -0.37266  -0.37261  -0.37200  -0.36775  -0.36711
 Alpha  occ. eigenvalues --   -0.36218  -0.36191  -0.34285  -0.34254  -0.33866
 Alpha  occ. eigenvalues --   -0.33767  -0.33186  -0.33176  -0.31345  -0.31271
 Alpha  occ. eigenvalues --   -0.31035  -0.30973  -0.30027  -0.29959  -0.29448
 Alpha  occ. eigenvalues --   -0.29327  -0.29321  -0.29213  -0.24080  -0.24037
 Alpha  occ. eigenvalues --   -0.21127  -0.21117
 Alpha virt. eigenvalues --   -0.08792  -0.08773  -0.01749  -0.01684  -0.00057
 Alpha virt. eigenvalues --   -0.00028   0.02201   0.02205   0.03121   0.03225
 Alpha virt. eigenvalues --    0.04720   0.04729   0.05102   0.05161   0.06180

 Mulliken charges:
               1
     1  Mg   0.838729
     2  C   -0.002951
     3  C   -0.094097
     4  C   -0.045921
     5  C   -0.063962
     6  N   -0.256788
     7  C   -0.052453
     8  C   -0.014026
     9  C   -0.087000
    10  C    0.046337
    11  C    0.104809
    12  C    0.053469
    13  C   -0.071850
    14  H    0.036196
    15  N   -0.433153
    16  C    0.168434
    17  C   -0.177130
    18  C   -0.004005
    19  C    0.148738
    20  C    0.110162
    21  C    0.012268
    22  O   -0.249665
    23  C    0.062484
    24  N   -0.341160
    25  C    0.041277
    26  C   -0.028162
    27  C   -0.023968
    28  C    0.074813
    29  C    0.076175
    30  C    0.035144
    31  C   -0.004496
    32  N   -0.310467
    33  C    0.080398
    34  C   -0.169736
    35  C    0.008362
    36  C    0.082990
    37  C    0.127315
    38  C    0.046116
    39  O   -0.188432
    40  C   -0.005331
    41  C    0.212879
    42  O   -0.257102
    43  O   -0.304794
    44  C    0.157675
    45  H   -0.017571
    46  H   -0.016866
    47  H   -0.041525
    48  H    0.000952
    49  H   -0.003993
    50  H    0.025472
    51  H    0.016433
    52  H    0.016688
    53  H    0.011218
    54  H    0.044121
    55  H    0.017875
    56  H    0.017985
    57  H    0.005911
    58  H    0.026831
    59  H    0.039587
    60  H    0.037365
    61  H    0.035622
    62  H    0.031525
    63  H    0.016515
    64  H    0.009449
    65  H    0.023177
    66  H    0.012565
    67  H    0.004742
    68  H    0.006319
    69  H    0.004715
    70  H    0.008752
    71  H    0.018095
    72  H    0.029017
    73  H    0.047560
    74  H    0.009080
    75  H    0.046008
    76  H    0.035160
    77  H    0.042956
    78  H    0.046434
    79  H    0.053698
    80  Mg   0.837789
    81  C   -0.016859
    82  C   -0.087788
    83  C   -0.045469
    84  C   -0.064856
    85  N   -0.254595
    86  C   -0.049823
    87  C   -0.015093
    88  C   -0.090507
    89  C    0.045786
    90  C    0.114366
    91  C    0.062511
    92  C   -0.077891
    93  H    0.034874
    94  N   -0.423475
    95  C    0.162929
    96  C   -0.174596
    97  C   -0.007758
    98  C    0.152123
    99  C    0.099347
   100  C    0.015590
   101  O   -0.253134
   102  C    0.061201
   103  N   -0.350053
   104  C    0.037542
   105  C   -0.019867
   106  C   -0.034802
   107  C    0.088915
   108  C    0.073625
   109  C    0.034722
   110  C   -0.007673
   111  N   -0.324088
   112  C    0.078416
   113  C   -0.163152
   114  C    0.002220
   115  C    0.096198
   116  C    0.131494
   117  C    0.042372
   118  O   -0.187939
   119  C    0.000940
   120  C    0.211255
   121  O   -0.251013
   122  O   -0.305646
   123  C    0.152042
   124  H   -0.019615
   125  H   -0.015520
   126  H   -0.040461
   127  H   -0.000667
   128  H   -0.004317
   129  H    0.022449
   130  H    0.014474
   131  H    0.016311
   132  H    0.013929
   133  H    0.037664
   134  H    0.020780
   135  H    0.019611
   136  H    0.008778
   137  H    0.026216
   138  H    0.039817
   139  H    0.038290
   140  H    0.036440
   141  H    0.033881
   142  H    0.014417
   143  H    0.012451
   144  H    0.025200
   145  H    0.011687
   146  H    0.005728
   147  H    0.006306
   148  H    0.003640
   149  H    0.010950
   150  H    0.017920
   151  H    0.030080
   152  H    0.045972
   153  H    0.008518
   154  H    0.046933
   155  H    0.035012
   156  H    0.043874
   157  H    0.049503
   158  H    0.053570
 Sum of Mulliken charges =  -0.00000

 Dipole moment (field-independent basis, Debye):
    X=              3.8104    Y=              4.3860    Z=              1.2153  Tot=              5.9358
 Quadrupole moment (field-independent basis, Debye-Ang):
   XX=           -518.3384   YY=           -522.5611   ZZ=           -476.1895
   XY=             33.7986   XZ=           -108.5430   YZ=             21.5166

 Normal termination of Gaussian 16 at Sat Sep  4 18:41:43 2021.
