 Gaussian 16, Revision A.03,
 Gaussian 16:  ES64L-G16RevA.03 25-Dec-2016

 -----------------------------------
 #p cam-b3lyp/Def2SVP td=(nstates=5)
 -----------------------------------

 --------------------------------
 TDDFT excited states in gaussian
 --------------------------------
 Symbolic Z-matrix:
 Charge =  0 Multiplicity = 1

                         Standard orientation:
 ---------------------------------------------------------------------
 Center     Atomic      Atomic             Coordinates (Angstroms)
 Number     Number       Type             X           Y           Z
 ---------------------------------------------------------------------
      1         12           0       -7.643116    0.676469   -0.138347
      2          6           0       -7.975307   -2.428144    1.611865
      3          6           0       -8.541094    2.235933    2.760751
      4          6           0       -7.799008    3.389248   -1.773324
      5          6           0       -7.888088   -1.138411   -3.103454
      6          7           0       -8.165334   -0.105488    1.865768
      7          6           0       -8.196500   -1.312353    2.422254
      8          6           0       -8.411908   -1.276012    3.964866
      9          6           0       -9.127347    0.143682    4.085756
     10          6           0       -8.550773    0.812230    2.850227
     11          6           0      -10.644538    0.075369    3.944459
     12          6           0       -7.060273   -1.305510    4.754768
     13          6           0       -7.184955   -1.600834    6.252297
     14          1           0       -6.146108   -2.387528    6.899798
     15          7           0       -7.623578    2.550996    0.485044
     16          6           0       -8.008298    3.003594    1.702595
     17          6           0       -7.805911    4.468174    1.675616
     18          6           0       -7.452003    4.852997    0.281071
     19          6           0       -7.638747    3.600587   -0.405933
     20          6           0       -7.903701    5.334895    2.893393
     21          6           0       -7.025000    6.146964   -0.336545
     22          8           0       -6.991433    6.317713   -1.603152
     23          6           0       -6.727972    7.252033    0.592776
     24          7           0       -8.037989    1.105776   -2.142694
     25          6           0       -7.985941    2.360575   -2.602862
     26          6           0       -8.021939    2.394296   -4.102030
     27          6           0       -7.864145    0.879602   -4.582191
     28          6           0       -7.845899    0.192765   -3.194318
     29          6           0       -9.286470    2.998890   -4.727681
     30          6           0       -6.712972    0.572146   -5.572490
     31          6           0       -5.379679    0.762554   -4.884615
     32          7           0       -7.710496   -1.421747   -0.689702
     33          6           0       -7.836517   -1.950142   -1.982603
     34          6           0       -7.946025   -3.413833   -1.842302
     35          6           0       -7.892410   -3.635334   -0.467563
     36          6           0       -7.784339   -2.387027    0.209449
     37          6           0       -8.133544   -4.341168   -2.904997
     38          6           0       -7.926070   -4.634430    0.588151
     39          8           0       -7.912694   -5.865876    0.617408
     40          6           0       -8.103751   -3.884900    1.981873
     41          6           0       -7.094587   -4.459008    2.938584
     42          8           0       -5.872115   -4.280845    2.761986
     43          8           0       -7.727194   -4.919054    4.028863
     44          6           0       -6.780271   -5.475668    5.031694
     45          1           0       -9.037505    2.817173    3.540288
     46          1           0       -7.746878    4.293496   -2.383289
     47          1           0       -7.882209   -1.776256   -3.989215
     48          1           0       -9.067118   -2.057147    4.350806
     49          1           0       -8.820540    0.678806    4.984218
     50          1           0      -10.973143   -0.922618    3.654698
     51          1           0      -10.897597    0.799400    3.169712
     52          1           0      -11.134379    0.425606    4.853397
     53          1           0       -6.647273   -0.297736    4.798165
     54          1           0       -6.365409   -2.014957    4.304020
     55          1           0       -8.171627   -1.993049    6.500402
     56          1           0       -7.125192   -0.656149    6.792850
     57          1           0       -8.339647    4.796641    3.734095
     58          1           0       -8.626353    6.119150    2.668833
     59          1           0       -6.945224    5.782574    3.156519
     60          1           0       -7.612730    7.465074    1.193081
     61          1           0       -6.353209    8.069532   -0.022120
     62          1           0       -5.954814    6.928612    1.290325
     63          1           0       -7.196354    2.982983   -4.499877
     64          1           0       -8.757183    0.516907   -5.091710
     65          1           0       -9.086613    3.836349   -5.396580
     66          1           0       -9.954070    3.294983   -3.919022
     67          1           0       -9.909045    2.291262   -5.274563
     68          1           0       -6.741572    1.263876   -6.413702
     69          1           0       -6.749919   -0.440462   -5.974375
     70          1           0       -5.209882    1.834826   -4.975357
     71          1           0       -4.601565    0.199020   -5.400538
     72          1           0       -5.443851    0.531659   -3.821104
     73          1           0       -7.463242   -5.176489   -2.702749
     74          1           0       -7.917989   -3.885234   -3.871052
     75          1           0       -9.190096   -4.578579   -2.781750
     76          1           0       -9.127167   -4.067777    2.307906
     77          1           0       -7.094760   -6.499050    5.236682
     78          1           0       -6.764956   -4.774294    5.866107
     79          1           0       -5.757549   -5.639167    4.690158
     80         12           0        8.211597    0.224301    0.230372
     81          6           0        6.289558   -1.623006   -2.172183
     82          6           0        6.975968    3.068512   -1.190286
     83          6           0       10.231196    1.882158    2.030421
     84          6           0       10.133776   -2.645745    0.692705
     85          7           0        6.819653    0.551131   -1.457207
     86          6           0        6.104523   -0.227191   -2.255416
     87          6           0        5.077632    0.529207   -3.140235
     88          6           0        5.789315    1.968671   -3.157503
     89          6           0        6.551597    1.880316   -1.836975
     90          6           0        6.798962    2.127399   -4.282127
     91          6           0        3.656193    0.599091   -2.479435
     92          6           0        2.532882    1.048770   -3.416300
     93          1           0        1.208371    0.456995   -3.249138
     94          7           0        8.204073    2.143700    0.734790
     95          6           0        7.635585    3.161490    0.054940
     96          6           0        7.928102    4.376627    0.830859
     97          6           0        8.855678    4.014921    1.936972
     98          6           0        9.155966    2.640242    1.590276
     99          6           0        7.283570    5.701259    0.542146
    100          6           0        9.394605    4.783484    3.105332
    101          8           0       10.373125    4.343943    3.806850
    102          6           0        8.804837    6.108388    3.346785
    103          7           0       10.060897   -0.233678    1.062653
    104          6           0       10.703396    0.648895    1.847627
    105          6           0       11.872656    0.002623    2.551578
    106          6           0       11.735969   -1.564192    2.261805
    107          6           0       10.507949   -1.542167    1.325377
    108          6           0       13.257824    0.481286    2.117307
    109          6           0       11.708289   -2.508195    3.494996
    110          6           0       10.439700   -2.286024    4.286657
    111          7           0        8.124100   -1.829893   -0.433438
    112          6           0        9.044915   -2.860244   -0.142620
    113          6           0        8.624525   -4.049626   -0.911416
    114          6           0        7.492657   -3.618542   -1.619602
    115          6           0        7.238288   -2.250866   -1.329310
    116          6           0        9.293210   -5.306039   -0.931828
    117          6           0        6.461448   -4.006478   -2.554914
    118          8           0        6.118736   -5.064873   -3.080356
    119          6           0        5.711105   -2.696375   -3.051893
    120          6           0        4.230669   -2.948853   -2.967835
    121          8           0        3.680301   -3.120363   -1.865889
    122          8           0        3.677297   -2.731028   -4.174775
    123          6           0        2.207910   -2.957927   -4.139501
    124          1           0        6.828263    4.019399   -1.703019
    125          1           0       10.896425    2.376204    2.742380
    126          1           0       10.623306   -3.607880    0.858015
    127          1           0        4.981834    0.149639   -4.150452
    128          1           0        5.057523    2.771543   -3.122361
    129          1           0        6.957915    1.201415   -4.814518
    130          1           0        7.716084    2.454649   -3.810067
    131          1           0        6.496307    2.940228   -4.948487
    132          1           0        3.638177    1.423622   -1.755171
    133          1           0        3.398074   -0.340363   -2.030634
    134          1           0        2.837421    1.017968   -4.469505
    135          1           0        2.325894    2.105030   -3.227936
    136          1           0        6.775836    5.698114   -0.430266
    137          1           0        8.091771    6.431164    0.424204
    138          1           0        6.622888    6.032373    1.346211
    139          1           0        8.940632    6.730247    2.465132
    140          1           0        9.255634    6.464115    4.275293
    141          1           0        7.724323    5.990373    3.485300
    142          1           0       11.819976    0.168185    3.620647
    143          1           0       12.578978   -1.943369    1.665661
    144          1           0       13.865050    0.876473    2.953476
    145          1           0       13.133888    1.232854    1.348981
    146          1           0       13.867654   -0.266322    1.612960
    147          1           0       12.538190   -2.277289    4.167382
    148          1           0       11.786066   -3.558951    3.236443
    149          1           0       10.685524   -1.420264    4.908837
    150          1           0       10.210882   -3.157896    4.896185
    151          1           0        9.611656   -1.995404    3.629745
    152          1           0        8.527575   -6.067363   -0.863332
    153          1           0       10.010401   -5.387989   -0.117766
    154          1           0        9.783967   -5.249961   -1.907161
    155          1           0        6.035670   -2.501012   -4.074666
    156          1           0        1.979902   -3.696021   -4.914681
    157          1           0        1.748459   -1.957274   -4.246013
    158          1           0        1.796206   -3.440187   -3.260650
 ---------------------------------------------------------------------

 SCF Done:  E(RCAM-B3LYP) =  -4069.81157168     A.U. after   19 cycles

 Excitation energies and oscillator strengths:

 Excited State   1:      Singlet-A      1.6694 eV  742.67 nm  f=0.0163  <S**2>=0.000
     309 -> 315       -0.10531
     310 -> 316       -0.13614
     311 -> 313       -0.41872
     312 -> 314        0.54388
 This state for optimization and/or second-order correction.
 Total Energy, E(TD-HF/TD-DFT) =  -4069.75022055
 Copying the excited state density for this state as the 1-particle RhoCI density.

 Excited State   2:      Singlet-A      1.6857 eV  735.52 nm  f=0.7386  <S**2>=0.000
     309 -> 315        0.14002
     310 -> 316       -0.10733
     311 -> 313        0.54299
     312 -> 314        0.41815

 Excited State   3:      Singlet-A      2.1853 eV  567.35 nm  f=0.0820  <S**2>=0.000
     309 -> 313        0.11902
     310 -> 314        0.63160
     312 -> 316        0.26780

 Excited State   4:      Singlet-A      2.1922 eV  565.57 nm  f=0.1163  <S**2>=0.000
     309 -> 313        0.62960
     310 -> 314       -0.11817
     311 -> 315       -0.27334

 Excited State   5:      Singlet-A      2.7754 eV  446.72 nm  f=0.0000  <S**2>=0.000
     312 -> 313        0.70702

 The electronic state is 1-A.
 Alpha  occ. eigenvalues --  -46.87811 -46.87580 -19.26208 -19.26187 -19.18998
 Alpha  occ. eigenvalues --  -19.18947 -19.18860 -19.18656 -19.18149 -19.17950
 Alpha  occ. eigenvalues --  -14.42458 -14.42415 -14.41469 -14.41281 -14.39419
 Alpha  occ. eigenvalues --  -14.39274 -14.38596 -14.38517 -10.39012 -10.38935
 Alpha  occ. eigenvalues --  -10.35495 -10.35335 -10.34367 -10.34125 -10.31584
 Alpha  occ. eigenvalues --  -10.31569 -10.31404 -10.31220 -10.30938 -10.30913
 Alpha  occ. eigenvalues --  -10.30576 -10.30524 -10.30318 -10.30275 -10.30239
 Alpha  occ. eigenvalues --  -10.30073 -10.29942 -10.29817 -10.29645 -10.29364
 Alpha  occ. eigenvalues --  -10.29322 -10.29275 -10.28728 -10.28616 -10.28512
 Alpha  occ. eigenvalues --  -10.28483 -10.28372 -10.28321 -10.28103 -10.28047
 Alpha  occ. eigenvalues --  -10.27920 -10.27801 -10.27737 -10.27603 -10.27589
 Alpha  occ. eigenvalues --  -10.27554 -10.27505 -10.27499 -10.27457 -10.27407
 Alpha  occ. eigenvalues --  -10.27406 -10.27398 -10.27390 -10.27315 -10.27130
 Alpha  occ. eigenvalues --  -10.26939 -10.26663 -10.26565 -10.26473 -10.26375
 Alpha  occ. eigenvalues --  -10.26266 -10.26223 -10.26080 -10.26042 -10.25944
 Alpha  occ. eigenvalues --  -10.25859 -10.25842 -10.25768 -10.25482 -10.25346
 Alpha  occ. eigenvalues --  -10.24837 -10.24808 -10.24801 -10.24789 -10.24672
 Alpha  occ. eigenvalues --  -10.24613  -3.16554  -3.16330  -1.91435  -1.91212
 Alpha  occ. eigenvalues --   -1.91022  -1.90864  -1.90801  -1.90638  -1.16558
 Alpha  occ. eigenvalues --   -1.16482  -1.08601  -1.08551  -1.07264  -1.06910
 Alpha  occ. eigenvalues --   -1.06785  -1.06570  -1.04587  -1.04412  -1.03778
 Alpha  occ. eigenvalues --   -1.03584  -1.03249  -1.02961  -1.02426  -1.02032
 Alpha  occ. eigenvalues --   -0.91970  -0.91896  -0.89557  -0.89421  -0.89174
 Alpha  occ. eigenvalues --   -0.89055  -0.88325  -0.88151  -0.87875  -0.87710
 Alpha  occ. eigenvalues --   -0.87679  -0.87599  -0.87300  -0.87054  -0.84975
 Alpha  occ. eigenvalues --   -0.84904  -0.83979  -0.83805  -0.83010  -0.82872
 Alpha  occ. eigenvalues --   -0.82648  -0.82563  -0.81560  -0.81480  -0.80593
 Alpha  occ. eigenvalues --   -0.80343  -0.78815  -0.78562  -0.77234  -0.77060
 Alpha  occ. eigenvalues --   -0.76924  -0.76798  -0.75909  -0.75738  -0.74923
 Alpha  occ. eigenvalues --   -0.74726  -0.72787  -0.72619  -0.71680  -0.71498
 Alpha  occ. eigenvalues --   -0.69965  -0.69692  -0.68872  -0.68735  -0.67651
 Alpha  occ. eigenvalues --   -0.67516  -0.67212  -0.67104  -0.65277  -0.65172
 Alpha  occ. eigenvalues --   -0.64856  -0.64683  -0.64621  -0.64553  -0.64300
 Alpha  occ. eigenvalues --   -0.64128  -0.62266  -0.62156  -0.60470  -0.60270
 Alpha  occ. eigenvalues --   -0.59799  -0.59705  -0.58997  -0.58908  -0.58510
 Alpha  occ. eigenvalues --   -0.58336  -0.57562  -0.57440  -0.57321  -0.57156
 Alpha  occ. eigenvalues --   -0.56318  -0.56121  -0.55936  -0.55763  -0.55535
 Alpha  occ. eigenvalues --   -0.55363  -0.55355  -0.55159  -0.54520  -0.54386
 Alpha  occ. eigenvalues --   -0.53881  -0.53813  -0.53318  -0.53223  -0.53149
 Alpha  occ. eigenvalues --   -0.53049  -0.52908  -0.52797  -0.52773  -0.52598
 Alpha  occ. eigenvalues --   -0.52495  -0.52333  -0.51915  -0.51798  -0.51608
 Alpha  occ. eigenvalues --   -0.51562  -0.51198  -0.51108  -0.50611  -0.50416
 Alpha  occ. eigenvalues --   -0.50076  -0.49940  -0.49902  -0.49801  -0.49518
 Alpha  occ. eigenvalues --   -0.49407  -0.49214  -0.49110  -0.49085  -0.49010
 Alpha  occ. eigenvalues --   -0.48582  -0.48493  -0.48456  -0.48452  -0.48303
 Alpha  occ. eigenvalues --   -0.48261  -0.47704  -0.47509  -0.47309  -0.47040
 Alpha  occ. eigenvalues --   -0.46813  -0.46625  -0.46542  -0.46458  -0.46374
 Alpha  occ. eigenvalues --   -0.46189  -0.46166  -0.45995  -0.45803  -0.45717
 Alpha  occ. eigenvalues --   -0.45235  -0.45137  -0.44568  -0.44532  -0.44418
 Alpha  occ. eigenvalues --   -0.44389  -0.44174  -0.44084  -0.44041  -0.44015
 Alpha  occ. eigenvalues --   -0.43999  -0.43853  -0.43475  -0.43438  -0.43395
 Alpha  occ. eigenvalues --   -0.43292  -0.43033  -0.42830  -0.42776  -0.42728
 Alpha  occ. eigenvalues --   -0.42620  -0.42485  -0.42033  -0.41880  -0.41707
 Alpha  occ. eigenvalues --   -0.41578  -0.41527  -0.41365  -0.41147  -0.40907
 Alpha  occ. eigenvalues --   -0.40881  -0.40855  -0.40647  -0.40613  -0.40598
 Alpha  occ. eigenvalues --   -0.40417  -0.40210  -0.40121  -0.39507  -0.39361
 Alpha  occ. eigenvalues --   -0.38501  -0.38277  -0.37730  -0.37545  -0.37348
 Alpha  occ. eigenvalues --   -0.37252  -0.37188  -0.37103  -0.36682  -0.36636
 Alpha  occ. eigenvalues --   -0.36180  -0.36119  -0.34296  -0.34170  -0.33714
 Alpha  occ. eigenvalues --   -0.33713  -0.33192  -0.33091  -0.31389  -0.31214
 Alpha  occ. eigenvalues --   -0.31046  -0.30890  -0.30006  -0.29852  -0.29467
 Alpha  occ. eigenvalues --   -0.29328  -0.29252  -0.29128  -0.24091  -0.23954
 Alpha  occ. eigenvalues --   -0.21142  -0.21038
 Alpha virt. eigenvalues --   -0.08788  -0.08713  -0.01769  -0.01607  -0.00077
 Alpha virt. eigenvalues --    0.00045   0.02198   0.02295   0.03099   0.03314
 Alpha virt. eigenvalues --    0.04719   0.04822   0.05158   0.05312   0.06208

 Mulliken charges:
               1
     1  Mg   0.838649
     2  C   -0.002611
     3  C   -0.093935
     4  C   -0.046237
     5  C   -0.064243
     6  N   -0.256759
     7  C   -0.052281
     8  C   -0.014016
     9  C   -0.086999
    10  C    0.046320
    11  C    0.104808
    12  C    0.053420
    13  C   -0.072023
    14  H    0.036933
    15  N   -0.433095
    16  C    0.168289
    17  C   -0.177171
    18  C   -0.004279
    19  C    0.148640
    20  C    0.110160
    21  C    0.011920
    22  O   -0.250141
    23  C    0.062625
    24  N   -0.341103
    25  C    0.041188
    26  C   -0.028102
    27  C   -0.023934
    28  C    0.074741
    29  C    0.076183
    30  C    0.035234
    31  C   -0.004390
    32  N   -0.310558
    33  C    0.080474
    34  C   -0.169681
    35  C    0.008662
    36  C    0.083121
    37  C    0.127236
    38  C    0.046496
    39  O   -0.187692
    40  C   -0.005462
    41  C    0.212930
    42  O   -0.256356
    43  O   -0.305015
    44  C    0.157405
    45  H   -0.017557
    46  H   -0.017233
    47  H   -0.041618
    48  H    0.001119
    49  H   -0.003938
    50  H    0.025546
    51  H    0.016293
    52  H    0.016710
    53  H    0.011141
    54  H    0.044646
    55  H    0.017784
    56  H    0.017820
    57  H    0.006044
    58  H    0.026724
    59  H    0.039288
    60  H    0.037551
    61  H    0.035104
    62  H    0.031233
    63  H    0.015977
    64  H    0.009620
    65  H    0.022939
    66  H    0.012730
    67  H    0.004821
    68  H    0.006179
    69  H    0.004852
    70  H    0.008342
    71  H    0.017056
    72  H    0.029281
    73  H    0.048055
    74  H    0.008847
    75  H    0.046158
    76  H    0.035207
    77  H    0.043089
    78  H    0.046306
    79  H    0.054530
    80  Mg   0.837927
    81  C   -0.016543
    82  C   -0.087755
    83  C   -0.045679
    84  C   -0.065042
    85  N   -0.254538
    86  C   -0.049698
    87  C   -0.015089
    88  C   -0.090500
    89  C    0.045760
    90  C    0.114408
    91  C    0.062494
    92  C   -0.078238
    93  H    0.036117
    94  N   -0.423426
    95  C    0.162831
    96  C   -0.174762
    97  C   -0.008017
    98  C    0.152082
    99  C    0.099435
   100  C    0.015418
   101  O   -0.253432
   102  C    0.061264
   103  N   -0.350104
   104  C    0.037471
   105  C   -0.019757
   106  C   -0.034842
   107  C    0.089011
   108  C    0.073742
   109  C    0.034756
   110  C   -0.007632
   111  N   -0.324196
   112  C    0.078628
   113  C   -0.163044
   114  C    0.002383
   115  C    0.096365
   116  C    0.131431
   117  C    0.042656
   118  O   -0.187378
   119  C    0.000850
   120  C    0.211309
   121  O   -0.250102
   122  O   -0.306063
   123  C    0.151590
   124  H   -0.019772
   125  H   -0.015821
   126  H   -0.040530
   127  H   -0.000677
   128  H   -0.004233
   129  H    0.022382
   130  H    0.014231
   131  H    0.016165
   132  H    0.013839
   133  H    0.038355
   134  H    0.020320
   135  H    0.019561
   136  H    0.008803
   137  H    0.025903
   138  H    0.039466
   139  H    0.038190
   140  H    0.036075
   141  H    0.033719
   142  H    0.014244
   143  H    0.012306
   144  H    0.024930
   145  H    0.011584
   146  H    0.005543
   147  H    0.006061
   148  H    0.003668
   149  H    0.010749
   150  H    0.017931
   151  H    0.030316
   152  H    0.046369
   153  H    0.008411
   154  H    0.046818
   155  H    0.034816
   156  H    0.043744
   157  H    0.049177
   158  H    0.055268
 Sum of Mulliken charges =  -0.00000

 Dipole moment (field-independent basis, Debye):
    X=             -2.0562    Y=              7.2561    Z=              1.1941  Tot=              7.6358
 Quadrupole moment (field-independent basis, Debye-Ang):
   XX=           -472.6550   YY=           -540.3974   ZZ=           -471.0052
   XY=            -18.6030   XZ=            -27.7323   YZ=             -7.1893

 Normal termination of Gaussian 16 at Sun Sep 12 00:48:01 2021.
