 Gaussian 16, Revision A.03,
 Gaussian 16:  ES64L-G16RevA.03 25-Dec-2016

 -----------------------------------
 #p cam-b3lyp/Def2SVP td=(nstates=5)
 -----------------------------------

 --------------------------------
 TDDFT excited states in gaussian
 --------------------------------
 Symbolic Z-matrix:
 Charge =  0 Multiplicity = 1

                         Standard orientation:
 ---------------------------------------------------------------------
 Center     Atomic      Atomic             Coordinates (Angstroms)
 Number     Number       Type             X           Y           Z
 ---------------------------------------------------------------------
      1         12           0       -3.688362    0.464304   -1.278601
      2          6           0       -4.409269   -2.579454    0.461526
      3          6           0       -5.505691    2.086375    1.110807
      4          6           0       -3.449644    3.093063   -3.036230
      5          6           0       -2.925304   -1.483065   -4.066280
      6          7           0       -4.769769   -0.263653    0.510613
      7          6           0       -4.918647   -1.446175    1.099380
      8          6           0       -5.601685   -1.358871    2.496953
      9          6           0       -6.380773    0.019653    2.310697
     10          6           0       -5.480333    0.669530    1.274940
     11          6           0       -7.775489   -0.144355    1.715408
     12          6           0       -4.560456   -1.275401    3.663403
     13          6           0       -5.128875   -1.515376    5.065069
     14          1           0       -4.307703   -2.211570    6.044016
     15          7           0       -3.944393    2.360878   -0.788388
     16          6           0       -4.705997    2.839848    0.224445
     17          6           0       -4.569380    4.311483    0.176394
     18          6           0       -3.818932    4.658586   -1.062332
     19          6           0       -3.729273    3.369946   -1.700098
     20          6           0       -5.076559    5.220527    1.253501
     21          6           0       -3.278908    5.948940   -1.592890
     22          8           0       -2.862984    6.068816   -2.795890
     23          6           0       -3.332254    7.107198   -0.682595
     24          7           0       -3.462737    0.786107   -3.328765
     25          6           0       -3.325885    2.021664   -3.822380
     26          6           0       -2.898179    1.991119   -5.259765
     27          6           0       -2.533672    0.469885   -5.580289
     28          6           0       -2.915305   -0.156633   -4.216434
     29          6           0       -3.932554    2.493202   -6.276618
     30          6           0       -1.120499    0.190560   -6.150674
     31          6           0       -0.074769    0.488051   -5.099463
     32          7           0       -3.490274   -1.655230   -1.702135
     33          6           0       -3.187286   -2.243223   -2.938717
     34          6           0       -3.270731   -3.703771   -2.754582
     35          6           0       -3.635035   -3.864617   -1.419196
     36          6           0       -3.796168   -2.585152   -0.814799
     37          6           0       -3.079890   -4.683782   -3.768285
     38          6           0       -3.949667   -4.819403   -0.368841
     39          8           0       -3.892195   -6.045618   -0.265942
     40          6           0       -4.582007   -4.024703    0.857709
     41          6           0       -3.893897   -4.497833    2.109093
     42          8           0       -2.685714   -4.254907    2.305683
     43          8           0       -4.811785   -4.949090    2.977649
     44          6           0       -4.197825   -5.406557    4.252770
     45          1           0       -6.243641    2.668896    1.665821
     46          1           0       -3.251096    3.972792   -3.651937
     47          1           0       -2.618067   -2.155545   -4.869293
     48          1           0       -6.309312   -2.160867    2.707881
     49          1           0       -6.390386    0.608762    3.227529
     50          1           0       -7.954503   -1.171217    1.396929
     51          1           0       -7.808072    0.530701    0.859996
     52          1           0       -8.537099    0.213514    2.408703
     53          1           0       -4.225543   -0.243965    3.773104
     54          1           0       -3.729994   -1.960411    3.488994
     55          1           0       -6.125790   -1.954841    5.021027
     56          1           0       -5.280456   -0.547249    5.542514
     57          1           0       -5.727053    4.692607    1.949707
     58          1           0       -5.727957    5.950554    0.773449
     59          1           0       -4.266869    5.734796    1.771441
     60          1           0       -4.367656    7.292025   -0.395663
     61          1           0       -2.821881    7.919345   -1.199108
     62          1           0       -2.799205    6.859369    0.235767
     63          1           0       -2.016602    2.610787   -5.418695
     64          1           0       -3.208748    0.034064   -6.317179
     65          1           0       -3.572528    3.312644   -6.899194
     66          1           0       -4.829680    2.782372   -5.729959
     67          1           0       -4.324062    1.727854   -6.946230
     68          1           0       -0.917884    0.843968   -6.998584
     69          1           0       -0.987134   -0.838218   -6.485458
     70          1           0        0.067738    1.563833   -5.195466
     71          1           0        0.848553   -0.049186   -5.318697
     72          1           0       -0.454365    0.297966   -4.095342
     73          1           0       -2.469098   -5.468770   -3.322532
     74          1           0       -2.596430   -4.256231   -4.646391
     75          1           0       -4.111365   -4.978163   -3.961299
     76          1           0       -5.647064   -4.254335    0.864379
     77          1           0       -4.515241   -6.437435    4.410158
     78          1           0       -4.471831   -4.671580    5.009826
     79          1           0       -3.113500   -5.523076    4.251128
     80         12           0        3.807025    0.708413    1.344551
     81          6           0        4.608559   -1.509661   -1.360406
     82          6           0        2.412770   -1.970279    2.930506
     83          6           0        2.690554    2.712995    3.536021
     84          6           0        4.215279    3.353782   -0.887269
     85          7           0        3.599773   -1.414458    0.759112
     86          6           0        3.997306   -2.154477   -0.264946
     87          6           0        3.796832   -3.681503   -0.071187
     88          6           0        2.611555   -3.632996    1.011231
     89          6           0        2.906693   -2.270923    1.635992
     90          6           0        1.227380   -3.581902    0.386108
     91          6           0        5.075122   -4.383456    0.507830
     92          6           0        5.059054   -5.911822    0.433130
     93          1           0        6.316868   -6.609621    0.181217
     94          7           0        3.157068    0.364083    3.187800
     95          6           0        2.643454   -0.787982    3.667594
     96          6           0        2.296828   -0.519890    5.071926
     97          6           0        2.495078    0.931357    5.335184
     98          6           0        2.774793    1.406567    3.995023
     99          6           0        1.905731   -1.603250    6.034617
    100          6           0        2.429522    1.757146    6.584168
    101          8           0        2.401620    3.037944    6.543872
    102          6           0        2.304745    1.021284    7.850828
    103          7           0        3.289653    2.721041    1.281388
    104          6           0        2.881167    3.364922    2.388856
    105          6           0        2.830653    4.857438    2.164754
    106          6           0        3.524822    5.102431    0.745004
    107          6           0        3.787968    3.636630    0.335665
    108          6           0        1.436072    5.483165    2.163837
    109          6           0        4.710319    6.105265    0.704935
    110          6           0        5.887869    5.543116    1.468312
    111          7           0        4.494777    0.933862   -0.691186
    112          6           0        4.560692    2.128055   -1.441946
    113          6           0        4.982898    1.760141   -2.808987
    114          6           0        5.112086    0.363779   -2.764560
    115          6           0        4.773408   -0.107467   -1.467365
    116          6           0        5.148219    2.660310   -3.899173
    117          6           0        5.447683   -0.819774   -3.523026
    118          8           0        5.893273   -1.031931   -4.650050
    119          6           0        5.014529   -2.097850   -2.683214
    120          6           0        6.160908   -3.071609   -2.694766
    121          8           0        7.236133   -2.788705   -2.137577
    122          8           0        5.729487   -4.254532   -3.169055
    123          6           0        6.828198   -5.256651   -3.189462
    124          1           0        1.750416   -2.689535    3.413057
    125          1           0        2.416288    3.459238    4.285278
    126          1           0        4.459950    4.130958   -1.614468
    127          1           0        3.469903   -4.212749   -0.957004
    128          1           0        2.718932   -4.422771    1.750208
    129          1           0        1.273780   -3.467034   -0.686641
    130          1           0        0.732356   -2.731579    0.836598
    131          1           0        0.647152   -4.460371    0.682699
    132          1           0        5.095249   -4.248779    1.596958
    133          1           0        5.962506   -4.007931    0.036487
    134          1           0        4.272807   -6.283605   -0.235101
    135          1           0        4.783993   -6.304376    1.415088
    136          1           0        1.686630   -2.543848    5.514344
    137          1           0        0.947987   -1.307837    6.476574
    138          1           0        2.636735   -1.740150    6.834337
    139          1           0        1.406897    0.408360    7.825461
    140          1           0        2.363102    1.778136    8.635455
    141          1           0        3.152920    0.333444    7.940846
    142          1           0        3.393994    5.382172    2.926586
    143          1           0        2.816046    5.511535    0.010079
    144          1           0        1.319406    6.290439    2.911348
    145          1           0        0.710122    4.699275    2.334279
    146          1           0        1.114106    5.892292    1.207727
    147          1           0        4.434330    7.038004    1.202909
    148          1           0        5.027667    6.358935   -0.301008
    149          1           0        5.655863    5.802175    2.505686
    150          1           0        6.814476    6.011278    1.142344
    151          1           0        5.915324    4.449388    1.399929
    152          1           0        6.065149    2.378383   -4.399418
    153          1           0        5.180905    3.693621   -3.560112
    154          1           0        4.241158    2.444068   -4.469923
    155          1           0        4.121381   -2.511372   -3.153182
    156          1           0        6.898481   -5.632866   -4.214741
    157          1           0        6.578362   -5.990006   -2.399825
    158          1           0        7.837489   -4.897210   -3.026428
 ---------------------------------------------------------------------

 SCF Done:  E(RCAM-B3LYP) =  -4069.81401383     A.U. after   18 cycles

 Excitation energies and oscillator strengths:

 Excited State   1:      Singlet-A      1.6665 eV  743.99 nm  f=0.2885  <S**2>=0.000
     310 -> 316        0.15165
     311 -> 313       -0.30572
     312 -> 314        0.61433
 This state for optimization and/or second-order correction.
 Total Energy, E(TD-HF/TD-DFT) =  -4069.75277167
 Copying the excited state density for this state as the 1-particle RhoCI density.

 Excited State   2:      Singlet-A      1.6738 eV  740.74 nm  f=0.3591  <S**2>=0.000
     309 -> 315        0.15591
     311 -> 313        0.61354
     312 -> 314        0.30525

 Excited State   3:      Singlet-A      2.1822 eV  568.17 nm  f=0.0969  <S**2>=0.000
     309 -> 313       -0.15019
     310 -> 314        0.62563
     312 -> 316       -0.25977

 Excited State   4:      Singlet-A      2.1930 eV  565.36 nm  f=0.0999  <S**2>=0.000
     309 -> 313        0.62302
     310 -> 314        0.14888
     311 -> 315       -0.27005

 Excited State   5:      Singlet-A      2.2062 eV  561.99 nm  f=0.0000  <S**2>=0.000
     312 -> 313        0.70702

 The electronic state is 1-A.
 Alpha  occ. eigenvalues --  -46.87970 -46.87354 -19.26788 -19.26089 -19.19607
 Alpha  occ. eigenvalues --  -19.18991 -19.18900 -19.18544 -19.18460 -19.17811
 Alpha  occ. eigenvalues --  -14.42632 -14.42122 -14.41607 -14.41070 -14.39576
 Alpha  occ. eigenvalues --  -14.39052 -14.38783 -14.38305 -10.39609 -10.38828
 Alpha  occ. eigenvalues --  -10.35622 -10.35227 -10.34688 -10.33984 -10.32192
 Alpha  occ. eigenvalues --  -10.31609 -10.31508 -10.31109 -10.30874 -10.30768
 Alpha  occ. eigenvalues --  -10.30694 -10.30643 -10.30330 -10.30137 -10.30085
 Alpha  occ. eigenvalues --  -10.30037 -10.29859 -10.29824 -10.29652 -10.29417
 Alpha  occ. eigenvalues --  -10.29139 -10.29133 -10.28989 -10.28855 -10.28572
 Alpha  occ. eigenvalues --  -10.28321 -10.28203 -10.28169 -10.28096 -10.27992
 Alpha  occ. eigenvalues --  -10.27899 -10.27770 -10.27711 -10.27618 -10.27604
 Alpha  occ. eigenvalues --  -10.27552 -10.27529 -10.27485 -10.27402 -10.27316
 Alpha  occ. eigenvalues --  -10.27234 -10.27226 -10.27209 -10.27178 -10.27163
 Alpha  occ. eigenvalues --  -10.26998 -10.26781 -10.26572 -10.26417 -10.26297
 Alpha  occ. eigenvalues --  -10.26236 -10.26166 -10.26143 -10.26041 -10.25965
 Alpha  occ. eigenvalues --  -10.25639 -10.25627 -10.25506 -10.25380 -10.25053
 Alpha  occ. eigenvalues --  -10.24958 -10.24801 -10.24604 -10.24591 -10.24569
 Alpha  occ. eigenvalues --  -10.24427  -3.16712  -3.16104  -1.91593  -1.91180
 Alpha  occ. eigenvalues --   -1.91023  -1.90987  -1.90574  -1.90412  -1.17141
 Alpha  occ. eigenvalues --   -1.16382  -1.08942  -1.08424  -1.07392  -1.07187
 Alpha  occ. eigenvalues --   -1.06804  -1.06686  -1.04772  -1.04126  -1.03927
 Alpha  occ. eigenvalues --   -1.03414  -1.03347  -1.02756  -1.02590  -1.01814
 Alpha  occ. eigenvalues --   -0.92209  -0.91677  -0.89638  -0.89405  -0.89247
 Alpha  occ. eigenvalues --   -0.88553  -0.88391  -0.88071  -0.88006  -0.87857
 Alpha  occ. eigenvalues --   -0.87515  -0.87441  -0.87312  -0.86875  -0.85203
 Alpha  occ. eigenvalues --   -0.84537  -0.84047  -0.83689  -0.83109  -0.82871
 Alpha  occ. eigenvalues --   -0.82739  -0.82240  -0.81892  -0.81297  -0.80830
 Alpha  occ. eigenvalues --   -0.80142  -0.78972  -0.78354  -0.77391  -0.77168
 Alpha  occ. eigenvalues --   -0.76834  -0.76490  -0.76162  -0.75354  -0.75034
 Alpha  occ. eigenvalues --   -0.74571  -0.72952  -0.72383  -0.71860  -0.71211
 Alpha  occ. eigenvalues --   -0.69955  -0.69544  -0.69086  -0.68398  -0.67849
 Alpha  occ. eigenvalues --   -0.67450  -0.67326  -0.66827  -0.65520  -0.65093
 Alpha  occ. eigenvalues --   -0.64852  -0.64824  -0.64458  -0.64390  -0.64292
 Alpha  occ. eigenvalues --   -0.63948  -0.62623  -0.62003  -0.60598  -0.60101
 Alpha  occ. eigenvalues --   -0.60014  -0.59317  -0.59184  -0.58716  -0.58684
 Alpha  occ. eigenvalues --   -0.58134  -0.57924  -0.57483  -0.57280  -0.57000
 Alpha  occ. eigenvalues --   -0.56546  -0.56315  -0.55901  -0.55732  -0.55585
 Alpha  occ. eigenvalues --   -0.55545  -0.55167  -0.55021  -0.54760  -0.54257
 Alpha  occ. eigenvalues --   -0.54126  -0.53481  -0.53456  -0.53369  -0.53196
 Alpha  occ. eigenvalues --   -0.52959  -0.52943  -0.52833  -0.52582  -0.52475
 Alpha  occ. eigenvalues --   -0.52276  -0.52194  -0.52131  -0.51851  -0.51636
 Alpha  occ. eigenvalues --   -0.51407  -0.51257  -0.50892  -0.50713  -0.50242
 Alpha  occ. eigenvalues --   -0.50154  -0.50062  -0.49741  -0.49734  -0.49559
 Alpha  occ. eigenvalues --   -0.49453  -0.49324  -0.49109  -0.48872  -0.48867
 Alpha  occ. eigenvalues --   -0.48676  -0.48597  -0.48573  -0.48204  -0.48157
 Alpha  occ. eigenvalues --   -0.48049  -0.47885  -0.47479  -0.47244  -0.46968
 Alpha  occ. eigenvalues --   -0.46845  -0.46791  -0.46561  -0.46376  -0.46352
 Alpha  occ. eigenvalues --   -0.46099  -0.46074  -0.45976  -0.45850  -0.45500
 Alpha  occ. eigenvalues --   -0.45323  -0.45004  -0.44838  -0.44679  -0.44363
 Alpha  occ. eigenvalues --   -0.44261  -0.44244  -0.44219  -0.44113  -0.43847
 Alpha  occ. eigenvalues --   -0.43792  -0.43683  -0.43575  -0.43566  -0.43258
 Alpha  occ. eigenvalues --   -0.43232  -0.43102  -0.42993  -0.42751  -0.42665
 Alpha  occ. eigenvalues --   -0.42587  -0.42321  -0.42154  -0.41911  -0.41740
 Alpha  occ. eigenvalues --   -0.41682  -0.41364  -0.41330  -0.41060  -0.41054
 Alpha  occ. eigenvalues --   -0.41005  -0.40675  -0.40602  -0.40481  -0.40474
 Alpha  occ. eigenvalues --   -0.40327  -0.40054  -0.39784  -0.39472  -0.39217
 Alpha  occ. eigenvalues --   -0.38587  -0.38098  -0.38004  -0.37500  -0.37452
 Alpha  occ. eigenvalues --   -0.37253  -0.37130  -0.36972  -0.36777  -0.36517
 Alpha  occ. eigenvalues --   -0.36410  -0.35924  -0.34486  -0.34272  -0.33937
 Alpha  occ. eigenvalues --   -0.33595  -0.33386  -0.32866  -0.31520  -0.31230
 Alpha  occ. eigenvalues --   -0.31101  -0.30650  -0.30327  -0.29714  -0.29640
 Alpha  occ. eigenvalues --   -0.29527  -0.29068  -0.28939  -0.24267  -0.23718
 Alpha  occ. eigenvalues --   -0.21305  -0.20800
 Alpha virt. eigenvalues --   -0.08962  -0.08499  -0.01919  -0.01392  -0.00253
 Alpha virt. eigenvalues --    0.00261   0.01965   0.02355   0.02592   0.03633
 Alpha virt. eigenvalues --    0.04510   0.04609   0.05183   0.05437   0.05877

 Mulliken charges:
               1
     1  Mg   0.839240
     2  C   -0.004594
     3  C   -0.093494
     4  C   -0.045361
     5  C   -0.063465
     6  N   -0.256976
     7  C   -0.052585
     8  C   -0.014237
     9  C   -0.087238
    10  C    0.046681
    11  C    0.104657
    12  C    0.053413
    13  C   -0.071264
    14  H    0.032720
    15  N   -0.433341
    16  C    0.169200
    17  C   -0.176471
    18  C   -0.003770
    19  C    0.149281
    20  C    0.109923
    21  C    0.011871
    22  O   -0.249330
    23  C    0.061899
    24  N   -0.341232
    25  C    0.041939
    26  C   -0.028344
    27  C   -0.024072
    28  C    0.075140
    29  C    0.076063
    30  C    0.034878
    31  C   -0.006170
    32  N   -0.310150
    33  C    0.079780
    34  C   -0.170987
    35  C    0.007472
    36  C    0.082242
    37  C    0.127579
    38  C    0.043860
    39  O   -0.190017
    40  C   -0.004931
    41  C    0.214578
    42  O   -0.262478
    43  O   -0.303113
    44  C    0.158332
    45  H   -0.017113
    46  H   -0.016375
    47  H   -0.040658
    48  H    0.000686
    49  H   -0.003437
    50  H    0.025448
    51  H    0.016921
    52  H    0.017171
    53  H    0.013082
    54  H    0.041020
    55  H    0.018598
    56  H    0.019555
    57  H    0.006447
    58  H    0.027171
    59  H    0.040948
    60  H    0.038062
    61  H    0.035528
    62  H    0.031866
    63  H    0.017010
    64  H    0.009754
    65  H    0.023690
    66  H    0.012268
    67  H    0.005277
    68  H    0.007359
    69  H    0.005661
    70  H    0.007839
    71  H    0.023303
    72  H    0.028066
    73  H    0.045789
    74  H    0.010359
    75  H    0.046472
    76  H    0.035999
    77  H    0.044066
    78  H    0.047398
    79  H    0.049985
    80  Mg   0.836266
    81  C   -0.016963
    82  C   -0.086784
    83  C   -0.046962
    84  C   -0.064882
    85  N   -0.255278
    86  C   -0.048763
    87  C   -0.015292
    88  C   -0.090131
    89  C    0.043729
    90  C    0.113731
    91  C    0.062358
    92  C   -0.077260
    93  H    0.032209
    94  N   -0.423653
    95  C    0.162291
    96  C   -0.173428
    97  C   -0.009399
    98  C    0.152754
    99  C    0.099471
   100  C    0.014650
   101  O   -0.254897
   102  C    0.061605
   103  N   -0.350437
   104  C    0.037596
   105  C   -0.019529
   106  C   -0.035416
   107  C    0.088731
   108  C    0.073459
   109  C    0.035033
   110  C   -0.007504
   111  N   -0.324009
   112  C    0.077872
   113  C   -0.163559
   114  C    0.001588
   115  C    0.096094
   116  C    0.131496
   117  C    0.040870
   118  O   -0.189811
   119  C    0.001530
   120  C    0.211405
   121  O   -0.251289
   122  O   -0.305522
   123  C    0.152277
   124  H   -0.010206
   125  H   -0.017647
   126  H   -0.040864
   127  H   -0.000676
   128  H   -0.004025
   129  H    0.017507
   130  H    0.018907
   131  H    0.031973
   132  H    0.013147
   133  H    0.035999
   134  H    0.022402
   135  H    0.020149
   136  H    0.011738
   137  H    0.024616
   138  H    0.038489
   139  H    0.037359
   140  H    0.035045
   141  H    0.034195
   142  H    0.013693
   143  H    0.013781
   144  H    0.022694
   145  H    0.010397
   146  H    0.005384
   147  H    0.005037
   148  H    0.003922
   149  H    0.010201
   150  H    0.017434
   151  H    0.030706
   152  H    0.045093
   153  H    0.008442
   154  H    0.045945
   155  H    0.034246
   156  H    0.042898
   157  H    0.050421
   158  H    0.053011
 Sum of Mulliken charges =  -0.00000

 Dipole moment (field-independent basis, Debye):
    X=             -6.1915    Y=              0.8960    Z=              4.0726  Tot=              7.4648
 Quadrupole moment (field-independent basis, Debye-Ang):
   XX=           -518.0510   YY=           -505.4835   ZZ=           -496.3832
   XY=            -17.1032   XZ=             -2.3508   YZ=            -10.7261

 Normal termination of Gaussian 16 at Thu Sep  9 11:29:07 2021.
