 Gaussian 16, Revision A.03,
 Gaussian 16:  ES64L-G16RevA.03 25-Dec-2016

 -----------------------------------
 #p cam-b3lyp/Def2SVP td=(nstates=5)
 -----------------------------------

 --------------------------------
 TDDFT excited states in gaussian
 --------------------------------
 Symbolic Z-matrix:
 Charge =  0 Multiplicity = 1

                         Standard orientation:
 ---------------------------------------------------------------------
 Center     Atomic      Atomic             Coordinates (Angstroms)
 Number     Number       Type             X           Y           Z
 ---------------------------------------------------------------------
      1         12           0        3.904866   -0.525012    1.216404
      2          6           0        4.643932    2.411612   -0.692060
      3          6           0        3.865818    1.466187    3.987083
      4          6           0        3.703947   -3.157986    2.972451
      5          6           0        5.107307   -2.393338   -1.468583
      6          7           0        4.226514    1.648719    1.484879
      7          6           0        4.442753    2.672662    0.665152
      8          6           0        4.360415    4.058403    1.372483
      9          6           0        4.683352    3.598947    2.864666
     10          6           0        4.197697    2.162276    2.786938
     11          6           0        6.172965    3.596816    3.192617
     12          6           0        2.934655    4.696751    1.265475
     13          6           0        2.852839    6.179485    1.639853
     14          1           0        1.931544    7.036476    0.909012
     15          7           0        3.327241   -0.775095    3.089011
     16          6           0        3.366242    0.149041    4.078828
     17          6           0        2.829430   -0.520605    5.283024
     18          6           0        2.652565   -1.963772    4.960403
     19          6           0        3.253197   -2.029126    3.652601
     20          6           0        2.496028    0.206792    6.549313
     21          6           0        2.048935   -3.105250    5.715909
     22          8           0        2.205545   -4.320679    5.351521
     23          6           0        1.334267   -2.765179    6.959551
     24          7           0        4.542321   -2.488905    0.909139
     25          6           0        4.277312   -3.448211    1.802720
     26          6           0        4.575015   -4.809306    1.247085
     27          6           0        4.871853   -4.596953   -0.307439
     28          6           0        4.766679   -3.052754   -0.358984
     29          6           0        5.751052   -5.553777    1.894164
     30          6           0        4.025786   -5.427563   -1.304774
     31          6           0        2.583659   -4.974844   -1.255644
     32          7           0        4.568342   -0.110484   -0.808198
     33          6           0        5.048393   -1.037526   -1.744583
     34          6           0        5.475851   -0.272154   -2.930144
     35          6           0        5.228553    1.056997   -2.592438
     36          6           0        4.705779    1.120085   -1.269177
     37          6           0        6.067862   -0.815886   -4.104160
     38          6           0        5.307352    2.440503   -3.032392
     39          8           0        5.582375    2.997915   -4.095946
     40          6           0        5.046228    3.381846   -1.774810
     41          6           0        4.046690    4.427073   -2.189217
     42          8           0        2.869714    4.114293   -2.461728
     43          8           0        4.562484    5.646525   -1.971425
     44          6           0        3.609828    6.729607   -2.334101
     45          1           0        4.060073    1.947705    4.947472
     46          1           0        3.549407   -4.100646    3.501552
     47          1           0        5.413843   -2.915103   -2.377016
     48          1           0        5.101696    4.784285    1.037786
     49          1           0        4.100586    4.156830    3.597381
     50          1           0        6.776507    3.787887    2.305403
     51          1           0        6.382370    2.602956    3.588703
     52          1           0        6.392504    4.294125    4.001530
     53          1           0        2.292845    4.274487    2.038673
     54          1           0        2.522023    4.553934    0.266143
     55          1           0        3.842803    6.634220    1.685630
     56          1           0        2.473125    6.253994    2.658905
     57          1           0        2.887949    1.223106    6.542447
     58          1           0        3.039614   -0.288528    7.353602
     59          1           0        1.427224    0.189825    6.763097
     60          1           0        2.019175   -2.261430    7.641963
     61          1           0        0.893394   -3.695110    7.316917
     62          1           0        0.547187   -2.046553    6.729267
     63          1           0        3.719112   -5.473494    1.359833
     64          1           0        5.902586   -4.842493   -0.564293
     65          1           0        5.482108   -6.529906    2.298572
     66          1           0        6.171256   -4.912114    2.668107
     67          1           0        6.612553   -5.700957    1.243342
     68          1           0        4.040721   -6.481395   -1.028803
     69          1           0        4.374790   -5.349409   -2.334501
     70          1           0        2.182857   -5.530346   -0.408528
     71          1           0        2.068657   -5.244567   -2.178268
     72          1           0        2.507332   -3.914233   -1.015304
     73          1           0        5.590423   -0.315287   -4.946432
     74          1           0        5.928531   -1.895552   -4.154274
     75          1           0        7.110268   -0.535955   -3.952884
     76          1           0        6.007327    3.818581   -1.505230
     77          1           0        4.116386    7.375883   -3.051011
     78          1           0        3.277243    7.176396   -1.396993
     79          1           0        2.734634    6.428587   -2.910957
     80         12           0       -3.636449   -0.754165   -1.223684
     81          6           0       -5.814609    1.450187    0.586154
     82          6           0       -2.668140    1.952416   -3.059807
     83          6           0       -2.050518   -2.737048   -3.126430
     84          6           0       -5.575124   -3.403994   -0.055072
     85          7           0       -4.235025    1.373905   -1.151125
     86          6           0       -5.025092    2.106630   -0.380890
     87          6           0       -4.905903    3.637439   -0.608855
     88          6           0       -4.352606    3.613721   -2.116225
     89          6           0       -3.676613    2.244192   -2.106948
     90          6           0       -5.455218    3.595048   -3.161807
     91          6           0       -3.879364    4.309287    0.369326
     92          6           0       -3.938944    5.837759    0.413610
     93          1           0       -3.689360    6.507444    1.687071
     94          7           0       -2.172414   -0.398634   -2.515484
     95          6           0       -1.910701    0.763860   -3.149036
     96          6           0       -0.744533    0.501087   -4.006460
     97          6           0       -0.440732   -0.954742   -3.951905
     98          6           0       -1.580396   -1.433684   -3.195689
     99          6           0        0.009816    1.591244   -4.710683
    100          6           0        0.682207   -1.781123   -4.501718
    101          8           0        0.621231   -3.060889   -4.538183
    102          6           0        1.815090   -1.044954   -5.081462
    103          7           0       -3.911152   -2.754485   -1.719284
    104          6           0       -3.047038   -3.391000   -2.529251
    105          6           0       -3.288867   -4.881587   -2.521400
    106          6           0       -4.343137   -5.139602   -1.346864
    107          6           0       -4.607545   -3.679363   -0.918857
    108          6           0       -3.823462   -5.475664   -3.824345
    109          6           0       -3.942202   -6.168869   -0.254829
    110          6           0       -2.784523   -5.634847    0.557560
    111          7           0       -5.263150   -0.991365    0.178331
    112          6           0       -5.945417   -2.185364    0.499188
    113          6           0       -7.047466   -1.824582    1.414476
    114          6           0       -6.943200   -0.431570    1.545450
    115          6           0       -5.865637    0.044829    0.750840
    116          6           0       -8.003344   -2.726247    1.961666
    117          6           0       -7.506287    0.745482    2.166864
    118          8           0       -8.378889    0.949596    3.009854
    119          6           0       -6.879591    2.031477    1.474141
    120          6           0       -6.446822    2.979124    2.559132
    121          8           0       -5.527341    2.670990    3.337737
    122          8           0       -7.036898    4.172351    2.363190
    123          6           0       -6.630065    5.149438    3.407983
    124          1           0       -2.464547    2.685552   -3.840796
    125          1           0       -1.468291   -3.478271   -3.678768
    126          1           0       -6.163717   -4.185168    0.430735
    127          1           0       -5.844086    4.177552   -0.565601
    128          1           0       -3.619856    4.399516   -2.280421
    129          1           0       -6.431883    3.481131   -2.715394
    130          1           0       -5.234101    2.755298   -3.807538
    131          1           0       -5.391086    4.485851   -3.793231
    132          1           0       -2.864931    4.172199   -0.026755
    133          1           0       -3.983964    3.914686    1.361279
    134          1           0       -4.851017    6.228433   -0.053761
    135          1           0       -3.129940    6.234627   -0.204478
    136          1           0       -0.545016    2.537499   -4.697643
    137          1           0        0.053763    1.316725   -5.770199
    138          1           0        1.027943    1.710141   -4.333897
    139          1           0        1.458373   -0.411864   -5.890423
    140          1           0        2.555741   -1.804359   -5.339565
    141          1           0        2.226190   -0.376606   -4.316657
    142          1           0       -2.375989   -5.420302   -2.298826
    143          1           0       -5.295651   -5.531240   -1.733083
    144          1           0       -3.183886   -6.281462   -4.231396
    145          1           0       -3.932167   -4.675888   -4.544818
    146          1           0       -4.834466   -5.875669   -3.768919
    147          1           0       -3.595143   -7.096046   -0.717470
    148          1           0       -4.755991   -6.427786    0.414271
    149          1           0       -1.914614   -5.890505   -0.054796
    150          1           0       -2.740671   -6.123223    1.528955
    151          1           0       -2.826250   -4.541904    0.630947
    152          1           0       -8.116800   -2.464189    3.005202
    153          1           0       -7.687693   -3.760657    1.842772
    154          1           0       -8.872462   -2.488540    1.342480
    155          1           0       -7.648134    2.465931    0.833698
    156          1           0       -7.548733    5.525852    3.868466
    157          1           0       -5.986073    5.886806    2.892896
    158          1           0       -6.101167    4.767008    4.273119
 ---------------------------------------------------------------------

 SCF Done:  E(RCAM-B3LYP) =  -4069.81610780     A.U. after   17 cycles

 Excitation energies and oscillator strengths:

 Excited State   1:      Singlet-A      1.6306 eV  760.36 nm  f=0.0753  <S**2>=0.000
     309 -> 315        0.11506
     310 -> 316        0.11519
     311 -> 313       -0.48413
     312 -> 314        0.48891
 This state for optimization and/or second-order correction.
 Total Energy, E(TD-HF/TD-DFT) =  -4069.75618448
 Copying the excited state density for this state as the 1-particle RhoCI density.

 Excited State   2:      Singlet-A      1.7130 eV  723.77 nm  f=0.6291  <S**2>=0.000
     309 -> 315       -0.13105
     310 -> 316        0.12815
     311 -> 313        0.48575
     312 -> 314        0.48119

 Excited State   3:      Singlet-A      2.1839 eV  567.72 nm  f=0.0022  <S**2>=0.000
     309 -> 313        0.45756
     310 -> 314       -0.45471
     311 -> 315        0.19017
     312 -> 316        0.18949

 Excited State   4:      Singlet-A      2.1992 eV  563.76 nm  f=0.1672  <S**2>=0.000
     309 -> 313        0.45034
     310 -> 314        0.45208
     311 -> 315        0.19966
     312 -> 316       -0.19955

 Excited State   5:      Singlet-A      2.2632 eV  547.83 nm  f=0.0000  <S**2>=0.000
     312 -> 313        0.70646

 The electronic state is 1-A.
 Alpha  occ. eigenvalues --  -46.87850 -46.87335 -19.26739 -19.26243 -19.19587
 Alpha  occ. eigenvalues --  -19.19037 -19.18799 -19.18421 -19.18361 -19.17768
 Alpha  occ. eigenvalues --  -14.42514 -14.42173 -14.41467 -14.41030 -14.39455
 Alpha  occ. eigenvalues --  -14.39008 -14.38690 -14.38274 -10.39566 -10.38954
 Alpha  occ. eigenvalues --  -10.35422 -10.35007 -10.34652 -10.33957 -10.32125
 Alpha  occ. eigenvalues --  -10.31709 -10.31523 -10.30994 -10.30982 -10.30681
 Alpha  occ. eigenvalues --  -10.30657 -10.30587 -10.30144 -10.30099 -10.30007
 Alpha  occ. eigenvalues --  -10.29965 -10.29771 -10.29716 -10.29633 -10.29289
 Alpha  occ. eigenvalues --  -10.29035 -10.29011 -10.28879 -10.28736 -10.28531
 Alpha  occ. eigenvalues --  -10.28473 -10.28451 -10.28221 -10.28039 -10.27921
 Alpha  occ. eigenvalues --  -10.27841 -10.27786 -10.27645 -10.27623 -10.27508
 Alpha  occ. eigenvalues --  -10.27429 -10.27425 -10.27335 -10.27306 -10.27294
 Alpha  occ. eigenvalues --  -10.27247 -10.27167 -10.27143 -10.27040 -10.26877
 Alpha  occ. eigenvalues --  -10.26811 -10.26478 -10.26378 -10.26327 -10.26292
 Alpha  occ. eigenvalues --  -10.26003 -10.25990 -10.25886 -10.25760 -10.25758
 Alpha  occ. eigenvalues --  -10.25755 -10.25592 -10.25581 -10.25356 -10.25205
 Alpha  occ. eigenvalues --  -10.25009 -10.24834 -10.24524 -10.24458 -10.24382
 Alpha  occ. eigenvalues --  -10.24003  -3.16592  -3.16086  -1.91473  -1.91059
 Alpha  occ. eigenvalues --   -1.90969  -1.90903  -1.90557  -1.90393  -1.17094
 Alpha  occ. eigenvalues --   -1.16530  -1.08912  -1.08399  -1.07193  -1.07155
 Alpha  occ. eigenvalues --   -1.06816  -1.06604  -1.04661  -1.04165  -1.03797
 Alpha  occ. eigenvalues --   -1.03336  -1.03304  -1.02706  -1.02475  -1.01775
 Alpha  occ. eigenvalues --   -0.92117  -0.91679  -0.89452  -0.89284  -0.89190
 Alpha  occ. eigenvalues --   -0.88872  -0.88185  -0.88001  -0.87940  -0.87732
 Alpha  occ. eigenvalues --   -0.87475  -0.87347  -0.87283  -0.86539  -0.85082
 Alpha  occ. eigenvalues --   -0.84711  -0.83832  -0.83612  -0.82875  -0.82716
 Alpha  occ. eigenvalues --   -0.82515  -0.82214  -0.81794  -0.81367  -0.80703
 Alpha  occ. eigenvalues --   -0.80141  -0.78839  -0.78152  -0.77251  -0.77026
 Alpha  occ. eigenvalues --   -0.76787  -0.76653  -0.76044  -0.75516  -0.74855
 Alpha  occ. eigenvalues --   -0.74510  -0.72835  -0.72352  -0.71741  -0.71282
 Alpha  occ. eigenvalues --   -0.69658  -0.69476  -0.68957  -0.68518  -0.67732
 Alpha  occ. eigenvalues --   -0.67309  -0.67287  -0.66866  -0.65411  -0.64993
 Alpha  occ. eigenvalues --   -0.64982  -0.64682  -0.64479  -0.64375  -0.64174
 Alpha  occ. eigenvalues --   -0.63915  -0.62515  -0.62060  -0.60441  -0.59908
 Alpha  occ. eigenvalues --   -0.59884  -0.59490  -0.59066  -0.58687  -0.58596
 Alpha  occ. eigenvalues --   -0.58112  -0.57859  -0.57321  -0.57319  -0.56892
 Alpha  occ. eigenvalues --   -0.56454  -0.56206  -0.55863  -0.55624  -0.55596
 Alpha  occ. eigenvalues --   -0.55399  -0.55093  -0.54974  -0.54568  -0.54261
 Alpha  occ. eigenvalues --   -0.54014  -0.53636  -0.53347  -0.53314  -0.53074
 Alpha  occ. eigenvalues --   -0.52915  -0.52808  -0.52768  -0.52624  -0.52273
 Alpha  occ. eigenvalues --   -0.52132  -0.52092  -0.51929  -0.51719  -0.51599
 Alpha  occ. eigenvalues --   -0.51299  -0.51264  -0.50912  -0.50500  -0.50004
 Alpha  occ. eigenvalues --   -0.49918  -0.49823  -0.49612  -0.49552  -0.49429
 Alpha  occ. eigenvalues --   -0.49321  -0.49220  -0.49109  -0.48838  -0.48791
 Alpha  occ. eigenvalues --   -0.48755  -0.48532  -0.48418  -0.48271  -0.48121
 Alpha  occ. eigenvalues --   -0.47899  -0.47730  -0.47334  -0.47210  -0.46825
 Alpha  occ. eigenvalues --   -0.46687  -0.46659  -0.46444  -0.46403  -0.46242
 Alpha  occ. eigenvalues --   -0.46201  -0.46017  -0.45898  -0.45767  -0.45584
 Alpha  occ. eigenvalues --   -0.45136  -0.44925  -0.44748  -0.44514  -0.44274
 Alpha  occ. eigenvalues --   -0.44243  -0.44174  -0.44097  -0.44009  -0.43838
 Alpha  occ. eigenvalues --   -0.43754  -0.43678  -0.43479  -0.43408  -0.43332
 Alpha  occ. eigenvalues --   -0.43115  -0.43096  -0.43024  -0.42723  -0.42592
 Alpha  occ. eigenvalues --   -0.42527  -0.42202  -0.41933  -0.41768  -0.41690
 Alpha  occ. eigenvalues --   -0.41558  -0.41375  -0.41214  -0.41178  -0.40912
 Alpha  occ. eigenvalues --   -0.40818  -0.40691  -0.40432  -0.40428  -0.40342
 Alpha  occ. eigenvalues --   -0.40335  -0.40226  -0.39936  -0.39167  -0.39131
 Alpha  occ. eigenvalues --   -0.38390  -0.38089  -0.37880  -0.37422  -0.37395
 Alpha  occ. eigenvalues --   -0.37271  -0.37051  -0.36969  -0.36879  -0.36614
 Alpha  occ. eigenvalues --   -0.36240  -0.35959  -0.34385  -0.34219  -0.33940
 Alpha  occ. eigenvalues --   -0.33698  -0.33267  -0.32844  -0.31333  -0.31106
 Alpha  occ. eigenvalues --   -0.30909  -0.30653  -0.30289  -0.29687  -0.29560
 Alpha  occ. eigenvalues --   -0.29423  -0.28944  -0.28835  -0.24147  -0.23711
 Alpha  occ. eigenvalues --   -0.21192  -0.20763
 Alpha virt. eigenvalues --   -0.08849  -0.08420  -0.01785  -0.01366  -0.00119
 Alpha virt. eigenvalues --    0.00361   0.02040   0.02323   0.02531   0.04225
 Alpha virt. eigenvalues --    0.04632   0.04662   0.05013   0.05322   0.05983

 Mulliken charges:
               1
     1  Mg   0.839352
     2  C   -0.004428
     3  C   -0.093487
     4  C   -0.045194
     5  C   -0.060432
     6  N   -0.257225
     7  C   -0.052880
     8  C   -0.014285
     9  C   -0.087304
    10  C    0.047050
    11  C    0.104687
    12  C    0.053165
    13  C   -0.071401
    14  H    0.033352
    15  N   -0.433581
    16  C    0.169761
    17  C   -0.175684
    18  C   -0.002876
    19  C    0.149315
    20  C    0.109792
    21  C    0.013306
    22  O   -0.249016
    23  C    0.061659
    24  N   -0.341587
    25  C    0.042578
    26  C   -0.028235
    27  C   -0.024027
    28  C    0.075285
    29  C    0.076278
    30  C    0.034052
    31  C   -0.005589
    32  N   -0.308854
    33  C    0.077836
    34  C   -0.176570
    35  C    0.005152
    36  C    0.081307
    37  C    0.127749
    38  C    0.039558
    39  O   -0.190190
    40  C   -0.004779
    41  C    0.215142
    42  O   -0.262336
    43  O   -0.303028
    44  C    0.158170
    45  H   -0.017046
    46  H   -0.015970
    47  H   -0.039696
    48  H    0.000339
    49  H   -0.003286
    50  H    0.025320
    51  H    0.016932
    52  H    0.017090
    53  H    0.013260
    54  H    0.041611
    55  H    0.018168
    56  H    0.019509
    57  H    0.006153
    58  H    0.027132
    59  H    0.043125
    60  H    0.037155
    61  H    0.036276
    62  H    0.034474
    63  H    0.017572
    64  H    0.008683
    65  H    0.023260
    66  H    0.011800
    67  H    0.004934
    68  H    0.004331
    69  H    0.007253
    70  H    0.003366
    71  H    0.031665
    72  H    0.027686
    73  H    0.043640
    74  H    0.012398
    75  H    0.046331
    76  H    0.036010
    77  H    0.043768
    78  H    0.047694
    79  H    0.050554
    80  Mg   0.835542
    81  C   -0.017163
    82  C   -0.082001
    83  C   -0.046714
    84  C   -0.065070
    85  N   -0.254418
    86  C   -0.051332
    87  C   -0.015028
    88  C   -0.090706
    89  C    0.044690
    90  C    0.114399
    91  C    0.061705
    92  C   -0.076821
    93  H    0.031150
    94  N   -0.424219
    95  C    0.162597
    96  C   -0.169966
    97  C   -0.009300
    98  C    0.151733
    99  C    0.098422
   100  C    0.016811
   101  O   -0.258805
   102  C    0.056264
   103  N   -0.350243
   104  C    0.038568
   105  C   -0.019802
   106  C   -0.034297
   107  C    0.088158
   108  C    0.074065
   109  C    0.034957
   110  C   -0.007518
   111  N   -0.323641
   112  C    0.076973
   113  C   -0.164547
   114  C    0.001537
   115  C    0.094895
   116  C    0.131818
   117  C    0.041067
   118  O   -0.190237
   119  C    0.001216
   120  C    0.211248
   121  O   -0.252618
   122  O   -0.305290
   123  C    0.152606
   124  H   -0.018163
   125  H   -0.016795
   126  H   -0.041621
   127  H   -0.001683
   128  H   -0.002830
   129  H    0.021790
   130  H    0.014692
   131  H    0.015994
   132  H    0.016510
   133  H    0.036016
   134  H    0.020587
   135  H    0.019971
   136  H    0.009465
   137  H    0.022435
   138  H    0.061304
   139  H    0.039947
   140  H    0.029183
   141  H    0.048830
   142  H    0.013257
   143  H    0.011574
   144  H    0.023753
   145  H    0.011815
   146  H    0.005341
   147  H    0.004897
   148  H    0.003194
   149  H    0.010238
   150  H    0.018968
   151  H    0.030257
   152  H    0.044473
   153  H    0.007824
   154  H    0.045947
   155  H    0.034438
   156  H    0.043365
   157  H    0.049235
   158  H    0.052061
 Sum of Mulliken charges =  -0.00000

 Dipole moment (field-independent basis, Debye):
    X=              2.6295    Y=              3.1988    Z=              0.9393  Tot=              4.2461
 Quadrupole moment (field-independent basis, Debye-Ang):
   XX=           -534.1518   YY=           -463.5328   ZZ=           -514.8152
   XY=              2.1475   XZ=             42.7088   YZ=             17.3854

 Normal termination of Gaussian 16 at Wed Sep  8 16:36:20 2021.
