 Gaussian 16, Revision A.03,
 Gaussian 16:  ES64L-G16RevA.03 25-Dec-2016

 -----------------------------------
 #p cam-b3lyp/Def2SVP td=(nstates=5)
 -----------------------------------

 --------------------------------
 TDDFT excited states in gaussian
 --------------------------------
 Symbolic Z-matrix:
 Charge =  0 Multiplicity = 1

                         Standard orientation:
 ---------------------------------------------------------------------
 Center     Atomic      Atomic             Coordinates (Angstroms)
 Number     Number       Type             X           Y           Z
 ---------------------------------------------------------------------
      1         12           0        3.232372   -1.950257    0.628197
      2          6           0        4.730350    1.166634   -0.295526
      3          6           0        3.901304   -1.139388    3.874439
      4          6           0        2.331632   -4.882573    1.432441
      5          6           0        3.713347   -2.988165   -2.663773
      6          7           0        4.195857   -0.181293    1.546406
      7          6           0        4.672224    0.971285    1.086177
      8          6           0        5.034508    1.984156    2.213216
      9          6           0        5.268021    0.956539    3.409658
     10          6           0        4.374859   -0.176057    2.934880
     11          6           0        6.702062    0.445267    3.502545
     12          6           0        3.859471    2.970552    2.526331
     13          6           0        4.237250    4.188625    3.374232
     14          1           0        3.582529    5.459837    3.104587
     15          7           0        2.684706   -2.687908    2.377135
     16          6           0        3.037382   -2.221381    3.599125
     17          6           0        2.376344   -3.108405    4.580398
     18          6           0        1.765682   -4.241188    3.830739
     19          6           0        2.265045   -3.993246    2.502379
     20          6           0        2.326793   -2.818388    6.049134
     21          6           0        0.882182   -5.374185    4.247725
     22          8           0        0.655548   -6.375834    3.486207
     23          6           0        0.352949   -5.322907    5.622616
     24          7           0        3.244567   -3.770159   -0.394272
     25          6           0        2.743931   -4.878170    0.163096
     26          6           0        2.600711   -5.979656   -0.844950
     27          6           0        2.882495   -5.314878   -2.269176
     28          6           0        3.238581   -3.884116   -1.795477
     29          6           0        3.528394   -7.187361   -0.652953
     30          6           0        1.787346   -5.482061   -3.352282
     31          6           0        0.548045   -4.713312   -2.951960
     32          7           0        3.904470   -1.033748   -1.220949
     33          6           0        4.048316   -1.658737   -2.468094
     34          6           0        4.634230   -0.663666   -3.384939
     35          6           0        4.807013    0.473357   -2.598066
     36          6           0        4.381895    0.197358   -1.267130
     37          6           0        4.988859   -0.889979   -4.744150
     38          6           0        5.274786    1.849592   -2.566049
     39          8           0        5.658583    2.655004   -3.415463
     40          6           0        5.357359    2.315495   -1.045542
     41          6           0        4.697013    3.663640   -0.946765
     42          8           0        3.470007    3.790383   -1.135870
     43          8           0        5.560230    4.543714   -0.416796
     44          6           0        4.957995    5.895052   -0.263983
     45          1           0        4.269433   -1.100239    4.901517
     46          1           0        1.926213   -5.875215    1.639166
     47          1           0        3.813170   -3.213921   -3.727034
     48          1           0        5.943360    2.558590    2.033112
     49          1           0        4.908116    1.349985    4.360126
     50          1           0        7.297788    0.772865    2.650658
     51          1           0        6.623123   -0.641964    3.516309
     52          1           0        7.152112    0.725101    4.455397
     53          1           0        3.153857    2.486264    3.201339
     54          1           0        3.381977    3.306546    1.605227
     55          1           0        5.318601    4.319089    3.424908
     56          1           0        3.939387    3.993291    4.404437
     57          1           0        3.002199   -2.007943    6.320338
     58          1           0        2.731630   -3.691801    6.559982
     59          1           0        1.310991   -2.627783    6.395758
     60          1           0        1.184233   -5.294376    6.327388
     61          1           0       -0.328970   -6.167583    5.714034
     62          1           0       -0.194065   -4.389105    5.755800
     63          1           0        1.591629   -6.389643   -0.835482
     64          1           0        3.782239   -5.715526   -2.736739
     65          1           0        2.998725   -8.135522   -0.557314
     66          1           0        4.151902   -6.997904    0.220337
     67          1           0        4.279566   -7.315132   -1.431947
     68          1           0        1.500094   -6.529093   -3.442599
     69          1           0        2.100803   -5.137939   -4.337967
     70          1           0        0.035849   -5.406903   -2.286064
     71          1           0       -0.061613   -4.491393   -3.828476
     72          1           0        0.800152   -3.827560   -2.368546
     73          1           0        4.647119   -0.015771   -5.298175
     74          1           0        4.533247   -1.803577   -5.125409
     75          1           0        6.072704   -0.967597   -4.659822
     76          1           0        6.415107    2.357867   -0.787676
     77          1           0        5.603436    6.595868   -0.793602
     78          1           0        4.812246    6.050251    0.805164
     79          1           0        4.009760    6.060961   -0.776491
     80         12           0       -4.145302    0.706466   -0.653682
     81          6           0       -1.415958    3.036013   -0.708388
     82          6           0       -5.053649    2.070188    2.337930
     83          6           0       -6.283635   -1.618661   -0.355840
     84          6           0       -2.398186   -1.182523   -3.004221
     85          7           0       -3.269111    2.338058    0.555636
     86          6           0       -2.268162    3.192248    0.404618
     87          6           0       -2.223081    4.324339    1.465699
     88          6           0       -3.027737    3.583845    2.641733
     89          6           0       -3.865723    2.625046    1.798420
     90          6           0       -2.135379    2.760764    3.555826
     91          6           0       -2.967149    5.620761    0.988535
     92          6           0       -2.700660    6.864946    1.838668
     93          1           0       -2.635429    8.162559    1.172023
     94          7           0       -5.751701    0.579683    0.504752
     95          6           0       -5.964454    1.219493    1.673788
     96          6           0       -7.285932    0.773584    2.141788
     97          6           0       -7.764101   -0.306700    1.236768
     98          6           0       -6.583422   -0.509259    0.421269
     99          6           0       -8.001272    1.417869    3.293570
    100          6           0       -9.064018   -1.045255    1.132021
    101          8           0       -9.178826   -2.109593    0.427149
    102          6           0      -10.173696   -0.538909    1.952815
    103          7           0       -4.225746   -1.237486   -1.386427
    104          6           0       -5.293247   -2.020843   -1.152506
    105          6           0       -5.251511   -3.267965   -2.003009
    106          6           0       -4.052611   -3.042799   -3.037182
    107          6           0       -3.528591   -1.683207   -2.524995
    108          6           0       -5.033749   -4.579978   -1.249616
    109          6           0       -4.389612   -3.183843   -4.546880
    110          6           0       -5.308526   -2.063298   -4.977447
    111          7           0       -2.345470    0.956074   -1.822607
    112          6           0       -1.780630    0.030418   -2.727145
    113          6           0       -0.498829    0.600693   -3.189974
    114          6           0       -0.395009    1.817683   -2.499560
    115          6           0       -1.522069    1.984047   -1.650122
    116          6           0        0.410709   -0.020453   -4.091655
    117          6           0        0.416911    2.994456   -2.288218
    118          8           0        1.441657    3.445848   -2.798009
    119          6           0       -0.146128    3.776547   -1.024203
    120          6           0       -0.255903    5.231594   -1.389309
    121          8           0       -1.058737    5.605303   -2.262471
    122          8           0        0.442687    5.962558   -0.501604
    123          6           0        0.355123    7.413686   -0.815260
    124          1           0       -5.291605    2.270153    3.383044
    125          1           0       -7.045045   -2.401884   -0.373142
    126          1           0       -1.841959   -1.664576   -3.811011
    127          1           0       -1.228964    4.589487    1.805108
    128          1           0       -3.668272    4.277806    3.179780
    129          1           0       -1.119614    2.714358    3.192217
    130          1           0       -2.573464    1.771598    3.581873
    131          1           0       -2.190580    3.141882    4.579572
    132          1           0       -4.043992    5.500575    1.163773
    133          1           0       -2.744758    5.831141   -0.039521
    134          1           0       -1.840221    6.731880    2.505666
    135          1           0       -3.545419    7.009509    2.516549
    136          1           0       -7.333247    2.072945    3.866296
    137          1           0       -8.264011    0.618144    3.994491
    138          1           0       -8.914040    1.933353    2.987292
    139          1           0       -9.882750   -0.551066    3.000510
    140          1           0      -11.041072   -1.140843    1.674927
    141          1           0      -10.354534    0.508984    1.688550
    142          1           0       -6.174642   -3.389817   -2.556269
    143          1           0       -3.241322   -3.769782   -2.885041
    144          1           0       -5.834404   -5.322809   -1.426279
    145          1           0       -4.947644   -4.357391   -0.194353
    146          1           0       -4.089852   -5.080892   -1.457829
    147          1           0       -4.930332   -4.115874   -4.728747
    148          1           0       -3.513221   -3.189923   -5.186343
    149          1           0       -6.297386   -2.428908   -4.684929
    150          1           0       -5.246920   -1.909185   -6.052848
    151          1           0       -5.111595   -1.150319   -4.403564
    152          1           0        0.736886    0.745962   -4.782099
    153          1           0       -0.053796   -0.854797   -4.613079
    154          1           0        1.182798   -0.352099   -3.392258
    155          1           0        0.549932    3.612495   -0.200706
    156          1           0        1.381086    7.782299   -0.911207
    157          1           0       -0.266013    7.855654   -0.013623
    158          1           0       -0.061234    7.694661   -1.775548
 ---------------------------------------------------------------------

 SCF Done:  E(RCAM-B3LYP) =  -4069.80759897     A.U. after   19 cycles

 Excitation energies and oscillator strengths:

 Excited State   1:      Singlet-A      1.6291 eV  761.04 nm  f=0.1215  <S**2>=0.000
     309 -> 315       -0.11441
     310 -> 316       -0.11488
     311 -> 313       -0.47875
     312 -> 314        0.48265
 This state for optimization and/or second-order correction.
 Total Energy, E(TD-HF/TD-DFT) =  -4069.74772894
 Copying the excited state density for this state as the 1-particle RhoCI density.

 Excited State   2:      Singlet-A      1.7186 eV  721.41 nm  f=0.5913  <S**2>=0.000
     309 -> 315        0.13178
     310 -> 316       -0.12923
     311 -> 313        0.48441
     312 -> 314        0.48175

 Excited State   3:      Singlet-A      2.1782 eV  569.21 nm  f=0.0013  <S**2>=0.000
     309 -> 313       -0.42369
     310 -> 314        0.48001
     311 -> 315        0.17380
     312 -> 316        0.20064

 Excited State   4:      Singlet-A      2.1992 eV  563.77 nm  f=0.0130  <S**2>=0.000
     309 -> 313        0.18942
     312 -> 313        0.66371

 Excited State   5:      Singlet-A      2.2024 eV  562.96 nm  f=0.1470  <S**2>=0.000
     309 -> 313        0.43987
     310 -> 314        0.41453
     311 -> 315       -0.19898
     312 -> 313       -0.21029
     312 -> 316        0.18681

 The electronic state is 1-A.
 Alpha  occ. eigenvalues --  -46.87738 -46.87202 -19.25818 -19.25732 -19.18758
 Alpha  occ. eigenvalues --  -19.18537 -19.18290 -19.18244 -19.17778 -19.16845
 Alpha  occ. eigenvalues --  -14.42406 -14.42083 -14.41404 -14.40894 -14.39337
 Alpha  occ. eigenvalues --  -14.38879 -14.38538 -14.38088 -10.38449 -10.38341
 Alpha  occ. eigenvalues --  -10.35395 -10.34979 -10.34008 -10.32964 -10.31486
 Alpha  occ. eigenvalues --  -10.31327 -10.31297 -10.30836 -10.30817 -10.30602
 Alpha  occ. eigenvalues --  -10.30482 -10.30431 -10.30206 -10.29874 -10.29866
 Alpha  occ. eigenvalues --  -10.29808 -10.29775 -10.29551 -10.29391 -10.29231
 Alpha  occ. eigenvalues --  -10.29032 -10.28867 -10.28716 -10.28593 -10.28465
 Alpha  occ. eigenvalues --  -10.28395 -10.28251 -10.28083 -10.27866 -10.27834
 Alpha  occ. eigenvalues --  -10.27682 -10.27666 -10.27566 -10.27509 -10.27477
 Alpha  occ. eigenvalues --  -10.27463 -10.27421 -10.27295 -10.27246 -10.27172
 Alpha  occ. eigenvalues --  -10.27099 -10.26988 -10.26976 -10.26954 -10.26800
 Alpha  occ. eigenvalues --  -10.26761 -10.26407 -10.26377 -10.26361 -10.26193
 Alpha  occ. eigenvalues --  -10.26113 -10.26085 -10.26008 -10.25880 -10.25841
 Alpha  occ. eigenvalues --  -10.25681 -10.25512 -10.25447 -10.25230 -10.25010
 Alpha  occ. eigenvalues --  -10.24996 -10.24724 -10.24675 -10.24465 -10.24277
 Alpha  occ. eigenvalues --  -10.24197  -3.16482  -3.15954  -1.91363  -1.90950
 Alpha  occ. eigenvalues --   -1.90837  -1.90792  -1.90426  -1.90260  -1.16070
 Alpha  occ. eigenvalues --   -1.16050  -1.08188  -1.07430  -1.07161  -1.06552
 Alpha  occ. eigenvalues --   -1.06289  -1.05893  -1.04519  -1.04049  -1.03712
 Alpha  occ. eigenvalues --   -1.03196  -1.03168  -1.02559  -1.02349  -1.01620
 Alpha  occ. eigenvalues --   -0.91803  -0.91372  -0.89528  -0.89155  -0.89054
 Alpha  occ. eigenvalues --   -0.88823  -0.88290  -0.87807  -0.87748  -0.87635
 Alpha  occ. eigenvalues --   -0.87276  -0.87217  -0.87209  -0.86677  -0.84944
 Alpha  occ. eigenvalues --   -0.84629  -0.83962  -0.83474  -0.82936  -0.82572
 Alpha  occ. eigenvalues --   -0.82538  -0.82258  -0.81359  -0.81102  -0.80454
 Alpha  occ. eigenvalues --   -0.79981  -0.78721  -0.78152  -0.77196  -0.76864
 Alpha  occ. eigenvalues --   -0.76764  -0.76500  -0.75783  -0.75396  -0.74855
 Alpha  occ. eigenvalues --   -0.74369  -0.72704  -0.72214  -0.71594  -0.71134
 Alpha  occ. eigenvalues --   -0.69995  -0.69410  -0.68819  -0.68435  -0.67534
 Alpha  occ. eigenvalues --   -0.67199  -0.67084  -0.66829  -0.65225  -0.64860
 Alpha  occ. eigenvalues --   -0.64769  -0.64507  -0.64324  -0.64245  -0.64215
 Alpha  occ. eigenvalues --   -0.63771  -0.62004  -0.61775  -0.60394  -0.59886
 Alpha  occ. eigenvalues --   -0.59747  -0.59404  -0.58898  -0.58503  -0.58379
 Alpha  occ. eigenvalues --   -0.57896  -0.57366  -0.57081  -0.56857  -0.56706
 Alpha  occ. eigenvalues --   -0.56210  -0.55730  -0.55693  -0.55441  -0.55420
 Alpha  occ. eigenvalues --   -0.55248  -0.55020  -0.54811  -0.54317  -0.54017
 Alpha  occ. eigenvalues --   -0.53843  -0.53559  -0.53230  -0.53146  -0.52833
 Alpha  occ. eigenvalues --   -0.52781  -0.52721  -0.52704  -0.52459  -0.52396
 Alpha  occ. eigenvalues --   -0.52299  -0.52019  -0.51807  -0.51561  -0.51296
 Alpha  occ. eigenvalues --   -0.51229  -0.51045  -0.50609  -0.50552  -0.50104
 Alpha  occ. eigenvalues --   -0.50074  -0.49868  -0.49618  -0.49478  -0.49447
 Alpha  occ. eigenvalues --   -0.49127  -0.49086  -0.49010  -0.48768  -0.48610
 Alpha  occ. eigenvalues --   -0.48479  -0.48346  -0.48265  -0.48084  -0.47944
 Alpha  occ. eigenvalues --   -0.47641  -0.47547  -0.47208  -0.47090  -0.46757
 Alpha  occ. eigenvalues --   -0.46697  -0.46492  -0.46303  -0.46290  -0.46206
 Alpha  occ. eigenvalues --   -0.45959  -0.45824  -0.45609  -0.45590  -0.45265
 Alpha  occ. eigenvalues --   -0.45176  -0.44771  -0.44503  -0.44373  -0.44167
 Alpha  occ. eigenvalues --   -0.44119  -0.44042  -0.43920  -0.43793  -0.43680
 Alpha  occ. eigenvalues --   -0.43636  -0.43368  -0.43354  -0.43226  -0.43099
 Alpha  occ. eigenvalues --   -0.42917  -0.42915  -0.42743  -0.42441  -0.42324
 Alpha  occ. eigenvalues --   -0.42174  -0.42115  -0.41976  -0.41578  -0.41550
 Alpha  occ. eigenvalues --   -0.41468  -0.41095  -0.41054  -0.40915  -0.40817
 Alpha  occ. eigenvalues --   -0.40779  -0.40541  -0.40488  -0.40355  -0.40338
 Alpha  occ. eigenvalues --   -0.40251  -0.40033  -0.39917  -0.39570  -0.39078
 Alpha  occ. eigenvalues --   -0.38491  -0.37980  -0.37734  -0.37336  -0.37314
 Alpha  occ. eigenvalues --   -0.37206  -0.36855  -0.36773  -0.36450  -0.36257
 Alpha  occ. eigenvalues --   -0.35778  -0.35696  -0.34211  -0.33771  -0.33286
 Alpha  occ. eigenvalues --   -0.33254  -0.32901  -0.32634  -0.31286  -0.30930
 Alpha  occ. eigenvalues --   -0.30854  -0.30495  -0.29646  -0.29366  -0.29187
 Alpha  occ. eigenvalues --   -0.28845  -0.28646  -0.28516  -0.24005  -0.23555
 Alpha  occ. eigenvalues --   -0.21076  -0.20639
 Alpha virt. eigenvalues --   -0.08689  -0.08262  -0.01704  -0.01256   0.00035
 Alpha virt. eigenvalues --    0.00460   0.02385   0.02556   0.03157   0.03767
 Alpha virt. eigenvalues --    0.04729   0.05063   0.05545   0.05863   0.06141

 Mulliken charges:
               1
     1  Mg   0.836657
     2  C   -0.004351
     3  C   -0.094667
     4  C   -0.045955
     5  C   -0.067693
     6  N   -0.256061
     7  C   -0.055084
     8  C   -0.012083
     9  C   -0.086633
    10  C    0.045223
    11  C    0.104895
    12  C    0.049176
    13  C   -0.070896
    14  H    0.035355
    15  N   -0.433241
    16  C    0.167872
    17  C   -0.177675
    18  C   -0.004283
    19  C    0.149048
    20  C    0.110334
    21  C    0.012386
    22  O   -0.250001
    23  C    0.062550
    24  N   -0.341197
    25  C    0.041220
    26  C   -0.028384
    27  C   -0.023693
    28  C    0.076343
    29  C    0.076169
    30  C    0.036963
    31  C   -0.010693
    32  N   -0.311811
    33  C    0.075982
    34  C   -0.172528
    35  C    0.013934
    36  C    0.085120
    37  C    0.126751
    38  C    0.058701
    39  O   -0.183510
    40  C   -0.009235
    41  C    0.210303
    42  O   -0.231023
    43  O   -0.308067
    44  C    0.157064
    45  H   -0.018084
    46  H   -0.017365
    47  H   -0.042066
    48  H    0.001852
    49  H   -0.005094
    50  H    0.025908
    51  H    0.016467
    52  H    0.016195
    53  H    0.008498
    54  H    0.048884
    55  H    0.018848
    56  H    0.016375
    57  H    0.005212
    58  H    0.026651
    59  H    0.038454
    60  H    0.037072
    61  H    0.035650
    62  H    0.031089
    63  H    0.015790
    64  H    0.009959
    65  H    0.023031
    66  H    0.012992
    67  H    0.004695
    68  H    0.006404
    69  H    0.004220
    70  H    0.009978
    71  H    0.016180
    72  H    0.031044
    73  H    0.050792
    74  H    0.007287
    75  H    0.045829
    76  H    0.033447
    77  H    0.040559
    78  H    0.042736
    79  H    0.055709
    80  Mg   0.834459
    81  C   -0.017271
    82  C   -0.088249
    83  C   -0.046326
    84  C   -0.067642
    85  N   -0.253524
    86  C   -0.051092
    87  C   -0.013638
    88  C   -0.090343
    89  C    0.044168
    90  C    0.114450
    91  C    0.062910
    92  C   -0.076716
    93  H    0.033748
    94  N   -0.423123
    95  C    0.161321
    96  C   -0.176161
    97  C   -0.009008
    98  C    0.151164
    99  C    0.099991
   100  C    0.014609
   101  O   -0.254606
   102  C    0.061615
   103  N   -0.350581
   104  C    0.037427
   105  C   -0.020069
   106  C   -0.035337
   107  C    0.090228
   108  C    0.073704
   109  C    0.034746
   110  C   -0.007265
   111  N   -0.324374
   112  C    0.077363
   113  C   -0.169289
   114  C    0.009229
   115  C    0.092029
   116  C    0.131232
   117  C    0.043945
   118  O   -0.158267
   119  C    0.002857
   120  C    0.213777
   121  O   -0.253410
   122  O   -0.303437
   123  C    0.153622
   124  H   -0.022078
   125  H   -0.016797
   126  H   -0.042101
   127  H   -0.001883
   128  H   -0.005707
   129  H    0.021396
   130  H    0.013782
   131  H    0.013249
   132  H    0.013754
   133  H    0.038321
   134  H    0.018769
   135  H    0.018797
   136  H    0.007113
   137  H    0.024248
   138  H    0.038309
   139  H    0.037403
   140  H    0.035106
   141  H    0.033281
   142  H    0.013328
   143  H    0.013659
   144  H    0.023877
   145  H    0.012521
   146  H    0.005453
   147  H    0.005234
   148  H    0.001556
   149  H    0.010820
   150  H    0.016876
   151  H    0.031030
   152  H    0.045357
   153  H    0.002569
   154  H    0.056952
   155  H    0.041546
   156  H    0.035803
   157  H    0.047367
   158  H    0.053741
 Sum of Mulliken charges =  -0.00000

 Dipole moment (field-independent basis, Debye):
    X=              1.0272    Y=              0.0619    Z=              7.6073  Tot=              7.6766
 Quadrupole moment (field-independent basis, Debye-Ang):
   XX=           -519.4576   YY=           -504.7845   ZZ=           -479.0002
   XY=            -24.8530   XZ=              9.5399   YZ=             54.5228

 Normal termination of Gaussian 16 at Thu Sep  9 05:07:22 2021.
