 Gaussian 16, Revision A.03,
 Gaussian 16:  ES64L-G16RevA.03 25-Dec-2016

 -----------------------------------
 #p cam-b3lyp/Def2SVP td=(nstates=5)
 -----------------------------------

 --------------------------------
 TDDFT excited states in gaussian
 --------------------------------
 Symbolic Z-matrix:
 Charge =  0 Multiplicity = 1

                         Standard orientation:
 ---------------------------------------------------------------------
 Center     Atomic      Atomic             Coordinates (Angstroms)
 Number     Number       Type             X           Y           Z
 ---------------------------------------------------------------------
      1         12           0       15.990822   -0.649002    0.513155
      2          6           0       16.262275    2.206634   -1.627842
      3          6           0       16.782490    1.412124    3.114710
      4          6           0       16.203303   -3.226419    2.348473
      5          6           0       16.343947   -2.631068   -2.331555
      6          7           0       16.441133    1.516494    0.605322
      7          6           0       16.453215    2.509902   -0.277948
      8          6           0       16.612875    3.915380    0.375133
      9          6           0       17.322334    3.481712    1.735500
     10          6           0       16.790103    2.063790    1.845731
     11          6           0       18.843686    3.429217    1.639416
     12          6           0       15.233683    4.606503    0.643294
     13          6           0       15.304571    6.100365    0.972996
     14          1           0       14.243712    6.974113    0.494987
     15          7           0       15.947306   -0.828335    2.480081
     16          6           0       16.287538    0.118460    3.387333
     17          6           0       16.085058   -0.498610    4.715831
     18          6           0       15.781310   -1.941432    4.505842
     19          6           0       15.993707   -2.063708    3.086224
     20          6           0       16.138202    0.273386    5.998386
     21          6           0       15.375779   -3.038611    5.438513
     22          8           0       15.387729   -4.268157    5.088302
     23          6           0       15.044559   -2.639061    6.818257
     24          7           0       16.457302   -2.643687    0.111578
     25          6           0       16.420843   -3.568724    1.076958
     26          6           0       16.510803   -4.954210    0.509266
     27          6           0       16.371649   -4.793394   -1.073304
     28          6           0       16.303972   -3.248063   -1.148429
     29          6           0       17.796560   -5.727737    0.832526
     30          6           0       15.257155   -5.615142   -1.768324
     31          6           0       13.899789   -5.104821   -1.339105
     32          7           0       16.079738   -0.312661   -1.629277
     33          6           0       16.252690   -1.281459   -2.628372
     34          6           0       16.358268   -0.563983   -3.912175
     35          6           0       16.255338    0.782055   -3.566585
     36          6           0       16.121925    0.899391   -2.153530
     37          6           0       16.584710   -1.160360   -5.183981
     38          6           0       16.251755    2.149722   -4.059871
     39          8           0       16.238341    2.668585   -5.177053
     40          6           0       16.378495    3.132358   -2.813200
     41          6           0       15.335986    4.205279   -2.972339
     42          8           0       14.120525    3.932298   -2.898153
     43          8           0       15.929276    5.408602   -2.948670
     44          6           0       14.947292    6.518805   -3.072401
     45          1           0       17.250019    1.909919    3.966507
     46          1           0       16.172445   -4.148469    2.932690
     47          1           0       16.370506   -3.187483   -3.270251
     48          1           0       17.254393    4.602714   -0.176637
     49          1           0       16.982919    4.080620    2.580384
     50          1           0       19.183332    3.573684    0.613896
     51          1           0       19.123902    2.438287    1.997228
     52          1           0       19.300174    4.137709    2.331105
     53          1           0       14.818564    4.229702    1.578045
     54          1           0       14.556089    4.454652   -0.197618
     55          1           0       16.281983    6.516741    0.727627
     56          1           0       15.224598    6.215720    2.053967
     57          1           0       16.544014    1.272956    5.847650
     58          1           0       16.867833   -0.222328    6.638398
     59          1           0       15.170500    0.304017    6.499334
     60          1           0       15.906939   -2.145482    7.266843
     61          1           0       14.691525   -3.541483    7.316104
     62          1           0       14.247035   -1.896066    6.788885
     63          1           0       15.699607   -5.581053    0.877308
     64          1           0       17.282760   -5.085838   -1.595823
     65          1           0       17.620249   -6.681886    1.329737
     66          1           0       18.434350   -5.083630    1.437209
     67          1           0       18.439013   -5.925295   -0.025170
     68          1           0       15.315478   -6.661371   -1.470082
     69          1           0       15.309384   -5.577064   -2.856475
     70          1           0       13.732495   -5.622331   -0.395163
     71          1           0       13.141228   -5.377448   -2.073592
     72          1           0       13.925790   -4.036247   -1.124724
     73          1           0       15.908240   -0.662949   -5.878920
     74          1           0       16.403729   -2.234620   -5.155452
     75          1           0       17.636329   -0.917977   -5.336307
     76          1           0       17.389649    3.537591   -2.835002
     77          1           0       15.255027    7.126138   -3.923682
     78          1           0       14.901351    7.002086   -2.096319
     79          1           0       13.937673    6.237923   -3.374252
     80         12           0      -15.735399   -0.644349   -0.507107
     81          6           0      -17.495014    1.713065    1.548470
     82          6           0      -14.928565    1.965504   -2.549721
     83          6           0      -14.563470   -2.750770   -2.570357
     84          6           0      -17.600028   -3.159777    1.023083
     85          7           0      -16.208630    1.513961   -0.407191
     86          6           0      -16.832633    2.304798    0.452784
     87          6           0      -16.673853    3.821634    0.163737
     88          6           0      -16.361987    3.735329   -1.409210
     89          6           0      -15.761868    2.331882   -1.462765
     90          6           0      -17.612449    3.753363   -2.272553
     91          6           0      -15.476259    4.458301    0.952682
     92          6           0      -15.451933    5.988367    0.959996
     93          1           0      -14.975476    6.671181    2.159673
     94          7           0      -14.472649   -0.396439   -2.017926
     95          6           0      -14.254280    0.736200   -2.718447
     96          6           0      -13.249186    0.392345   -3.736155
     97          6           0      -13.013632   -1.076210   -3.685406
     98          6           0      -14.045241   -1.476461   -2.749622
     99          6           0      -12.559246    1.424673   -4.579778
    100          6           0      -12.031799   -1.973689   -4.375846
    101          8           0      -12.161455   -3.248792   -4.364389
    102          6           0      -10.966776   -1.312433   -5.143946
    103          7           0      -16.182867   -2.637266   -0.894955
    104          6           0      -15.487124   -3.336907   -1.808388
    105          6           0      -15.798928   -4.811771   -1.719161
    106          6           0      -16.670601   -4.986954   -0.389845
    107          6           0      -16.792491   -3.505621    0.029887
    108          6           0      -16.557393   -5.404386   -2.906565
    109          6           0      -16.157629   -6.012328    0.658079
    110          6           0      -14.863128   -5.523923    1.267288
    111          7           0      -17.135730   -0.762958    1.133941
    112          6           0      -17.818965   -1.911181    1.590960
    113          6           0      -18.746959   -1.471690    2.653072
    114          6           0      -18.554313   -0.083806    2.724954
    115          6           0      -17.590061    0.316419    1.760843
    116          6           0      -19.650596   -2.308402    3.366838
    117          6           0      -18.955178    1.135139    3.389931
    118          8           0      -19.675766    1.404282    4.350163
    119          6           0      -18.379648    2.370110    2.571378
    120          6           0      -17.737688    3.316438    3.548547
    121          8           0      -16.725495    2.976209    4.185970
    122          8           0      -18.290660    4.535185    3.409817
    123          6           0      -17.679034    5.511435    4.350386
    124          1           0      -14.811768    2.669434   -3.374174
    125          1           0      -14.111293   -3.534136   -3.183016
    126          1           0      -18.144742   -3.897325    1.616375
    127          1           0      -17.565948    4.412342    0.334054
    128          1           0      -15.625115    4.476729   -1.707051
    129          1           0      -18.512865    3.701989   -1.678619
    130          1           0      -17.535942    2.889060   -2.919215
    131          1           0      -17.602266    4.625451   -2.932616
    132          1           0      -14.543330    4.258145    0.410172
    133          1           0      -15.445908    4.091604    1.960271
    134          1           0      -16.404619    6.417367    0.626403
    135          1           0      -14.729358    6.327509    0.213746
    136          1           0      -13.057477    2.399515   -4.510117
    137          1           0      -12.693296    1.125184   -5.624859
    138          1           0      -11.490485    1.496693   -4.367080
    139          1           0      -11.412165   -0.678797   -5.907232
    140          1           0      -10.313735   -2.116096   -5.489694
    141          1           0      -10.409615   -0.650737   -4.471385
    142          1           0      -14.890652   -5.393938   -1.623071
    143          1           0      -17.689695   -5.335005   -0.613773
    144          1           0      -16.029401   -6.252148   -3.382575
    145          1           0      -16.736057   -4.615781   -3.625405
    146          1           0      -17.566370   -5.748018   -2.685043
    147          1           0      -15.932929   -6.966716    0.175582
    148          1           0      -16.870156   -6.212386    1.451338
    149          1           0      -14.112144   -5.839369    0.536811
    150          1           0      -14.694147   -5.992696    2.234628
    151          1           0      -14.838419   -4.428981    1.313598
    152          1           0      -19.588242   -2.017957    4.407154
    153          1           0      -19.409131   -3.360669    3.231889
    154          1           0      -20.591990   -2.037728    2.881270
    155          1           0      -19.215274    2.831304    2.043540
    156          1           0      -18.495582    5.946744    4.934720
    157          1           0      -17.086377    6.201625    3.720990
    158          1           0      -17.042567    5.119965    5.135322
 ---------------------------------------------------------------------

 SCF Done:  E(RCAM-B3LYP) =  -4069.81179513     A.U. after   19 cycles

 Excitation energies and oscillator strengths:

 Excited State   1:      Singlet-A      1.6754 eV  740.02 nm  f=0.2660  <S**2>=0.000
     310 -> 316       -0.16961
     311 -> 313        0.67026
     312 -> 314        0.14633
     310 <- 316       -0.10225
 This state for optimization and/or second-order correction.
 Total Energy, E(TD-HF/TD-DFT) =  -4069.75022460
 Copying the excited state density for this state as the 1-particle RhoCI density.

 Excited State   2:      Singlet-A      1.6801 eV  737.96 nm  f=0.5130  <S**2>=0.000
     309 -> 315        0.17158
     311 -> 313       -0.14630
     312 -> 314        0.66990
     309 <- 315        0.10274

 Excited State   3:      Singlet-A      2.1862 eV  567.12 nm  f=0.0956  <S**2>=0.000
     310 -> 313        0.64212
     311 -> 316        0.27304

 Excited State   4:      Singlet-A      2.1926 eV  565.47 nm  f=0.1046  <S**2>=0.000
     309 -> 314        0.64036
     312 -> 315       -0.27819

 Excited State   5:      Singlet-A      3.0653 eV  404.47 nm  f=0.0000  <S**2>=0.000
     312 -> 313        0.70710

 The electronic state is 1-A.
 Alpha  occ. eigenvalues --  -46.87783 -46.87660 -19.26353 -19.26278 -19.19164
 Alpha  occ. eigenvalues --  -19.19013 -19.18798 -19.18707 -19.18159 -19.18053
 Alpha  occ. eigenvalues --  -14.42497 -14.42437 -14.41436 -14.41359 -14.39389
 Alpha  occ. eigenvalues --  -14.39351 -14.38600 -14.38574 -10.39094 -10.39072
 Alpha  occ. eigenvalues --  -10.35431 -10.35384 -10.34379 -10.34231 -10.31761
 Alpha  occ. eigenvalues --  -10.31675 -10.31393 -10.31310 -10.31022 -10.30896
 Alpha  occ. eigenvalues --  -10.30557 -10.30494 -10.30398 -10.30361 -10.30193
 Alpha  occ. eigenvalues --  -10.30140 -10.29908 -10.29895 -10.29617 -10.29435
 Alpha  occ. eigenvalues --  -10.29400 -10.29240 -10.28737 -10.28719 -10.28654
 Alpha  occ. eigenvalues --  -10.28529 -10.28404 -10.28352 -10.28140 -10.28105
 Alpha  occ. eigenvalues --  -10.28000 -10.27780 -10.27714 -10.27668 -10.27570
 Alpha  occ. eigenvalues --  -10.27518 -10.27486 -10.27484 -10.27465 -10.27464
 Alpha  occ. eigenvalues --  -10.27458 -10.27435 -10.27391 -10.27376 -10.27148
 Alpha  occ. eigenvalues --  -10.27053 -10.26694 -10.26692 -10.26401 -10.26390
 Alpha  occ. eigenvalues --  -10.26223 -10.26168 -10.26138 -10.26026 -10.26006
 Alpha  occ. eigenvalues --  -10.25934 -10.25855 -10.25833 -10.25421 -10.25398
 Alpha  occ. eigenvalues --  -10.24873 -10.24820 -10.24774 -10.24730 -10.24689
 Alpha  occ. eigenvalues --  -10.24671  -3.16526  -3.16410  -1.91408  -1.91292
 Alpha  occ. eigenvalues --   -1.90994  -1.90881  -1.90836  -1.90718  -1.16647
 Alpha  occ. eigenvalues --   -1.16626  -1.08661  -1.08617  -1.07199  -1.06959
 Alpha  occ. eigenvalues --   -1.06949  -1.06635  -1.04568  -1.04495  -1.03747
 Alpha  occ. eigenvalues --   -1.03663  -1.03220  -1.03038  -1.02398  -1.02111
 Alpha  occ. eigenvalues --   -0.91988  -0.91960  -0.89506  -0.89495  -0.89176
 Alpha  occ. eigenvalues --   -0.89151  -0.88273  -0.88220  -0.87858  -0.87795
 Alpha  occ. eigenvalues --   -0.87684  -0.87660  -0.87259  -0.87115  -0.84999
 Alpha  occ. eigenvalues --   -0.84970  -0.83923  -0.83876  -0.82951  -0.82925
 Alpha  occ. eigenvalues --   -0.82651  -0.82636  -0.81598  -0.81576  -0.80584
 Alpha  occ. eigenvalues --   -0.80443  -0.78783  -0.78633  -0.77205  -0.77144
 Alpha  occ. eigenvalues --   -0.76923  -0.76899  -0.75912  -0.75839  -0.74885
 Alpha  occ. eigenvalues --   -0.74803  -0.72761  -0.72699  -0.71659  -0.71581
 Alpha  occ. eigenvalues --   -0.69892  -0.69758  -0.68860  -0.68826  -0.67628
 Alpha  occ. eigenvalues --   -0.67601  -0.67207  -0.67198  -0.65275  -0.65272
 Alpha  occ. eigenvalues --   -0.64842  -0.64771  -0.64654  -0.64609  -0.64256
 Alpha  occ. eigenvalues --   -0.64204  -0.62288  -0.62280  -0.60427  -0.60336
 Alpha  occ. eigenvalues --   -0.59796  -0.59792  -0.58993  -0.58975  -0.58491
 Alpha  occ. eigenvalues --   -0.58426  -0.57574  -0.57556  -0.57296  -0.57236
 Alpha  occ. eigenvalues --   -0.56297  -0.56204  -0.55969  -0.55888  -0.55506
 Alpha  occ. eigenvalues --   -0.55450  -0.55327  -0.55249  -0.54512  -0.54489
 Alpha  occ. eigenvalues --   -0.53912  -0.53883  -0.53285  -0.53226  -0.53209
 Alpha  occ. eigenvalues --   -0.53140  -0.52903  -0.52902  -0.52741  -0.52662
 Alpha  occ. eigenvalues --   -0.52424  -0.52401  -0.51904  -0.51887  -0.51657
 Alpha  occ. eigenvalues --   -0.51604  -0.51202  -0.51184  -0.50555  -0.50468
 Alpha  occ. eigenvalues --   -0.50017  -0.49978  -0.49904  -0.49866  -0.49501
 Alpha  occ. eigenvalues --   -0.49484  -0.49202  -0.49201  -0.49105  -0.49084
 Alpha  occ. eigenvalues --   -0.48582  -0.48559  -0.48447  -0.48432  -0.48377
 Alpha  occ. eigenvalues --   -0.48334  -0.47682  -0.47593  -0.47283  -0.47116
 Alpha  occ. eigenvalues --   -0.46784  -0.46709  -0.46553  -0.46543  -0.46346
 Alpha  occ. eigenvalues --   -0.46270  -0.46150  -0.46087  -0.45824  -0.45812
 Alpha  occ. eigenvalues --   -0.45209  -0.45187  -0.44566  -0.44515  -0.44492
 Alpha  occ. eigenvalues --   -0.44475  -0.44131  -0.44127  -0.44077  -0.44076
 Alpha  occ. eigenvalues --   -0.44007  -0.43936  -0.43555  -0.43484  -0.43386
 Alpha  occ. eigenvalues --   -0.43373  -0.43015  -0.42932  -0.42903  -0.42689
 Alpha  occ. eigenvalues --   -0.42642  -0.42553  -0.41996  -0.41964  -0.41692
 Alpha  occ. eigenvalues --   -0.41670  -0.41521  -0.41458  -0.41128  -0.40990
 Alpha  occ. eigenvalues --   -0.40856  -0.40807  -0.40719  -0.40696  -0.40558
 Alpha  occ. eigenvalues --   -0.40494  -0.40225  -0.40222  -0.39426  -0.39426
 Alpha  occ. eigenvalues --   -0.38455  -0.38351  -0.37737  -0.37654  -0.37307
 Alpha  occ. eigenvalues --   -0.37266  -0.37251  -0.37199  -0.36774  -0.36704
 Alpha  occ. eigenvalues --   -0.36218  -0.36181  -0.34273  -0.34254  -0.33865
 Alpha  occ. eigenvalues --   -0.33762  -0.33175  -0.33173  -0.31328  -0.31266
 Alpha  occ. eigenvalues --   -0.31022  -0.30972  -0.30019  -0.29958  -0.29435
 Alpha  occ. eigenvalues --   -0.29325  -0.29309  -0.29212  -0.24067  -0.24036
 Alpha  occ. eigenvalues --   -0.21117  -0.21114
 Alpha virt. eigenvalues --   -0.08791  -0.08761  -0.01736  -0.01683  -0.00044
 Alpha virt. eigenvalues --   -0.00026   0.02206   0.02212   0.03135   0.03228
 Alpha virt. eigenvalues --    0.04729   0.04730   0.05106   0.05162   0.06181

 Mulliken charges:
               1
     1  Mg   0.838683
     2  C   -0.002987
     3  C   -0.094124
     4  C   -0.045841
     5  C   -0.063933
     6  N   -0.256791
     7  C   -0.052447
     8  C   -0.014048
     9  C   -0.086986
    10  C    0.046332
    11  C    0.104813
    12  C    0.053466
    13  C   -0.071796
    14  H    0.036080
    15  N   -0.433128
    16  C    0.168442
    17  C   -0.177140
    18  C   -0.003962
    19  C    0.148717
    20  C    0.110180
    21  C    0.012317
    22  O   -0.249585
    23  C    0.062457
    24  N   -0.341122
    25  C    0.041250
    26  C   -0.028195
    27  C   -0.023969
    28  C    0.074826
    29  C    0.076180
    30  C    0.035126
    31  C   -0.004511
    32  N   -0.310442
    33  C    0.080371
    34  C   -0.169736
    35  C    0.008338
    36  C    0.082982
    37  C    0.127318
    38  C    0.046088
    39  O   -0.188529
    40  C   -0.005312
    41  C    0.212867
    42  O   -0.257118
    43  O   -0.304796
    44  C    0.157717
    45  H   -0.017591
    46  H   -0.016806
    47  H   -0.041512
    48  H    0.000907
    49  H   -0.004019
    50  H    0.025455
    51  H    0.016456
    52  H    0.016659
    53  H    0.011240
    54  H    0.044103
    55  H    0.017854
    56  H    0.017982
    57  H    0.005875
    58  H    0.026845
    59  H    0.039618
    60  H    0.037344
    61  H    0.035716
    62  H    0.031548
    63  H    0.016593
    64  H    0.009442
    65  H    0.023238
    66  H    0.012539
    67  H    0.004738
    68  H    0.006383
    69  H    0.004704
    70  H    0.008822
    71  H    0.018151
    72  H    0.028978
    73  H    0.047518
    74  H    0.009109
    75  H    0.045979
    76  H    0.035127
    77  H    0.042892
    78  H    0.046413
    79  H    0.053646
    80  Mg   0.837837
    81  C   -0.016833
    82  C   -0.087764
    83  C   -0.045506
    84  C   -0.064893
    85  N   -0.254576
    86  C   -0.049864
    87  C   -0.015091
    88  C   -0.090515
    89  C    0.045767
    90  C    0.114373
    91  C    0.062528
    92  C   -0.077905
    93  H    0.034880
    94  N   -0.423514
    95  C    0.162946
    96  C   -0.174573
    97  C   -0.007753
    98  C    0.152139
    99  C    0.099348
   100  C    0.015604
   101  O   -0.253134
   102  C    0.061171
   103  N   -0.350044
   104  C    0.037533
   105  C   -0.019859
   106  C   -0.034784
   107  C    0.088888
   108  C    0.073657
   109  C    0.034741
   110  C   -0.007693
   111  N   -0.324097
   112  C    0.078419
   113  C   -0.163166
   114  C    0.002214
   115  C    0.096177
   116  C    0.131491
   117  C    0.042354
   118  O   -0.187942
   119  C    0.000935
   120  C    0.211240
   121  O   -0.251010
   122  O   -0.305638
   123  C    0.152033
   124  H   -0.019612
   125  H   -0.015524
   126  H   -0.040488
   127  H   -0.000673
   128  H   -0.004281
   129  H    0.022433
   130  H    0.014429
   131  H    0.016307
   132  H    0.013960
   133  H    0.037664
   134  H    0.020768
   135  H    0.019640
   136  H    0.008782
   137  H    0.026214
   138  H    0.039935
   139  H    0.038283
   140  H    0.036530
   141  H    0.033973
   142  H    0.014452
   143  H    0.012386
   144  H    0.025182
   145  H    0.011643
   146  H    0.005647
   147  H    0.006272
   148  H    0.003616
   149  H    0.010980
   150  H    0.017927
   151  H    0.030108
   152  H    0.045973
   153  H    0.008500
   154  H    0.046896
   155  H    0.034997
   156  H    0.043879
   157  H    0.049508
   158  H    0.053571
 Sum of Mulliken charges =  -0.00000

 Dipole moment (field-independent basis, Debye):
    X=              2.7683    Y=              3.1521    Z=              0.2058  Tot=              4.2002
 Quadrupole moment (field-independent basis, Debye-Ang):
   XX=           -487.3586   YY=           -462.3804   ZZ=           -531.9116
   XY=              2.2697   XZ=            133.4495   YZ=             14.5390

 Normal termination of Gaussian 16 at Sun Sep 12 11:04:58 2021.
