 Gaussian 16, Revision A.03,
 Gaussian 16:  ES64L-G16RevA.03 25-Dec-2016

 -----------------------------------
 #p cam-b3lyp/Def2SVP td=(nstates=5)
 -----------------------------------

 --------------------------------
 TDDFT excited states in gaussian
 --------------------------------
 Symbolic Z-matrix:
 Charge =  0 Multiplicity = 1

                         Standard orientation:
 ---------------------------------------------------------------------
 Center     Atomic      Atomic             Coordinates (Angstroms)
 Number     Number       Type             X           Y           Z
 ---------------------------------------------------------------------
      1         12           0       -4.552485   -0.019257    0.383827
      2          6           0       -4.113119    3.487984    0.948126
      3          6           0       -5.579268    0.768696   -2.773373
      4          6           0       -5.378133   -3.058312    0.010908
      5          6           0       -4.590780   -0.421346    3.845405
      6          7           0       -4.773360    1.918646   -0.663261
      7          6           0       -4.514625    3.185599   -0.354948
      8          6           0       -4.637435    4.154352   -1.568954
      9          6           0       -5.627719    3.295867   -2.476885
     10          6           0       -5.282538    1.907664   -1.967310
     11          6           0       -7.102021    3.569224   -2.197225
     12          6           0       -3.264036    4.389502   -2.283245
     13          6           0       -3.231077    5.563960   -3.265546
     14          1           0       -2.011667    6.350149   -3.376428
     15          7           0       -4.890904   -1.062589   -1.259274
     16          6           0       -5.286802   -0.576383   -2.460171
     17          6           0       -5.400327   -1.747028   -3.356488
     18          6           0       -5.222234   -2.972538   -2.529141
     19          6           0       -5.182223   -2.407157   -1.204709
     20          6           0       -5.603766   -1.633720   -4.836192
     21          6           0       -5.116986   -4.423959   -2.876171
     22          8           0       -5.198300   -5.342634   -1.990734
     23          6           0       -5.003377   -4.750201   -4.309245
     24          7           0       -5.151777   -1.502755    1.724617
     25          6           0       -5.394333   -2.750903    1.309554
     26          6           0       -5.528891   -3.694911    2.467432
     27          6           0       -5.084655   -2.872624    3.762134
     28          6           0       -4.836341   -1.497482    3.094606
     29          6           0       -6.928655   -4.283326    2.692021
     30          6           0       -3.957735   -3.484735    4.631496
     31          6           0       -2.654952   -3.475942    3.863526
     32          7           0       -4.209061    1.248253    2.111984
     33          6           0       -4.300026    0.877031    3.461278
     34          6           0       -4.089106    2.098077    4.260419
     35          6           0       -3.905369    3.104345    3.314105
     36          6           0       -4.021875    2.551920    2.006609
     37          6           0       -4.141636    2.184637    5.679638
     38          6           0       -3.662200    4.522205    3.103393
     39          8           0       -3.387291    5.473217    3.836532
     40          6           0       -3.907990    4.849455    1.564457
     41          6           0       -2.743389    5.671089    1.082867
     42          8           0       -1.599361    5.177938    1.009588
     43          8           0       -3.196206    6.822582    0.563673
     44          6           0       -2.093175    7.672067    0.040364
     45          1           0       -6.138262    0.909418   -3.700553
     46          1           0       -5.555804   -4.132620   -0.071145
     47          1           0       -4.504890   -0.484842    4.931703
     48          1           0       -5.087867    5.119495   -1.336503
     49          1           0       -5.386108    3.381633   -3.536126
     50          1           0       -7.229663    4.215446   -1.328878
     51          1           0       -7.549494    2.592193   -2.013731
     52          1           0       -7.597853    3.964031   -3.084387
     53          1           0       -3.071304    3.566546   -2.971475
     54          1           0       -2.464127    4.508836   -1.551651
     55          1           0       -4.095473    6.215926   -3.136438
     56          1           0       -3.338990    5.167798   -4.275304
     57          1           0       -5.863592   -0.616927   -5.128029
     58          1           0       -6.488166   -2.221232   -5.081906
     59          1           0       -4.747105   -2.006416   -5.397939
     60          1           0       -5.874485   -4.361374   -4.837007
     61          1           0       -4.848301   -5.827287   -4.361066
     62          1           0       -4.137900   -4.231050   -4.722019
     63          1           0       -4.872349   -4.555847    2.348408
     64          1           0       -5.910599   -2.729959    4.459368
     65          1           0       -6.951742   -5.373336    2.684898
     66          1           0       -7.592634   -3.873133    1.931650
     67          1           0       -7.420219   -3.956677    3.608036
     68          1           0       -4.183517   -4.523936    4.868204
     69          1           0       -3.804679   -2.955983    5.572371
     70          1           0       -2.721346   -4.381248    3.261161
     71          1           0       -1.808659   -3.524657    4.549549
     72          1           0       -2.603298   -2.630748    3.176893
     73          1           0       -3.298894    2.807824    5.978625
     74          1           0       -4.087137    1.197831    6.138819
     75          1           0       -5.114581    2.656102    5.817312
     76          1           0       -4.847640    5.397959    1.506810
     77          1           0       -2.171217    8.640210    0.535178
     78          1           0       -2.174969    7.651273   -1.046504
     79          1           0       -1.082009    7.377311    0.323209
     80         12           0        4.289393   -1.522806   -0.381245
     81          6           0        5.628526    1.782178    0.022357
     82          6           0        2.558141   -0.331634   -3.067972
     83          6           0        2.750546   -4.295323   -0.493262
     84          6           0        5.195926   -2.143758    2.926063
     85          7           0        4.189470    0.484163   -1.305559
     86          6           0        4.789422    1.647579   -1.103356
     87          6           0        4.535396    2.703570   -2.212369
     88          6           0        3.146048    2.129575   -2.777259
     89          6           0        3.315057    0.660542   -2.395105
     90          6           0        1.928926    2.675502   -2.049305
     91          6           0        5.651914    2.693015   -3.314781
     92          6           0        5.635596    3.897818   -4.258154
     93          1           0        6.910472    4.419928   -4.742462
     94          7           0        3.255293   -2.359059   -1.854302
     95          6           0        2.638136   -1.728366   -2.875395
     96          6           0        2.001155   -2.785941   -3.675357
     97          6           0        2.154095   -4.077580   -2.952180
     98          6           0        2.720069   -3.613903   -1.701270
     99          6           0        1.400777   -2.533197   -5.027796
    100          6           0        1.831036   -5.494101   -3.319991
    101          8           0        1.826395   -6.432232   -2.446653
    102          6           0        1.429312   -5.734226   -4.713714
    103          7           0        3.819603   -2.934327    1.071075
    104          6           0        3.190011   -4.077168    0.746331
    105          6           0        3.205046   -5.054344    1.897542
    106          6           0        4.190363   -4.420606    2.986173
    107          6           0        4.519225   -3.085399    2.282990
    108          6           0        1.850060   -5.341680    2.543953
    109          6           0        5.367697   -5.309706    3.472025
    110          6           0        6.347780   -5.530805    2.342455
    111          7           0        5.400421   -0.478259    1.149306
    112          6           0        5.638941   -0.907597    2.473252
    113          6           0        6.340655    0.191453    3.167610
    114          6           0        6.442065    1.200829    2.198401
    115          6           0        5.827767    0.769545    0.991696
    116          6           0        6.745890    0.188838    4.532121
    117          6           0        6.919691    2.537165    1.924956
    118          8           0        7.594432    3.361452    2.540606
    119          6           0        6.302487    3.021427    0.542589
    120          6           0        7.413942    3.612596   -0.280633
    121          8           0        8.347556    2.898871   -0.687529
    122          8           0        7.081493    4.867809   -0.633206
    123          6           0        8.147989    5.492416   -1.460413
    124          1           0        1.799861   -0.010001   -3.782428
    125          1           0        2.330021   -5.303471   -0.509860
    126          1           0        5.599417   -2.296834    3.929279
    127          1           0        4.400424    3.716580   -1.852689
    128          1           0        3.083712    2.237960   -3.856955
    129          1           0        2.205715    3.270788   -1.191892
    130          1           0        1.358051    1.809636   -1.740364
    131          1           0        1.289020    3.225837   -2.744992
    132          1           0        5.439308    1.889857   -4.032053
    133          1           0        6.623810    2.594082   -2.871786
    134          1           0        5.007057    4.711634   -3.876580
    135          1           0        5.151925    3.600873   -5.191914
    136          1           0        1.288184   -1.459720   -5.223689
    137          1           0        0.373783   -2.913000   -4.997781
    138          1           0        1.941586   -3.039723   -5.830064
    139          1           0        0.551195   -5.135854   -4.944648
    140          1           0        1.326171   -6.817168   -4.805669
    141          1           0        2.230849   -5.384710   -5.374003
    142          1           0        3.597457   -6.014235    1.584916
    143          1           0        3.660323   -4.164261    3.915246
    144          1           0        1.584500   -6.415713    2.541967
    145          1           0        1.095945   -4.762551    2.027759
    146          1           0        1.745264   -4.994723    3.570519
    147          1           0        5.001452   -6.297329    3.762932
    148          1           0        5.896290   -4.898055    4.325325
    149          1           0        5.901390   -6.361322    1.787424
    150          1           0        7.327805   -5.798213    2.732442
    151          1           0        6.377346   -4.664225    1.671775
    152          1           0        7.745686    0.601247    4.560776
    153          1           0        6.716312   -0.813730    4.953734
    154          1           0        5.980150    0.838613    4.964231
    155          1           0        5.526562    3.753751    0.768898
    156          1           0        8.432560    6.425126   -0.963663
    157          1           0        7.726525    5.573014   -2.480031
    158          1           0        9.102639    4.982474   -1.515759
 ---------------------------------------------------------------------

 SCF Done:  E(RCAM-B3LYP) =  -4069.81131170     A.U. after   19 cycles

 Excitation energies and oscillator strengths:

 Excited State   1:      Singlet-A      1.6456 eV  753.44 nm  f=0.0338  <S**2>=0.000
     309 -> 315       -0.11339
     310 -> 316        0.12168
     311 -> 313       -0.46658
     312 -> 314        0.50537
 This state for optimization and/or second-order correction.
 Total Energy, E(TD-HF/TD-DFT) =  -4069.75083762
 Copying the excited state density for this state as the 1-particle RhoCI density.

 Excited State   2:      Singlet-A      1.7038 eV  727.68 nm  f=0.6740  <S**2>=0.000
     309 -> 315        0.13413
     310 -> 316        0.12231
     311 -> 313        0.50260
     312 -> 314        0.46407

 Excited State   3:      Singlet-A      2.1796 eV  568.85 nm  f=0.0140  <S**2>=0.000
     309 -> 313       -0.31519
     310 -> 314        0.56337
     311 -> 315        0.12985
     312 -> 316       -0.23325

 Excited State   4:      Singlet-A      2.1959 eV  564.61 nm  f=0.1600  <S**2>=0.000
     309 -> 313        0.55817
     310 -> 314        0.31049
     311 -> 315       -0.24618
     312 -> 316       -0.13777

 Excited State   5:      Singlet-A      2.3280 eV  532.58 nm  f=0.0000  <S**2>=0.000
     312 -> 313        0.70698

 The electronic state is 1-A.
 Alpha  occ. eigenvalues --  -46.87960 -46.87453 -19.26495 -19.26154 -19.19238
 Alpha  occ. eigenvalues --  -19.18965 -19.18939 -19.18552 -19.18320 -19.17831
 Alpha  occ. eigenvalues --  -14.42628 -14.42276 -14.41604 -14.41160 -14.39565
 Alpha  occ. eigenvalues --  -14.39154 -14.38747 -14.38389 -10.39292 -10.38888
 Alpha  occ. eigenvalues --  -10.35575 -10.35235 -10.34544 -10.34003 -10.31895
 Alpha  occ. eigenvalues --  -10.31592 -10.31589 -10.31103 -10.31077 -10.30812
 Alpha  occ. eigenvalues --  -10.30741 -10.30654 -10.30357 -10.30193 -10.30158
 Alpha  occ. eigenvalues --  -10.30055 -10.29964 -10.29789 -10.29691 -10.29415
 Alpha  occ. eigenvalues --  -10.29249 -10.29214 -10.28999 -10.28901 -10.28534
 Alpha  occ. eigenvalues --  -10.28521 -10.28466 -10.28341 -10.28197 -10.27952
 Alpha  occ. eigenvalues --  -10.27906 -10.27845 -10.27803 -10.27749 -10.27712
 Alpha  occ. eigenvalues --  -10.27617 -10.27576 -10.27547 -10.27465 -10.27425
 Alpha  occ. eigenvalues --  -10.27367 -10.27334 -10.27288 -10.27268 -10.27215
 Alpha  occ. eigenvalues --  -10.27051 -10.26802 -10.26587 -10.26512 -10.26426
 Alpha  occ. eigenvalues --  -10.26335 -10.26294 -10.26174 -10.26011 -10.25964
 Alpha  occ. eigenvalues --  -10.25745 -10.25644 -10.25541 -10.25520 -10.25247
 Alpha  occ. eigenvalues --  -10.24990 -10.24931 -10.24795 -10.24666 -10.24607
 Alpha  occ. eigenvalues --  -10.24487  -3.16702  -3.16203  -1.91584  -1.91171
 Alpha  occ. eigenvalues --   -1.91085  -1.91012  -1.90674  -1.90511  -1.16844
 Alpha  occ. eigenvalues --   -1.16447  -1.08780  -1.08434  -1.07333  -1.06856
 Alpha  occ. eigenvalues --   -1.06802  -1.06749  -1.04761  -1.04275  -1.03919
 Alpha  occ. eigenvalues --   -1.03457  -1.03392  -1.02840  -1.02570  -1.01907
 Alpha  occ. eigenvalues --   -0.92142  -0.91767  -0.89659  -0.89421  -0.89316
 Alpha  occ. eigenvalues --   -0.88888  -0.88418  -0.88049  -0.88022  -0.87861
 Alpha  occ. eigenvalues --   -0.87589  -0.87484  -0.87450  -0.86981  -0.85204
 Alpha  occ. eigenvalues --   -0.84776  -0.84064  -0.83711  -0.83128  -0.82849
 Alpha  occ. eigenvalues --   -0.82806  -0.82444  -0.81771  -0.81400  -0.80775
 Alpha  occ. eigenvalues --   -0.80250  -0.78969  -0.78472  -0.77403  -0.77130
 Alpha  occ. eigenvalues --   -0.76951  -0.76690  -0.76115  -0.75599  -0.75035
 Alpha  occ. eigenvalues --   -0.74623  -0.72934  -0.72499  -0.71836  -0.71356
 Alpha  occ. eigenvalues --   -0.70030  -0.69600  -0.69080  -0.68613  -0.67809
 Alpha  occ. eigenvalues --   -0.67458  -0.67414  -0.67027  -0.65503  -0.65050
 Alpha  occ. eigenvalues --   -0.65024  -0.64800  -0.64570  -0.64450  -0.64410
 Alpha  occ. eigenvalues --   -0.64026  -0.62479  -0.62087  -0.60601  -0.60182
 Alpha  occ. eigenvalues --   -0.60011  -0.59558  -0.59149  -0.58793  -0.58668
 Alpha  occ. eigenvalues --   -0.58229  -0.57762  -0.57461  -0.57336  -0.57057
 Alpha  occ. eigenvalues --   -0.56479  -0.56184  -0.56020  -0.55699  -0.55690
 Alpha  occ. eigenvalues --   -0.55485  -0.55274  -0.55068  -0.54684  -0.54310
 Alpha  occ. eigenvalues --   -0.54128  -0.53667  -0.53463  -0.53424  -0.53101
 Alpha  occ. eigenvalues --   -0.53051  -0.52956  -0.52949  -0.52713  -0.52563
 Alpha  occ. eigenvalues --   -0.52505  -0.52252  -0.52056  -0.51840  -0.51677
 Alpha  occ. eigenvalues --   -0.51461  -0.51362  -0.51003  -0.50764  -0.50366
 Alpha  occ. eigenvalues --   -0.50184  -0.50089  -0.49788  -0.49707  -0.49695
 Alpha  occ. eigenvalues --   -0.49395  -0.49293  -0.49289  -0.48996  -0.48839
 Alpha  occ. eigenvalues --   -0.48773  -0.48602  -0.48593  -0.48341  -0.48208
 Alpha  occ. eigenvalues --   -0.48166  -0.47876  -0.47464  -0.47409  -0.46967
 Alpha  occ. eigenvalues --   -0.46961  -0.46779  -0.46520  -0.46517  -0.46334
 Alpha  occ. eigenvalues --   -0.46315  -0.46098  -0.45993  -0.45897  -0.45612
 Alpha  occ. eigenvalues --   -0.45334  -0.45028  -0.44750  -0.44693  -0.44315
 Alpha  occ. eigenvalues --   -0.44305  -0.44287  -0.44269  -0.44190  -0.43917
 Alpha  occ. eigenvalues --   -0.43882  -0.43760  -0.43671  -0.43571  -0.43358
 Alpha  occ. eigenvalues --   -0.43191  -0.43172  -0.42885  -0.42794  -0.42739
 Alpha  occ. eigenvalues --   -0.42697  -0.42388  -0.42175  -0.41873  -0.41785
 Alpha  occ. eigenvalues --   -0.41746  -0.41453  -0.41311  -0.41256  -0.41074
 Alpha  occ. eigenvalues --   -0.40996  -0.40758  -0.40710  -0.40554  -0.40514
 Alpha  occ. eigenvalues --   -0.40494  -0.40300  -0.40039  -0.39562  -0.39274
 Alpha  occ. eigenvalues --   -0.38620  -0.38172  -0.38011  -0.37476  -0.37470
 Alpha  occ. eigenvalues --   -0.37465  -0.37080  -0.36987  -0.36902  -0.36583
 Alpha  occ. eigenvalues --   -0.36366  -0.36026  -0.34450  -0.34046  -0.33978
 Alpha  occ. eigenvalues --   -0.33664  -0.33351  -0.32974  -0.31468  -0.31198
 Alpha  occ. eigenvalues --   -0.31108  -0.30763  -0.30181  -0.29732  -0.29609
 Alpha  occ. eigenvalues --   -0.29477  -0.29146  -0.29003  -0.24245  -0.23825
 Alpha  occ. eigenvalues --   -0.21292  -0.20914
 Alpha virt. eigenvalues --   -0.08936  -0.08594  -0.01906  -0.01485  -0.00221
 Alpha virt. eigenvalues --    0.00159   0.02049   0.02409   0.02770   0.03473
 Alpha virt. eigenvalues --    0.04502   0.04865   0.04959   0.05370   0.05844

 Mulliken charges:
               1
     1  Mg   0.838667
     2  C   -0.003529
     3  C   -0.095762
     4  C   -0.044592
     5  C   -0.063559
     6  N   -0.256709
     7  C   -0.053017
     8  C   -0.013786
     9  C   -0.086759
    10  C    0.045802
    11  C    0.104760
    12  C    0.053386
    13  C   -0.071450
    14  H    0.034203
    15  N   -0.433149
    16  C    0.168115
    17  C   -0.178550
    18  C   -0.003960
    19  C    0.149223
    20  C    0.110470
    21  C    0.013163
    22  O   -0.247451
    23  C    0.062928
    24  N   -0.341051
    25  C    0.041086
    26  C   -0.028542
    27  C   -0.024064
    28  C    0.074958
    29  C    0.075976
    30  C    0.035062
    31  C   -0.005938
    32  N   -0.310568
    33  C    0.080595
    34  C   -0.169250
    35  C    0.008622
    36  C    0.083129
    37  C    0.127223
    38  C    0.046360
    39  O   -0.187672
    40  C   -0.005510
    41  C    0.213260
    42  O   -0.258158
    43  O   -0.304530
    44  C    0.157531
    45  H   -0.017790
    46  H   -0.015787
    47  H   -0.041064
    48  H    0.001457
    49  H   -0.004964
    50  H    0.025827
    51  H    0.016920
    52  H    0.016752
    53  H    0.008825
    54  H    0.043625
    55  H    0.019373
    56  H    0.017326
    57  H    0.005484
    58  H    0.027557
    59  H    0.036913
    60  H    0.037371
    61  H    0.037325
    62  H    0.027946
    63  H    0.017806
    64  H    0.009737
    65  H    0.023888
    66  H    0.012477
    67  H    0.004867
    68  H    0.006760
    69  H    0.004565
    70  H    0.010937
    71  H    0.017207
    72  H    0.029488
    73  H    0.048141
    74  H    0.009324
    75  H    0.046326
    76  H    0.035455
    77  H    0.044022
    78  H    0.045670
    79  H    0.053381
    80  Mg   0.838353
    81  C   -0.016351
    82  C   -0.088145
    83  C   -0.045407
    84  C   -0.064823
    85  N   -0.254779
    86  C   -0.047855
    87  C   -0.015130
    88  C   -0.091457
    89  C    0.046911
    90  C    0.114963
    91  C    0.062674
    92  C   -0.077189
    93  H    0.033856
    94  N   -0.423447
    95  C    0.162983
    96  C   -0.175314
    97  C   -0.007605
    98  C    0.151660
    99  C    0.100372
   100  C    0.015949
   101  O   -0.252407
   102  C    0.061720
   103  N   -0.349885
   104  C    0.037201
   105  C   -0.019893
   106  C   -0.034836
   107  C    0.089130
   108  C    0.073469
   109  C    0.034850
   110  C   -0.007566
   111  N   -0.324356
   112  C    0.079101
   113  C   -0.162732
   114  C    0.003048
   115  C    0.096438
   116  C    0.131175
   117  C    0.043050
   118  O   -0.187685
   119  C    0.000501
   120  C    0.210927
   121  O   -0.251644
   122  O   -0.305076
   123  C    0.152289
   124  H   -0.021056
   125  H   -0.015342
   126  H   -0.040836
   127  H    0.000393
   128  H   -0.006680
   129  H    0.029903
   130  H    0.015249
   131  H    0.014186
   132  H    0.013213
   133  H    0.037363
   134  H    0.020770
   135  H    0.018581
   136  H    0.007584
   137  H    0.022839
   138  H    0.038934
   139  H    0.035970
   140  H    0.036476
   141  H    0.033323
   142  H    0.014109
   143  H    0.011907
   144  H    0.024703
   145  H    0.013281
   146  H    0.004303
   147  H    0.005722
   148  H    0.003423
   149  H    0.010798
   150  H    0.017557
   151  H    0.030350
   152  H    0.045638
   153  H    0.007886
   154  H    0.048382
   155  H    0.038046
   156  H    0.043727
   157  H    0.049011
   158  H    0.053136
 Sum of Mulliken charges =  -0.00000

 Dipole moment (field-independent basis, Debye):
    X=             -5.9867    Y=             -0.0491    Z=             -6.1895  Tot=              8.6112
 Quadrupole moment (field-independent basis, Debye-Ang):
   XX=           -535.5468   YY=           -531.5369   ZZ=           -461.2554
   XY=            -17.2137   XZ=              3.6856   YZ=            -55.0458

 Normal termination of Gaussian 16 at Thu Sep  9 19:48:46 2021.
