 Gaussian 16, Revision A.03,
 Gaussian 16:  ES64L-G16RevA.03 25-Dec-2016

 -----------------------------------
 #p cam-b3lyp/Def2SVP td=(nstates=5)
 -----------------------------------

 --------------------------------
 TDDFT excited states in gaussian
 --------------------------------
 Symbolic Z-matrix:
 Charge =  0 Multiplicity = 1

                         Standard orientation:
 ---------------------------------------------------------------------
 Center     Atomic      Atomic             Coordinates (Angstroms)
 Number     Number       Type             X           Y           Z
 ---------------------------------------------------------------------
      1         12           0        4.054868   -1.747842   -0.088450
      2          6           0        5.636194    1.442337   -0.455036
      3          6           0        5.117741   -1.735718    3.153959
      4          6           0        3.064826   -4.752377    0.133368
      5          6           0        4.113956   -2.011418   -3.563029
      6          7           0        5.219684   -0.275551    1.084668
      7          6           0        5.714730    0.934405    0.843610
      8          6           0        6.258329    1.644906    2.119174
      9          6           0        6.554516    0.360343    3.015929
     10          6           0        5.546734   -0.598581    2.407022
     11          6           0        7.955595   -0.209747    2.819772
     12          6           0        5.187444    2.573503    2.784488
     13          6           0        5.729223    3.547601    3.834709
     14          1           0        5.129787    4.869387    3.939133
     15          7           0        3.653311   -2.850445    1.500848
     16          6           0        4.163545   -2.692713    2.745865
     17          6           0        3.557751   -3.758595    3.572660
     18          6           0        2.800753   -4.664170    2.664375
     19          6           0        3.169044   -4.133331    1.376761
     20          6           0        3.684373   -3.815160    5.064142
     21          6           0        1.898299   -5.830437    2.916427
     22          8           0        1.529252   -6.619589    1.980683
     23          6           0        1.524002   -6.080102    4.320212
     24          7           0        3.843815   -3.280568   -1.489822
     25          6           0        3.337896   -4.468832   -1.141889
     26          6           0        3.018925   -5.300921   -2.348465
     27          6           0        3.186988   -4.334833   -3.608695
     28          6           0        3.680304   -3.066498   -2.869618
     29          6           0        3.884829   -6.552793   -2.546044
     30          6           0        1.973585   -4.207053   -4.563548
     31          6           0        0.834742   -3.507931   -3.855477
     32          7           0        4.580273   -0.452623   -1.748994
     33          6           0        4.550150   -0.776421   -3.113150
     34          6           0        5.095050    0.382271   -3.844303
     35          6           0        5.421816    1.299086   -2.847048
     36          6           0        5.125724    0.737706   -1.572107
     37          6           0        5.286875    0.464424   -5.251744
     38          6           0        5.975126    2.612728   -2.560606
     39          8           0        6.314902    3.578689   -3.245416
     40          6           0        6.249365    2.710402   -0.995013
     41          6           0        5.688703    4.021822   -0.516324
     42          8           0        4.458776    4.232951   -0.524711
     43          8           0        6.656971    4.723552    0.092425
     44          6           0        6.159972    6.023468    0.617177
     45          1           0        5.595757   -1.948849    4.112091
     46          1           0        2.622916   -5.750673    0.157047
     47          1           0        4.084763   -1.988130   -4.653927
     48          1           0        7.176587    2.212386    1.966885
     49          1           0        6.323970    0.535553    4.066582
     50          1           0        8.475633    0.284673    1.999388
     51          1           0        7.811027   -1.267025    2.596713
     52          1           0        8.521917   -0.174649    3.750806
     53          1           0        4.529613    1.971690    3.411497
     54          1           0        4.635654    3.130700    2.026605
     55          1           0        6.815777    3.623817    3.784701
     56          1           0        5.532131    3.129738    4.822001
     57          1           0        4.434156   -3.114417    5.429284
     58          1           0        4.086537   -4.797136    5.312531
     59          1           0        2.725524   -3.673661    5.563060
     60          1           0        2.426316   -6.245532    4.909288
     61          1           0        0.804565   -6.897903    4.298706
     62          1           0        1.053683   -5.183521    4.725046
     63          1           0        1.993130   -5.665401   -2.312075
     64          1           0        4.004607   -4.648330   -4.258228
     65          1           0        3.310472   -7.477644   -2.604951
     66          1           0        4.609096   -6.593356   -1.732973
     67          1           0        4.538577   -6.523525   -3.417350
     68          1           0        1.613642   -5.193650   -4.853398
     69          1           0        2.200199   -3.655424   -5.476018
     70          1           0        0.354818   -4.318055   -3.307568
     71          1           0        0.149494   -3.067209   -4.580329
     72          1           0        1.202719   -2.791097   -3.121155
     73          1           0        4.942732    1.454907   -5.549195
     74          1           0        4.736941   -0.319001   -5.772725
     75          1           0        6.366557    0.330471   -5.316544
     76          1           0        7.329262    2.653828   -0.861807
     77          1           0        6.787195    6.804253    0.186828
     78          1           0        6.139831    5.931878    1.703275
     79          1           0        5.174368    6.337578    0.271836
     80         12           0       -4.212922    1.806726    0.170571
     81          6           0       -5.439108   -1.566012    0.184109
     82          6           0       -3.543194    1.391587   -3.148124
     83          6           0       -2.716654    4.604174    0.224275
     84          6           0       -3.914315    1.564834    3.634387
     85          7           0       -4.499461    0.089059   -1.193164
     86          6           0       -5.031297   -1.119614   -1.090201
     87          6           0       -5.205616   -1.862878   -2.441772
     88          6           0       -4.075219   -1.095532   -3.285719
     89          6           0       -4.056130    0.227275   -2.522517
     90          6           0       -2.700840   -1.733544   -3.170102
     91          6           0       -6.630661   -1.648330   -3.062443
     92          6           0       -6.976437   -2.588480   -4.219293
     93          1           0       -8.356162   -3.047276   -4.354751
     94          7           0       -3.718079    3.027181   -1.314078
     95          6           0       -3.507606    2.694686   -2.604980
     96          6           0       -3.148649    3.946407   -3.289457
     97          6           0       -3.003643    5.016223   -2.265165
     98          6           0       -3.122722    4.235619   -1.050022
     99          6           0       -3.054997    4.058921   -4.783438
    100          6           0       -2.780320    6.494999   -2.362952
    101          8           0       -2.447375    7.194662   -1.341954
    102          6           0       -2.871522    7.084335   -3.706772
    103          7           0       -3.230008    2.851318    1.675581
    104          6           0       -2.712874    4.071104    1.446215
    105          6           0       -2.302197    4.740791    2.735885
    106          6           0       -2.876060    3.811620    3.904169
    107          6           0       -3.468173    2.668655    3.050700
    108          6           0       -0.799393    4.937432    2.934160
    109          6           0       -3.787266    4.492780    4.961716
    110          6           0       -5.086686    4.925310    4.321544
    111          7           0       -4.767078    0.366412    1.682681
    112          6           0       -4.524902    0.451517    3.071269
    113          6           0       -4.982086   -0.818535    3.671586
    114          6           0       -5.440980   -1.569471    2.578881
    115          6           0       -5.262445   -0.828259    1.379625
    116          6           0       -4.896362   -1.165797    5.049340
    117          6           0       -6.026011   -2.824837    2.166001
    118          8           0       -6.475904   -3.808224    2.752766
    119          6           0       -5.934224   -2.928611    0.582589
    120          6           0       -7.278480   -3.364056    0.066939
    121          8           0       -8.271465   -2.625174    0.187931
    122          8           0       -7.127069   -4.477873   -0.672556
    123          6           0       -8.431528   -4.942319   -1.215231
    124          1           0       -3.085443    1.292617   -4.132784
    125          1           0       -2.294926    5.608055    0.312848
    126          1           0       -3.945571    1.450293    4.720009
    127          1           0       -4.988521   -2.923774   -2.408079
    128          1           0       -4.389085   -0.937799   -4.314297
    129          1           0       -2.686988   -2.531488   -2.442623
    130          1           0       -2.031230   -0.937630   -2.871448
    131          1           0       -2.355224   -2.065098   -4.153438
    132          1           0       -6.650228   -0.686059   -3.590073
    133          1           0       -7.388984   -1.711553   -2.306411
    134          1           0       -6.281870   -3.434830   -4.284327
    135          1           0       -6.831669   -2.050129   -5.159105
    136          1           0       -3.050706    3.071677   -5.261703
    137          1           0       -2.067910    4.475486   -5.011480
    138          1           0       -3.820793    4.713263   -5.205396
    139          1           0       -2.144892    6.607488   -4.360294
    140          1           0       -2.771229    8.161615   -3.560848
    141          1           0       -3.861231    6.860772   -4.120407
    142          1           0       -2.746721    5.724948    2.819217
    143          1           0       -2.069001    3.368700    4.506094
    144          1           0       -0.516091    5.993255    3.104610
    145          1           0       -0.286093    4.541047    2.068170
    146          1           0       -0.361345    4.360206    3.746644
    147          1           0       -3.312098    5.399942    5.343065
    148          1           0       -4.005420    3.860144    5.815636
    149          1           0       -4.830346    5.887792    3.868762
    150          1           0       -5.865321    5.037656    5.073302
    151          1           0       -5.371501    4.244950    3.510592
    152          1           0       -5.838912   -1.626585    5.313493
    153          1           0       -4.692270   -0.293802    5.667185
    154          1           0       -4.050386   -1.857854    5.023771
    155          1           0       -5.151648   -3.650684    0.346429
    156          1           0       -8.559075   -5.981067   -0.895201
    157          1           0       -8.386662   -4.752629   -2.304148
    158          1           0       -9.330694   -4.486551   -0.817463
 ---------------------------------------------------------------------

 SCF Done:  E(RCAM-B3LYP) =  -4069.81158196     A.U. after   19 cycles

 Excitation energies and oscillator strengths:

 Excited State   1:      Singlet-A      1.6481 eV  752.29 nm  f=0.0052  <S**2>=0.000
     309 -> 315        0.11317
     310 -> 316        0.12306
     311 -> 313        0.46476
     312 -> 314        0.50685
 This state for optimization and/or second-order correction.
 Total Energy, E(TD-HF/TD-DFT) =  -4069.75101591
 Copying the excited state density for this state as the 1-particle RhoCI density.

 Excited State   2:      Singlet-A      1.7055 eV  726.96 nm  f=0.6928  <S**2>=0.000
     309 -> 315        0.13425
     310 -> 316       -0.12283
     311 -> 313        0.50422
     312 -> 314       -0.46239

 Excited State   3:      Singlet-A      2.1825 eV  568.08 nm  f=0.0105  <S**2>=0.000
     309 -> 313        0.34120
     310 -> 314        0.54756
     311 -> 315       -0.14147
     312 -> 316       -0.22821

 Excited State   4:      Singlet-A      2.1974 eV  564.23 nm  f=0.1633  <S**2>=0.000
     309 -> 313        0.54249
     310 -> 314       -0.33671
     311 -> 315       -0.23968
     312 -> 316        0.14988

 Excited State   5:      Singlet-A      2.3511 eV  527.35 nm  f=0.0000  <S**2>=0.000
     312 -> 313        0.70708

 The electronic state is 1-A.
 Alpha  occ. eigenvalues --  -46.87899 -46.87440 -19.26309 -19.26184 -19.19049
 Alpha  occ. eigenvalues --  -19.18990 -19.18838 -19.18429 -19.18254 -19.17847
 Alpha  occ. eigenvalues --  -14.42550 -14.42280 -14.41565 -14.41141 -14.39496
 Alpha  occ. eigenvalues --  -14.39119 -14.38692 -14.38387 -10.39114 -10.38916
 Alpha  occ. eigenvalues --  -10.35465 -10.35102 -10.34473 -10.34026 -10.31679
 Alpha  occ. eigenvalues --  -10.31614 -10.31512 -10.31116 -10.30989 -10.30788
 Alpha  occ. eigenvalues --  -10.30679 -10.30612 -10.30325 -10.30177 -10.30160
 Alpha  occ. eigenvalues --  -10.30048 -10.29912 -10.29726 -10.29683 -10.29349
 Alpha  occ. eigenvalues --  -10.29197 -10.29183 -10.28830 -10.28617 -10.28529
 Alpha  occ. eigenvalues --  -10.28524 -10.28451 -10.28203 -10.28171 -10.27953
 Alpha  occ. eigenvalues --  -10.27889 -10.27828 -10.27778 -10.27688 -10.27668
 Alpha  occ. eigenvalues --  -10.27609 -10.27535 -10.27496 -10.27451 -10.27343
 Alpha  occ. eigenvalues --  -10.27262 -10.27229 -10.27228 -10.27188 -10.27161
 Alpha  occ. eigenvalues --  -10.26841 -10.26789 -10.26530 -10.26470 -10.26363
 Alpha  occ. eigenvalues --  -10.26312 -10.26149 -10.26104 -10.26014 -10.26002
 Alpha  occ. eigenvalues --  -10.25831 -10.25751 -10.25735 -10.25565 -10.25114
 Alpha  occ. eigenvalues --  -10.25070 -10.24929 -10.24892 -10.24656 -10.24606
 Alpha  occ. eigenvalues --  -10.24449  -3.16642  -3.16190  -1.91524  -1.91110
 Alpha  occ. eigenvalues --   -1.91072  -1.90952  -1.90661  -1.90498  -1.16659
 Alpha  occ. eigenvalues --   -1.16477  -1.08710  -1.08460  -1.07234  -1.06775
 Alpha  occ. eigenvalues --   -1.06674  -1.06673  -1.04678  -1.04278  -1.03870
 Alpha  occ. eigenvalues --   -1.03441  -1.03337  -1.02818  -1.02517  -1.01891
 Alpha  occ. eigenvalues --   -0.92064  -0.91773  -0.89685  -0.89298  -0.89277
 Alpha  occ. eigenvalues --   -0.88963  -0.88442  -0.88017  -0.87988  -0.87776
 Alpha  occ. eigenvalues --   -0.87615  -0.87476  -0.87334  -0.86861  -0.85071
 Alpha  occ. eigenvalues --   -0.84802  -0.84117  -0.83680  -0.83030  -0.82719
 Alpha  occ. eigenvalues --   -0.82677  -0.82435  -0.81660  -0.81412  -0.80675
 Alpha  occ. eigenvalues --   -0.80236  -0.78880  -0.78407  -0.77345  -0.77036
 Alpha  occ. eigenvalues --   -0.76947  -0.76709  -0.76007  -0.75643  -0.75029
 Alpha  occ. eigenvalues --   -0.74583  -0.72889  -0.72496  -0.71773  -0.71366
 Alpha  occ. eigenvalues --   -0.70124  -0.69583  -0.68960  -0.68626  -0.67729
 Alpha  occ. eigenvalues --   -0.67387  -0.67290  -0.66991  -0.65382  -0.65079
 Alpha  occ. eigenvalues --   -0.64957  -0.64726  -0.64568  -0.64459  -0.64412
 Alpha  occ. eigenvalues --   -0.64007  -0.62368  -0.62093  -0.60527  -0.60097
 Alpha  occ. eigenvalues --   -0.59895  -0.59599  -0.59095  -0.58782  -0.58605
 Alpha  occ. eigenvalues --   -0.58216  -0.57662  -0.57414  -0.57361  -0.57021
 Alpha  occ. eigenvalues --   -0.56402  -0.56033  -0.56002  -0.55700  -0.55597
 Alpha  occ. eigenvalues --   -0.55475  -0.55230  -0.55057  -0.54642  -0.54303
 Alpha  occ. eigenvalues --   -0.53981  -0.53729  -0.53400  -0.53281  -0.53030
 Alpha  occ. eigenvalues --   -0.53008  -0.52925  -0.52816  -0.52713  -0.52642
 Alpha  occ. eigenvalues --   -0.52406  -0.52243  -0.52044  -0.51742  -0.51685
 Alpha  occ. eigenvalues --   -0.51450  -0.51311  -0.51011  -0.50619  -0.50212
 Alpha  occ. eigenvalues --   -0.50197  -0.49980  -0.49760  -0.49647  -0.49580
 Alpha  occ. eigenvalues --   -0.49296  -0.49260  -0.49182  -0.48991  -0.48912
 Alpha  occ. eigenvalues --   -0.48685  -0.48574  -0.48490  -0.48367  -0.48170
 Alpha  occ. eigenvalues --   -0.48083  -0.47787  -0.47382  -0.47380  -0.46933
 Alpha  occ. eigenvalues --   -0.46884  -0.46637  -0.46521  -0.46472  -0.46356
 Alpha  occ. eigenvalues --   -0.46272  -0.46059  -0.45920  -0.45890  -0.45652
 Alpha  occ. eigenvalues --   -0.45338  -0.44969  -0.44685  -0.44593  -0.44329
 Alpha  occ. eigenvalues --   -0.44293  -0.44268  -0.44170  -0.44082  -0.43925
 Alpha  occ. eigenvalues --   -0.43870  -0.43708  -0.43580  -0.43491  -0.43375
 Alpha  occ. eigenvalues --   -0.43199  -0.43127  -0.42870  -0.42744  -0.42726
 Alpha  occ. eigenvalues --   -0.42692  -0.42348  -0.42160  -0.41805  -0.41784
 Alpha  occ. eigenvalues --   -0.41629  -0.41464  -0.41266  -0.41240  -0.41001
 Alpha  occ. eigenvalues --   -0.40862  -0.40779  -0.40713  -0.40528  -0.40455
 Alpha  occ. eigenvalues --   -0.40313  -0.40298  -0.40026  -0.39665  -0.39256
 Alpha  occ. eigenvalues --   -0.38619  -0.38150  -0.37837  -0.37475  -0.37459
 Alpha  occ. eigenvalues --   -0.37351  -0.37067  -0.36995  -0.36788  -0.36594
 Alpha  occ. eigenvalues --   -0.36286  -0.36017  -0.34391  -0.34041  -0.33812
 Alpha  occ. eigenvalues --   -0.33681  -0.33285  -0.32958  -0.31372  -0.31129
 Alpha  occ. eigenvalues --   -0.30992  -0.30746  -0.30114  -0.29756  -0.29532
 Alpha  occ. eigenvalues --   -0.29419  -0.29088  -0.28993  -0.24184  -0.23815
 Alpha  occ. eigenvalues --   -0.21234  -0.20896
 Alpha virt. eigenvalues --   -0.08868  -0.08563  -0.01851  -0.01456  -0.00120
 Alpha virt. eigenvalues --    0.00221   0.02102   0.02405   0.02839   0.03491
 Alpha virt. eigenvalues --    0.04617   0.04922   0.05054   0.05345   0.06089

 Mulliken charges:
               1
     1  Mg   0.838768
     2  C   -0.002510
     3  C   -0.094068
     4  C   -0.045936
     5  C   -0.064824
     6  N   -0.256679
     7  C   -0.052646
     8  C   -0.013935
     9  C   -0.087036
    10  C    0.046429
    11  C    0.104745
    12  C    0.053444
    13  C   -0.071931
    14  H    0.036292
    15  N   -0.433327
    16  C    0.168751
    17  C   -0.176813
    18  C   -0.003368
    19  C    0.148976
    20  C    0.110172
    21  C    0.013077
    22  O   -0.248999
    23  C    0.062205
    24  N   -0.340962
    25  C    0.041093
    26  C   -0.028564
    27  C   -0.023711
    28  C    0.074163
    29  C    0.076038
    30  C    0.037050
    31  C   -0.009903
    32  N   -0.310310
    33  C    0.079888
    34  C   -0.170891
    35  C    0.008391
    36  C    0.082779
    37  C    0.127551
    38  C    0.046006
    39  O   -0.188520
    40  C   -0.005259
    41  C    0.212675
    42  O   -0.256364
    43  O   -0.305023
    44  C    0.157196
    45  H   -0.017211
    46  H   -0.016501
    47  H   -0.042618
    48  H    0.001188
    49  H   -0.003982
    50  H    0.025619
    51  H    0.016504
    52  H    0.016931
    53  H    0.010591
    54  H    0.044481
    55  H    0.018195
    56  H    0.017653
    57  H    0.005789
    58  H    0.027387
    59  H    0.040102
    60  H    0.037036
    61  H    0.037625
    62  H    0.032033
    63  H    0.016343
    64  H    0.009733
    65  H    0.023570
    66  H    0.013133
    67  H    0.004777
    68  H    0.006229
    69  H    0.003303
    70  H    0.009877
    71  H    0.017184
    72  H    0.030699
    73  H    0.046586
    74  H    0.007924
    75  H    0.046358
    76  H    0.035245
    77  H    0.043100
    78  H    0.046183
    79  H    0.055034
    80  Mg   0.837690
    81  C   -0.016783
    82  C   -0.087373
    83  C   -0.042631
    84  C   -0.065621
    85  N   -0.254562
    86  C   -0.050238
    87  C   -0.015004
    88  C   -0.091893
    89  C    0.045879
    90  C    0.112188
    91  C    0.062760
    92  C   -0.077570
    93  H    0.034339
    94  N   -0.424117
    95  C    0.163463
    96  C   -0.172420
    97  C   -0.005837
    98  C    0.152470
    99  C    0.098430
   100  C    0.017281
   101  O   -0.252530
   102  C    0.060870
   103  N   -0.349970
   104  C    0.037945
   105  C   -0.020159
   106  C   -0.034047
   107  C    0.088538
   108  C    0.072436
   109  C    0.034972
   110  C   -0.007504
   111  N   -0.323844
   112  C    0.078037
   113  C   -0.164319
   114  C    0.002089
   115  C    0.095688
   116  C    0.131677
   117  C    0.042007
   118  O   -0.188864
   119  C    0.000883
   120  C    0.210986
   121  O   -0.251420
   122  O   -0.305353
   123  C    0.152242
   124  H   -0.019436
   125  H   -0.014382
   126  H   -0.042101
   127  H   -0.000736
   128  H   -0.005228
   129  H    0.024138
   130  H    0.015970
   131  H    0.016945
   132  H    0.013810
   133  H    0.037559
   134  H    0.020403
   135  H    0.019216
   136  H    0.008135
   137  H    0.029258
   138  H    0.039239
   139  H    0.040293
   140  H    0.036145
   141  H    0.032731
   142  H    0.013850
   143  H    0.010669
   144  H    0.024012
   145  H    0.018666
   146  H    0.003173
   147  H    0.005432
   148  H    0.002506
   149  H    0.010957
   150  H    0.017184
   151  H    0.030526
   152  H    0.045513
   153  H    0.007557
   154  H    0.044846
   155  H    0.036003
   156  H    0.043717
   157  H    0.049203
   158  H    0.053207
 Sum of Mulliken charges =  -0.00000

 Dipole moment (field-independent basis, Debye):
    X=              4.0395    Y=             -1.1603    Z=              0.0609  Tot=              4.2033
 Quadrupole moment (field-independent basis, Debye-Ang):
   XX=           -530.2655   YY=           -540.9049   ZZ=           -449.0442
   XY=            -22.0627   XZ=             56.7246   YZ=             33.2906

 Normal termination of Gaussian 16 at Fri Sep  3 20:17:20 2021.
