 Gaussian 16, Revision A.03,
 Gaussian 16:  ES64L-G16RevA.03 25-Dec-2016

 -----------------------------------
 #p cam-b3lyp/Def2SVP td=(nstates=5)
 -----------------------------------

 --------------------------------
 TDDFT excited states in gaussian
 --------------------------------
 Symbolic Z-matrix:
 Charge =  0 Multiplicity = 1

                         Standard orientation:
 ---------------------------------------------------------------------
 Center     Atomic      Atomic             Coordinates (Angstroms)
 Number     Number       Type             X           Y           Z
 ---------------------------------------------------------------------
      1         12           0       16.071610    0.511224    0.734454
      2          6           0       16.373616   -2.363587   -1.376581
      3          6           0       17.056612    2.391742   -1.936967
      4          6           0       16.251681    3.000220    2.691262
      5          6           0       16.222619   -1.656671    3.458988
      6          7           0       16.615960   -0.032206   -1.341362
      7          6           0       16.633061   -1.162623   -2.040674
      8          6           0       16.878639   -0.943383   -3.563500
      9          6           0       17.625164    0.463889   -3.498049
     10          6           0       17.038862    0.989714   -2.199711
     11          6           0       19.137659    0.344515   -3.341171
     12          6           0       15.542042   -0.845745   -4.373258
     13          6           0       15.689280   -0.959052   -5.893401
     14          1           0       14.647128   -1.637211   -6.649290
     15          7           0       16.102369    2.447725    0.344749
     16          6           0       16.519492    3.036547   -0.801803
     17          6           0       16.346642    4.491119   -0.599257
     18          6           0       15.974070    4.710981    0.825855
     19          6           0       16.121966    3.380254    1.357525
     20          6           0       16.485429    5.497394   -1.700119
     21          6           0       15.561901    5.929340    1.589956
     22          8           0       15.507611    5.945121    2.867210
     23          6           0       15.305384    7.145900    0.797983
     24          7           0       16.436770    0.683927    2.782494
     25          6           0       16.401619    1.874123    3.391741
     26          6           0       16.409613    1.724007    4.884168
     27          6           0       16.211696    0.166040    5.172819
     28          6           0       16.205952   -0.345889    3.711256
     29          6           0       17.674051    2.219023    5.599826
     30          6           0       15.035738   -0.233697    6.098969
     31          6           0       13.720024    0.069297    5.417653
     32          7           0       16.085475   -1.639541    1.026106
     33          6           0       16.175899   -2.324328    2.246583
     34          6           0       16.258093   -3.762100    1.930159
     35          6           0       16.226266   -3.813084    0.537954
     36          6           0       16.156736   -2.489430    0.016996
     37          6           0       16.406229   -4.816078    2.874415
     38          6           0       16.259661   -4.676532   -0.631319
     39          8           0       16.221649   -5.894604   -0.811172
     40          6           0       16.479275   -3.766904   -1.919796
     41          6           0       15.477060   -4.197093   -2.956044
     42          8           0       14.255336   -4.014147   -2.779163
     43          8           0       16.120862   -4.535002   -4.083820
     44          6           0       15.182104   -4.943620   -5.162670
     45          1           0       17.579637    3.052285   -2.631279
     46          1           0       16.206408    3.824310    3.406289
     47          1           0       16.186743   -2.397442    4.259877
     48          1           0       17.524989   -1.686280   -4.031215
     49          1           0       17.346618    1.111362   -4.329260
     50          1           0       19.440167   -0.688537   -3.170254
     51          1           0       19.390615    0.962779   -2.479628
     52          1           0       19.651864    0.791762   -4.192253
     53          1           0       15.150659    0.168896   -4.299887
     54          1           0       14.824308   -1.588930   -4.024173
     55          1           0       16.672284   -1.340340   -6.171307
     56          1           0       15.659214    0.045594   -6.315279
     57          1           0       16.926271    5.055910   -2.593033
     58          1           0       17.219551    6.231855   -1.369451
     59          1           0       15.541523    5.995404   -1.922290
     60          1           0       16.205638    7.410442    0.242908
     61          1           0       14.935734    7.890617    1.501976
     62          1           0       14.539254    6.927524    0.053465
     63          1           0       15.588788    2.278348    5.337355
     64          1           0       17.087213   -0.276197    5.648813
     65          1           0       17.478616    2.973001    6.362733
     66          1           0       18.362920    2.596294    4.844565
     67          1           0       18.271438    1.436086    6.066254
     68          1           0       15.062390    0.349496    7.018817
     69          1           0       15.044258   -1.288321    6.374555
     70          1           0       13.570502    1.126077    5.636035
     71          1           0       12.920812   -0.535161    5.847887
     72          1           0       13.799791   -0.031618    4.335092
     73          1           0       15.722965   -5.605115    2.560506
     74          1           0       16.181609   -4.476551    3.885291
     75          1           0       17.459866   -5.060561    2.740497
     76          1           0       17.504784   -3.931802   -2.248827
     77          1           0       15.479447   -5.941238   -5.486060
     78          1           0       15.197111   -4.145589   -5.905184
     79          1           0       14.149903   -5.124331   -4.860602
     80         12           0      -15.649810    0.420514   -0.618008
     81          6           0      -17.707981   -1.771301    1.341309
     82          6           0      -17.981850    2.850244   -0.077083
     83          6           0      -14.094574    2.238352   -2.702267
     84          6           0      -14.112448   -2.419957   -1.927179
     85          7           0      -17.555749    0.418523    0.504330
     86          6           0      -18.205405   -0.453959    1.260009
     87          6           0      -19.414127    0.138900    2.032713
     88          6           0      -19.722462    1.389636    1.073835
     89          6           0      -18.328422    1.595560    0.484828
     90          6           0      -20.676267    1.056843   -0.061444
     91          6           0      -19.027448    0.606169    3.479838
     92          6           0      -20.214724    0.907885    4.396948
     93          1           0      -20.095994    0.588802    5.817005
     94          7           0      -15.709162    2.383271   -0.905492
     95          6           0      -16.725711    3.219082   -0.606631
     96          6           0      -16.284595    4.556864   -1.030789
     97          6           0      -14.991805    4.416932   -1.754555
     98          6           0      -14.889857    2.973622   -1.835409
     99          6           0      -17.027976    5.810617   -0.671759
    100          6           0      -14.015920    5.416792   -2.296899
    101          8           0      -13.076905    5.074355   -3.099283
    102          6           0      -14.248499    6.822688   -1.935158
    103          7           0      -14.446966   -0.023864   -2.254473
    104          6           0      -13.850209    0.953262   -2.959466
    105          6           0      -12.821617    0.389491   -3.910546
    106          6           0      -12.679685   -1.155651   -3.523287
    107          6           0      -13.763275   -1.242126   -2.426138
    108          6           0      -13.152473    0.512838   -5.397731
    109          6           0      -11.251644   -1.670352   -3.193957
    110          6           0      -10.759837   -1.041840   -1.910021
    111          7           0      -15.718559   -1.703825   -0.230079
    112          6           0      -15.012626   -2.718792   -0.912408
    113          6           0      -15.473979   -4.011957   -0.367149
    114          6           0      -16.440671   -3.657675    0.585984
    115          6           0      -16.587016   -2.244488    0.617227
    116          6           0      -15.038850   -5.297929   -0.795000
    117          6           0      -17.378235   -4.158377    1.565251
    118          8           0      -17.633545   -5.265796    2.036624
    119          6           0      -18.331299   -2.965988    2.008261
    120          6           0      -18.410242   -2.967994    3.510355
    121          8           0      -17.403267   -2.719458    4.196523
    122          8           0      -19.700479   -3.047357    3.883682
    123          6           0      -19.831075   -3.041510    5.365142
    124          1           0      -18.756219    3.613408   -0.159699
    125          1           0      -13.454957    2.823912   -3.366714
    126          1           0      -13.611261   -3.347024   -2.213582
    127          1           0      -20.280239   -0.509612    2.088021
    128          1           0      -20.026700    2.261405    1.647265
    129          1           0      -20.897506    0.000772   -0.105286
    130          1           0      -20.178409    1.377018   -0.967348
    131          1           0      -21.581643    1.665611    0.016171
    132          1           0      -18.574229    1.604314    3.424683
    133          1           0      -18.379651   -0.107699    3.950354
    134          1           0      -21.157042    0.518269    3.993003
    135          1           0      -20.363330    1.990003    4.427587
    136          1           0      -18.027177    5.587043   -0.278027
    137          1           0      -17.218559    6.348268   -1.606893
    138          1           0      -16.460766    6.459055   -0.000577
    139          1           0      -15.236678    7.124145   -2.274386
    140          1           0      -13.398223    7.373588   -2.341878
    141          1           0      -14.251499    6.906955   -0.842682
    142          1           0      -11.862927    0.875101   -3.775606
    143          1           0      -13.008211   -1.812720   -4.341912
    144          1           0      -12.376505    1.050859   -5.974343
    145          1           0      -14.109701    1.007692   -5.494547
    146          1           0      -13.327187   -0.430790   -5.911776
    147          1           0      -10.550521   -1.368257   -3.975830
    148          1           0      -11.191095   -2.750036   -3.106730
    149          1           0      -10.374037   -0.073124   -2.241432
    150          1           0       -9.974091   -1.647755   -1.463355
    151          1           0      -11.591687   -0.847807   -1.222971
    152          1           0      -14.879761   -5.886152    0.098968
    153          1           0      -14.133527   -5.232102   -1.394857
    154          1           0      -15.902817   -5.608691   -1.388514
    155          1           0      -19.304862   -3.136045    1.546914
    156          1           0      -20.394768   -3.938472    5.639724
    157          1           0      -20.282647   -2.064689    5.621378
    158          1           0      -18.927248   -3.172903    5.948483
 ---------------------------------------------------------------------

 SCF Done:  E(RCAM-B3LYP) =  -4069.81177016     A.U. after   19 cycles

 Excitation energies and oscillator strengths:

 Excited State   1:      Singlet-A      1.6753 eV  740.07 nm  f=0.2139  <S**2>=0.000
     310 -> 316        0.16865
     311 -> 313        0.66675
     312 -> 314       -0.16160
     310 <- 316        0.10168
 This state for optimization and/or second-order correction.
 Total Energy, E(TD-HF/TD-DFT) =  -4069.75020407
 Copying the excited state density for this state as the 1-particle RhoCI density.

 Excited State   2:      Singlet-A      1.6801 eV  737.95 nm  f=0.5636  <S**2>=0.000
     309 -> 315        0.17067
     311 -> 313        0.16156
     312 -> 314        0.66638
     309 <- 315        0.10219

 Excited State   3:      Singlet-A      2.1861 eV  567.15 nm  f=0.0998  <S**2>=0.000
     310 -> 313        0.64235
     311 -> 316       -0.27306

 Excited State   4:      Singlet-A      2.1925 eV  565.49 nm  f=0.1011  <S**2>=0.000
     309 -> 314        0.64057
     312 -> 315       -0.27825

 Excited State   5:      Singlet-A      3.0598 eV  405.20 nm  f=0.0000  <S**2>=0.000
     312 -> 313        0.70711

 The electronic state is 1-A.
 Alpha  occ. eigenvalues --  -46.87758 -46.87660 -19.26348 -19.26247 -19.19160
 Alpha  occ. eigenvalues --  -19.18982 -19.18777 -19.18715 -19.18132 -19.18051
 Alpha  occ. eigenvalues --  -14.42498 -14.42412 -14.41412 -14.41359 -14.39365
 Alpha  occ. eigenvalues --  -14.39352 -14.38600 -14.38549 -10.39089 -10.39042
 Alpha  occ. eigenvalues --  -10.35411 -10.35393 -10.34352 -10.34228 -10.31755
 Alpha  occ. eigenvalues --  -10.31642 -10.31368 -10.31309 -10.31024 -10.30871
 Alpha  occ. eigenvalues --  -10.30532 -10.30470 -10.30398 -10.30361 -10.30169
 Alpha  occ. eigenvalues --  -10.30141 -10.29894 -10.29883 -10.29593 -10.29437
 Alpha  occ. eigenvalues --  -10.29401 -10.29217 -10.28720 -10.28712 -10.28654
 Alpha  occ. eigenvalues --  -10.28501 -10.28405 -10.28327 -10.28142 -10.28080
 Alpha  occ. eigenvalues --  -10.28001 -10.27755 -10.27690 -10.27670 -10.27546
 Alpha  occ. eigenvalues --  -10.27515 -10.27484 -10.27469 -10.27466 -10.27463
 Alpha  occ. eigenvalues --  -10.27444 -10.27412 -10.27375 -10.27366 -10.27121
 Alpha  occ. eigenvalues --  -10.27051 -10.26693 -10.26667 -10.26417 -10.26372
 Alpha  occ. eigenvalues --  -10.26199 -10.26144 -10.26131 -10.26028 -10.25981
 Alpha  occ. eigenvalues --  -10.25934 -10.25849 -10.25806 -10.25399 -10.25399
 Alpha  occ. eigenvalues --  -10.24873 -10.24795 -10.24750 -10.24722 -10.24690
 Alpha  occ. eigenvalues --  -10.24645  -3.16501  -3.16410  -1.91383  -1.91293
 Alpha  occ. eigenvalues --   -1.90969  -1.90881  -1.90811  -1.90718  -1.16642
 Alpha  occ. eigenvalues --   -1.16595  -1.08658  -1.08590  -1.07178  -1.06968
 Alpha  occ. eigenvalues --   -1.06944  -1.06604  -1.04543  -1.04496  -1.03723
 Alpha  occ. eigenvalues --   -1.03663  -1.03196  -1.03039  -1.02373  -1.02112
 Alpha  occ. eigenvalues --   -0.91987  -0.91934  -0.89493  -0.89481  -0.89152
 Alpha  occ. eigenvalues --   -0.89151  -0.88249  -0.88219  -0.87832  -0.87793
 Alpha  occ. eigenvalues --   -0.87684  -0.87635  -0.87236  -0.87121  -0.85000
 Alpha  occ. eigenvalues --   -0.84945  -0.83898  -0.83874  -0.82932  -0.82929
 Alpha  occ. eigenvalues --   -0.82653  -0.82611  -0.81596  -0.81548  -0.80559
 Alpha  occ. eigenvalues --   -0.80443  -0.78759  -0.78636  -0.77181  -0.77144
 Alpha  occ. eigenvalues --   -0.76898  -0.76897  -0.75886  -0.75839  -0.74861
 Alpha  occ. eigenvalues --   -0.74802  -0.72736  -0.72699  -0.71635  -0.71581
 Alpha  occ. eigenvalues --   -0.69868  -0.69754  -0.68836  -0.68828  -0.67603
 Alpha  occ. eigenvalues --   -0.67602  -0.67200  -0.67182  -0.65272  -0.65249
 Alpha  occ. eigenvalues --   -0.64816  -0.64770  -0.64654  -0.64583  -0.64231
 Alpha  occ. eigenvalues --   -0.64202  -0.62278  -0.62260  -0.60404  -0.60340
 Alpha  occ. eigenvalues --   -0.59797  -0.59767  -0.58993  -0.58950  -0.58466
 Alpha  occ. eigenvalues --   -0.58425  -0.57554  -0.57547  -0.57271  -0.57236
 Alpha  occ. eigenvalues --   -0.56272  -0.56204  -0.55941  -0.55886  -0.55483
 Alpha  occ. eigenvalues --   -0.55452  -0.55301  -0.55246  -0.54486  -0.54485
 Alpha  occ. eigenvalues --   -0.53913  -0.53858  -0.53261  -0.53227  -0.53184
 Alpha  occ. eigenvalues --   -0.53142  -0.52902  -0.52877  -0.52719  -0.52669
 Alpha  occ. eigenvalues --   -0.52399  -0.52396  -0.51884  -0.51877  -0.51659
 Alpha  occ. eigenvalues --   -0.51579  -0.51200  -0.51158  -0.50535  -0.50476
 Alpha  occ. eigenvalues --   -0.49993  -0.49980  -0.49881  -0.49866  -0.49489
 Alpha  occ. eigenvalues --   -0.49477  -0.49203  -0.49177  -0.49105  -0.49059
 Alpha  occ. eigenvalues --   -0.48559  -0.48556  -0.48424  -0.48408  -0.48375
 Alpha  occ. eigenvalues --   -0.48339  -0.47657  -0.47595  -0.47259  -0.47119
 Alpha  occ. eigenvalues --   -0.46759  -0.46709  -0.46555  -0.46518  -0.46321
 Alpha  occ. eigenvalues --   -0.46270  -0.46125  -0.46085  -0.45822  -0.45784
 Alpha  occ. eigenvalues --   -0.45208  -0.45164  -0.44540  -0.44514  -0.44476
 Alpha  occ. eigenvalues --   -0.44469  -0.44128  -0.44106  -0.44077  -0.44051
 Alpha  occ. eigenvalues --   -0.43982  -0.43940  -0.43552  -0.43457  -0.43386
 Alpha  occ. eigenvalues --   -0.43348  -0.42989  -0.42930  -0.42901  -0.42661
 Alpha  occ. eigenvalues --   -0.42616  -0.42552  -0.41971  -0.41962  -0.41669
 Alpha  occ. eigenvalues --   -0.41666  -0.41496  -0.41459  -0.41104  -0.40990
 Alpha  occ. eigenvalues --   -0.40831  -0.40785  -0.40723  -0.40698  -0.40533
 Alpha  occ. eigenvalues --   -0.40492  -0.40228  -0.40196  -0.39421  -0.39401
 Alpha  occ. eigenvalues --   -0.38431  -0.38349  -0.37711  -0.37654  -0.37282
 Alpha  occ. eigenvalues --   -0.37265  -0.37226  -0.37200  -0.36770  -0.36675
 Alpha  occ. eigenvalues --   -0.36216  -0.36155  -0.34254  -0.34248  -0.33861
 Alpha  occ. eigenvalues --   -0.33732  -0.33176  -0.33148  -0.31307  -0.31274
 Alpha  occ. eigenvalues --   -0.30998  -0.30973  -0.29991  -0.29955  -0.29411
 Alpha  occ. eigenvalues --   -0.29328  -0.29284  -0.29212  -0.24043  -0.24036
 Alpha  occ. eigenvalues --   -0.21117  -0.21090
 Alpha virt. eigenvalues --   -0.08792  -0.08736  -0.01712  -0.01684  -0.00030
 Alpha virt. eigenvalues --   -0.00020   0.02207   0.02238   0.03162   0.03229
 Alpha virt. eigenvalues --    0.04729   0.04755   0.05136   0.05166   0.06182

 Mulliken charges:
               1
     1  Mg   0.838720
     2  C   -0.002958
     3  C   -0.094114
     4  C   -0.045839
     5  C   -0.063968
     6  N   -0.256764
     7  C   -0.052469
     8  C   -0.014001
     9  C   -0.087014
    10  C    0.046322
    11  C    0.104825
    12  C    0.053467
    13  C   -0.071810
    14  H    0.036152
    15  N   -0.433114
    16  C    0.168435
    17  C   -0.177156
    18  C   -0.004002
    19  C    0.148708
    20  C    0.110190
    21  C    0.012302
    22  O   -0.249627
    23  C    0.062460
    24  N   -0.341133
    25  C    0.041232
    26  C   -0.028167
    27  C   -0.023992
    28  C    0.074863
    29  C    0.076184
    30  C    0.035138
    31  C   -0.004515
    32  N   -0.310484
    33  C    0.080427
    34  C   -0.169706
    35  C    0.008350
    36  C    0.083008
    37  C    0.127307
    38  C    0.046124
    39  O   -0.188449
    40  C   -0.005329
    41  C    0.212862
    42  O   -0.257063
    43  O   -0.304814
    44  C    0.157693
    45  H   -0.017629
    46  H   -0.016845
    47  H   -0.041487
    48  H    0.000913
    49  H   -0.004032
    50  H    0.025456
    51  H    0.016433
    52  H    0.016629
    53  H    0.011232
    54  H    0.044143
    55  H    0.017836
    56  H    0.017952
    57  H    0.005861
    58  H    0.026789
    59  H    0.039581
    60  H    0.037316
    61  H    0.035651
    62  H    0.031547
    63  H    0.016576
    64  H    0.009434
    65  H    0.023200
    66  H    0.012519
    67  H    0.004727
    68  H    0.006356
    69  H    0.004734
    70  H    0.008792
    71  H    0.018203
    72  H    0.028992
    73  H    0.047592
    74  H    0.009126
    75  H    0.045974
    76  H    0.035119
    77  H    0.042921
    78  H    0.046395
    79  H    0.053714
    80  Mg   0.837864
    81  C   -0.016833
    82  C   -0.087806
    83  C   -0.045514
    84  C   -0.064891
    85  N   -0.254564
    86  C   -0.049831
    87  C   -0.015099
    88  C   -0.090480
    89  C    0.045761
    90  C    0.114375
    91  C    0.062519
    92  C   -0.077904
    93  H    0.034935
    94  N   -0.423484
    95  C    0.162929
    96  C   -0.174640
    97  C   -0.007805
    98  C    0.152134
    99  C    0.099369
   100  C    0.015573
   101  O   -0.253180
   102  C    0.061197
   103  N   -0.350071
   104  C    0.037514
   105  C   -0.019830
   106  C   -0.034831
   107  C    0.088934
   108  C    0.073658
   109  C    0.034721
   110  C   -0.007708
   111  N   -0.324125
   112  C    0.078487
   113  C   -0.163102
   114  C    0.002249
   115  C    0.096211
   116  C    0.131477
   117  C    0.042407
   118  O   -0.187850
   119  C    0.000912
   120  C    0.211261
   121  O   -0.250973
   122  O   -0.305648
   123  C    0.152011
   124  H   -0.019680
   125  H   -0.015568
   126  H   -0.040398
   127  H   -0.000656
   128  H   -0.004322
   129  H    0.022448
   130  H    0.014410
   131  H    0.016267
   132  H    0.013931
   133  H    0.037706
   134  H    0.020770
   135  H    0.019589
   136  H    0.008756
   137  H    0.026116
   138  H    0.039808
   139  H    0.038227
   140  H    0.036390
   141  H    0.033923
   142  H    0.014442
   143  H    0.012414
   144  H    0.025145
   145  H    0.011593
   146  H    0.005672
   147  H    0.006305
   148  H    0.003715
   149  H    0.010943
   150  H    0.018074
   151  H    0.030071
   152  H    0.046067
   153  H    0.008578
   154  H    0.046918
   155  H    0.035003
   156  H    0.043916
   157  H    0.049487
   158  H    0.053617
 Sum of Mulliken charges =  -0.00000

 Dipole moment (field-independent basis, Debye):
    X=             -0.3951    Y=              7.0840    Z=             -3.0644  Tot=              7.7285
 Quadrupole moment (field-independent basis, Debye-Ang):
   XX=           -350.7764   YY=           -540.3976   ZZ=           -477.1995
   XY=            -24.8316   XZ=            -31.5521   YZ=              2.4377

 Normal termination of Gaussian 16 at Sun Sep 12 10:58:08 2021.
