 Gaussian 16, Revision A.03,
 Gaussian 16:  ES64L-G16RevA.03 25-Dec-2016

 -----------------------------------
 #p cam-b3lyp/Def2SVP td=(nstates=5)
 -----------------------------------

 --------------------------------
 TDDFT excited states in gaussian
 --------------------------------
 Symbolic Z-matrix:
 Charge =  0 Multiplicity = 1

                         Standard orientation:
 ---------------------------------------------------------------------
 Center     Atomic      Atomic             Coordinates (Angstroms)
 Number     Number       Type             X           Y           Z
 ---------------------------------------------------------------------
      1         12           0       -3.819258    0.367058   -0.927561
      2          6           0       -4.073404   -2.923640    0.457695
      3          6           0       -5.459994    1.498397    1.842119
      4          6           0       -4.010403    3.203494   -2.332806
      5          6           0       -3.243200   -1.138146   -4.017573
      6          7           0       -4.612980   -0.677355    0.855653
      7          6           0       -4.592498   -1.932364    1.293494
      8          6           0       -5.106055   -2.084752    2.756508
      9          6           0       -6.011789   -0.775492    2.843014
     10          6           0       -5.299464    0.081249    1.811263
     11          6           0       -7.450282   -0.998593    2.387530
     12          6           0       -3.941510   -2.045886    3.802480
     13          6           0       -4.314487   -2.510943    5.213141
     14          1           0       -3.326758   -3.240181    5.994135
     15          7           0       -4.167860    2.154888   -0.162714
     16          6           0       -4.837689    2.429269    0.982420
     17          6           0       -4.828388    3.901828    1.117200
     18          6           0       -4.264336    4.470133   -0.138574
     19          6           0       -4.147780    3.284882   -0.949112
     20          6           0       -5.273812    4.617587    2.355358
     21          6           0       -3.899611    5.862215   -0.547493
     22          8           0       -3.643635    6.169391   -1.761862
     23          6           0       -3.936598    6.888534    0.510025
     24          7           0       -3.870624    0.959951   -2.928429
     25          6           0       -3.895805    2.254420   -3.264134
     26          6           0       -3.644295    2.443130   -4.730787
     27          6           0       -3.198440    1.015507   -5.290124
     28          6           0       -3.359685    0.191394   -3.988930
     29          6           0       -4.831699    2.964756   -5.551754
     30          6           0       -1.846720    0.946553   -6.044126
     31          6           0       -0.709136    1.211463   -5.083488
     32          7           0       -3.501716   -1.654808   -1.650244
     33          6           0       -3.303797   -2.053501   -2.980111
     34          6           0       -3.244916   -3.526788   -2.985200
     35          6           0       -3.430448   -3.885799   -1.651583
     36          6           0       -3.621004   -2.712387   -0.867309
     37          6           0       -3.098970   -4.351014   -4.135759
     38          6           0       -3.536608   -4.988919   -0.710460
     39          8           0       -3.367273   -6.207129   -0.779617
     40          6           0       -4.078423   -4.416636    0.673287
     41          6           0       -3.207526   -4.972074    1.767058
     42          8           0       -2.008296   -4.639785    1.860859
     43          8           0       -3.973564   -5.613681    2.662640
     44          6           0       -3.174425   -6.163742    3.790010
     45          1           0       -6.170321    1.933892    2.547613
     46          1           0       -3.960315    4.167578   -2.843170
     47          1           0       -2.981671   -1.673436   -4.932188
     48          1           0       -5.715134   -2.971211    2.934376
     49          1           0       -5.958299   -0.307868    3.825963
     50          1           0       -7.582197   -1.990692    1.955953
     51          1           0       -7.641187   -0.229352    1.638987
     52          1           0       -8.148942   -0.804341    3.201727
     53          1           0       -3.681027   -1.008424    4.011961
     54          1           0       -3.085202   -2.620692    3.447991
     55          1           0       -5.270205   -3.035788    5.220124
     56          1           0       -4.485577   -1.628413    5.829638
     57          1           0       -5.789947    3.947377    3.041630
     58          1           0       -6.035918    5.334996    2.051668
     59          1           0       -4.452013    5.139686    2.845655
     60          1           0       -4.941223    6.935653    0.930809
     61          1           0       -3.560500    7.803726    0.054149
     62          1           0       -3.277814    6.581781    1.322954
     63          1           0       -2.841960    3.159888   -4.900914
     64          1           0       -3.919987    0.610934   -6.000310
     65          1           0       -4.617778    3.885739   -6.094647
     66          1           0       -5.676581    3.096191   -4.876335
     67          1           0       -5.237692    2.253799   -6.270870
     68          1           0       -1.802274    1.716196   -6.813944
     69          1           0       -1.671423   -0.015263   -6.526238
     70          1           0       -0.667531    2.299559   -5.049592
     71          1           0        0.221553    0.797107   -5.472509
     72          1           0       -0.947536    0.863024   -4.078380
     73          1           0       -2.376707   -5.122387   -3.868762
     74          1           0       -2.761926   -3.773587   -4.996330
     75          1           0       -4.118757   -4.717501   -4.252288
     76          1           0       -5.112526   -4.747088    0.765781
     77          1           0       -3.385293   -7.231961    3.841748
     78          1           0       -3.413743   -5.557842    4.664091
     79          1           0       -2.092419   -6.173920    3.654002
     80         12           0        3.892784    1.009161    0.870606
     81          6           0        4.391167   -1.933661   -1.121990
     82          6           0        2.599127   -1.025219    3.283563
     83          6           0        3.028336    3.613730    2.463222
     84          6           0        4.143673    2.870625   -2.064986
     85          7           0        3.588061   -1.180030    0.953125
     86          6           0        3.872426   -2.203264    0.161623
     87          6           0        3.659830   -3.597130    0.810861
     88          6           0        2.582703   -3.180837    1.926815
     89          6           0        2.963024   -1.711525    2.097533
     90          6           0        1.147268   -3.248338    1.432540
     91          6           0        4.972216   -4.160119    1.461012
     92          6           0        4.917938   -5.641855    1.839516
     93          1           0        6.131985   -6.441090    1.698856
     94          7           0        3.411917    1.245635    2.781477
     95          6           0        2.922163    0.307906    3.619392
     96          6           0        2.714531    0.988060    4.907192
     97          6           0        2.966280    2.442240    4.715598
     98          6           0        3.128557    2.494305    3.276485
     99          6           0        2.393484    0.250396    6.174559
    100          6           0        3.035234    3.597123    5.668329
    101          8           0        3.029881    4.810910    5.256598
    102          6           0        3.014944    3.267295    7.100910
    103          7           0        3.413054    2.938832    0.263490
    104          6           0        3.123662    3.894903    1.163541
    105          6           0        3.082871    5.258770    0.516565
    106          6           0        3.645502    5.048217   -0.965560
    107          6           0        3.838984    3.516014   -0.947495
    108          6           0        1.707469    5.922175    0.449064
    109          6           0        4.842266    5.939325   -1.397245
    110          6           0        6.074554    5.568194   -0.604080
    111          7           0        4.390767    0.601435   -1.191873
    112          6           0        4.410305    1.521842   -2.262651
    113          6           0        4.694634    0.753548   -3.492003
    114          6           0        4.798818   -0.574264   -3.050946
    115          6           0        4.573896   -0.632252   -1.648962
    116          6           0        4.775216    1.289722   -4.808111
    117          6           0        5.037409   -1.941433   -3.454228
    118          8           0        5.370741   -2.492292   -4.502649
    119          6           0        4.658975   -2.898883   -2.243254
    120          6           0        5.779038   -3.886874   -2.064729
    121          8           0        6.907403   -3.505331   -1.707216
    122          8           0        5.280860   -5.134872   -2.133274
    123          6           0        6.352056   -6.150294   -1.950868
    124          1           0        1.970443   -1.541466    4.009604
    125          1           0        2.840975    4.557341    2.980868
    126          1           0        4.334808    3.390870   -3.005991
    127          1           0        3.240345   -4.346611    0.150499
    128          1           0        2.742828   -3.726268    2.853228
    129          1           0        1.095057   -3.452098    0.373341
    130          1           0        0.714244   -2.281568    1.653641
    131          1           0        0.579604   -3.974591    2.021304
    132          1           0        5.097308   -3.716228    2.457034
    133          1           0        5.818913   -3.979744    0.827600
    134          1           0        4.064953   -6.154168    1.378110
    135          1           0        4.728343   -5.719104    2.912878
    136          1           0        2.107287   -0.789311    5.973344
    137          1           0        1.487733    0.706087    6.589083
    138          1           0        3.193415    0.317281    6.915028
    139          1           0        2.106324    2.716331    7.331797
    140          1           0        3.162207    4.215682    7.621251
    141          1           0        3.853571    2.596095    7.317288
    142          1           0        3.725897    5.954939    1.040943
    143          1           0        2.879351    5.259264   -1.726031
    144          1           0        1.678073    6.916210    0.933939
    145          1           0        0.984850    5.256557    0.902174
    146          1           0        1.305561    6.050859   -0.554482
    147          1           0        4.633412    6.988351   -1.173463
    148          1           0        5.068859    5.874873   -2.456252
    149          1           0        5.946356    6.127815    0.327300
    150          1           0        6.975844    5.877472   -1.129513
    151          1           0        6.073084    4.501685   -0.350694
    152          1           0        5.635148    0.831938   -5.278690
    153          1           0        4.860743    2.374240   -4.791052
    154          1           0        3.814319    0.960054   -5.212191
    155          1           0        3.717370   -3.388524   -2.494652
    156          1           0        6.318023   -6.810770   -2.822818
    157          1           0        6.162531   -6.610299   -0.962819
    158          1           0        7.379342   -5.806904   -1.985641
 ---------------------------------------------------------------------

 SCF Done:  E(RCAM-B3LYP) =  -4069.81521163     A.U. after   18 cycles

 Excitation energies and oscillator strengths:

 Excited State   1:      Singlet-A      1.6510 eV  750.96 nm  f=0.1457  <S**2>=0.000
     309 -> 315       -0.10572
     310 -> 316        0.12840
     311 -> 313       -0.43227
     312 -> 314        0.53434
 This state for optimization and/or second-order correction.
 Total Energy, E(TD-HF/TD-DFT) =  -4069.75453788
 Copying the excited state density for this state as the 1-particle RhoCI density.

 Excited State   2:      Singlet-A      1.6886 eV  734.26 nm  f=0.5146  <S**2>=0.000
     309 -> 315        0.13867
     310 -> 316        0.10881
     311 -> 313        0.53218
     312 -> 314        0.43054

 Excited State   3:      Singlet-A      2.1786 eV  569.09 nm  f=0.0674  <S**2>=0.000
     309 -> 313       -0.23575
     310 -> 314        0.60060
     312 -> 316       -0.24491

 Excited State   4:      Singlet-A      2.1815 eV  568.35 nm  f=0.0000  <S**2>=0.000
     312 -> 313        0.70701

 Excited State   5:      Singlet-A      2.1966 eV  564.43 nm  f=0.1206  <S**2>=0.000
     309 -> 313        0.59545
     310 -> 314        0.23197
     311 -> 315       -0.26186
     312 -> 316       -0.10249

 The electronic state is 1-A.
 Alpha  occ. eigenvalues --  -46.87997 -46.87284 -19.26964 -19.25935 -19.19887
 Alpha  occ. eigenvalues --  -19.18975 -19.18769 -19.18520 -19.18476 -19.17723
 Alpha  occ. eigenvalues --  -14.42667 -14.42025 -14.41641 -14.40997 -14.39597
 Alpha  occ. eigenvalues --  -14.38997 -14.38799 -14.38237 -10.39824 -10.38693
 Alpha  occ. eigenvalues --  -10.35602 -10.35205 -10.34714 -10.33889 -10.32328
 Alpha  occ. eigenvalues --  -10.31648 -10.31359 -10.31160 -10.30788 -10.30783
 Alpha  occ. eigenvalues --  -10.30708 -10.30548 -10.30360 -10.30113 -10.30077
 Alpha  occ. eigenvalues --  -10.29995 -10.29830 -10.29801 -10.29567 -10.29428
 Alpha  occ. eigenvalues --  -10.29095 -10.29089 -10.29081 -10.29011 -10.28598
 Alpha  occ. eigenvalues --  -10.28395 -10.28090 -10.28028 -10.27995 -10.27964
 Alpha  occ. eigenvalues --  -10.27930 -10.27774 -10.27663 -10.27662 -10.27610
 Alpha  occ. eigenvalues --  -10.27601 -10.27583 -10.27571 -10.27253 -10.27221
 Alpha  occ. eigenvalues --  -10.27195 -10.27175 -10.27150 -10.27135 -10.27101
 Alpha  occ. eigenvalues --  -10.27070 -10.26643 -10.26498 -10.26475 -10.26303
 Alpha  occ. eigenvalues --  -10.26237 -10.26187 -10.26102 -10.25974 -10.25887
 Alpha  occ. eigenvalues --  -10.25641 -10.25584 -10.25554 -10.25145 -10.25058
 Alpha  occ. eigenvalues --  -10.24989 -10.24737 -10.24534 -10.24501 -10.24356
 Alpha  occ. eigenvalues --  -10.24186  -3.16738  -3.16035  -1.91620  -1.91207
 Alpha  occ. eigenvalues --   -1.91049  -1.90917  -1.90504  -1.90343  -1.17329
 Alpha  occ. eigenvalues --   -1.16234  -1.08969  -1.08328  -1.07421  -1.07375
 Alpha  occ. eigenvalues --   -1.06781  -1.06554  -1.04810  -1.04037  -1.03958
 Alpha  occ. eigenvalues --   -1.03434  -1.03269  -1.02690  -1.02614  -1.01743
 Alpha  occ. eigenvalues --   -0.92255  -0.91585  -0.89688  -0.89484  -0.89171
 Alpha  occ. eigenvalues --   -0.88444  -0.88357  -0.88062  -0.87902  -0.87899
 Alpha  occ. eigenvalues --   -0.87474  -0.87435  -0.87238  -0.86866  -0.85273
 Alpha  occ. eigenvalues --   -0.84393  -0.84113  -0.83583  -0.83116  -0.82924
 Alpha  occ. eigenvalues --   -0.82718  -0.82096  -0.81967  -0.81188  -0.80870
 Alpha  occ. eigenvalues --   -0.80055  -0.78973  -0.78330  -0.77439  -0.77248
 Alpha  occ. eigenvalues --   -0.76757  -0.76348  -0.76223  -0.75155  -0.75088
 Alpha  occ. eigenvalues --   -0.74423  -0.72973  -0.72315  -0.71905  -0.71060
 Alpha  occ. eigenvalues --   -0.70027  -0.69445  -0.69144  -0.68259  -0.67886
 Alpha  occ. eigenvalues --   -0.67508  -0.67262  -0.66723  -0.65595  -0.65156
 Alpha  occ. eigenvalues --   -0.64883  -0.64725  -0.64443  -0.64373  -0.64164
 Alpha  occ. eigenvalues --   -0.63857  -0.62718  -0.61895  -0.60608  -0.60069
 Alpha  occ. eigenvalues --   -0.60060  -0.59228  -0.59177  -0.58769  -0.58597
 Alpha  occ. eigenvalues --   -0.58047  -0.58030  -0.57518  -0.57173  -0.56920
 Alpha  occ. eigenvalues --   -0.56622  -0.56381  -0.55850  -0.55775  -0.55631
 Alpha  occ. eigenvalues --   -0.55474  -0.55096  -0.54919  -0.54878  -0.54213
 Alpha  occ. eigenvalues --   -0.54140  -0.53549  -0.53495  -0.53354  -0.53129
 Alpha  occ. eigenvalues --   -0.52948  -0.52898  -0.52742  -0.52555  -0.52529
 Alpha  occ. eigenvalues --   -0.52166  -0.52123  -0.52040  -0.51901  -0.51610
 Alpha  occ. eigenvalues --   -0.51457  -0.51142  -0.50793  -0.50697  -0.50242
 Alpha  occ. eigenvalues --   -0.50202  -0.50096  -0.49795  -0.49638  -0.49523
 Alpha  occ. eigenvalues --   -0.49485  -0.49377  -0.49003  -0.48941  -0.48791
 Alpha  occ. eigenvalues --   -0.48721  -0.48614  -0.48375  -0.48081  -0.48057
 Alpha  occ. eigenvalues --   -0.47937  -0.47928  -0.47511  -0.47125  -0.47018
 Alpha  occ. eigenvalues --   -0.46873  -0.46782  -0.46609  -0.46393  -0.46280
 Alpha  occ. eigenvalues --   -0.46147  -0.45960  -0.45832  -0.45741  -0.45384
 Alpha  occ. eigenvalues --   -0.45338  -0.44883  -0.44868  -0.44720  -0.44416
 Alpha  occ. eigenvalues --   -0.44308  -0.44246  -0.44161  -0.44058  -0.43870
 Alpha  occ. eigenvalues --   -0.43785  -0.43630  -0.43568  -0.43392  -0.43289
 Alpha  occ. eigenvalues --   -0.43203  -0.43138  -0.42812  -0.42805  -0.42536
 Alpha  occ. eigenvalues --   -0.42432  -0.42246  -0.42228  -0.41960  -0.41808
 Alpha  occ. eigenvalues --   -0.41588  -0.41375  -0.41249  -0.41130  -0.41028
 Alpha  occ. eigenvalues --   -0.40931  -0.40735  -0.40575  -0.40504  -0.40384
 Alpha  occ. eigenvalues --   -0.40209  -0.39780  -0.39635  -0.39552  -0.39128
 Alpha  occ. eigenvalues --   -0.38651  -0.38109  -0.37972  -0.37566  -0.37505
 Alpha  occ. eigenvalues --   -0.37294  -0.37152  -0.36860  -0.36646  -0.36481
 Alpha  occ. eigenvalues --   -0.36388  -0.35802  -0.34586  -0.34437  -0.33849
 Alpha  occ. eigenvalues --   -0.33477  -0.33416  -0.32804  -0.31511  -0.31267
 Alpha  occ. eigenvalues --   -0.31074  -0.30560  -0.30349  -0.29643  -0.29620
 Alpha  occ. eigenvalues --   -0.29531  -0.29033  -0.28886  -0.24302  -0.23652
 Alpha  occ. eigenvalues --   -0.21328  -0.20726
 Alpha virt. eigenvalues --   -0.08978  -0.08447  -0.01946  -0.01322  -0.00263
 Alpha virt. eigenvalues --    0.00317   0.01951   0.02384   0.02630   0.03685
 Alpha virt. eigenvalues --    0.04417   0.04445   0.05282   0.05566   0.05777

 Mulliken charges:
               1
     1  Mg   0.839577
     2  C   -0.005219
     3  C   -0.094050
     4  C   -0.045438
     5  C   -0.062675
     6  N   -0.256965
     7  C   -0.052935
     8  C   -0.014196
     9  C   -0.087101
    10  C    0.046400
    11  C    0.104659
    12  C    0.053443
    13  C   -0.071318
    14  H    0.032359
    15  N   -0.433359
    16  C    0.169223
    17  C   -0.176139
    18  C   -0.003260
    19  C    0.149024
    20  C    0.109798
    21  C    0.012351
    22  O   -0.249874
    23  C    0.061721
    24  N   -0.341057
    25  C    0.041786
    26  C   -0.028337
    27  C   -0.023909
    28  C    0.074615
    29  C    0.076049
    30  C    0.034626
    31  C   -0.005598
    32  N   -0.310410
    33  C    0.080081
    34  C   -0.169488
    35  C    0.007505
    36  C    0.082819
    37  C    0.127401
    38  C    0.044555
    39  O   -0.189159
    40  C   -0.005586
    41  C    0.217930
    42  O   -0.255810
    43  O   -0.302344
    44  C    0.157387
    45  H   -0.017249
    46  H   -0.016511
    47  H   -0.040123
    48  H    0.000772
    49  H   -0.003992
    50  H    0.025543
    51  H    0.017213
    52  H    0.017124
    53  H    0.011975
    54  H    0.040307
    55  H    0.019281
    56  H    0.019027
    57  H    0.005766
    58  H    0.027224
    59  H    0.041780
    60  H    0.037594
    61  H    0.035796
    62  H    0.033786
    63  H    0.016494
    64  H    0.009992
    65  H    0.023483
    66  H    0.012508
    67  H    0.005341
    68  H    0.006496
    69  H    0.006328
    70  H    0.007416
    71  H    0.020420
    72  H    0.030028
    73  H    0.047525
    74  H    0.010951
    75  H    0.046174
    76  H    0.036562
    77  H    0.045119
    78  H    0.047586
    79  H    0.050626
    80  Mg   0.835833
    81  C   -0.017101
    82  C   -0.087918
    83  C   -0.047321
    84  C   -0.065653
    85  N   -0.255880
    86  C   -0.047307
    87  C   -0.015251
    88  C   -0.091755
    89  C    0.047210
    90  C    0.118125
    91  C    0.062345
    92  C   -0.076954
    93  H    0.031333
    94  N   -0.423499
    95  C    0.163232
    96  C   -0.175476
    97  C   -0.009334
    98  C    0.152480
    99  C    0.100080
   100  C    0.014299
   101  O   -0.254776
   102  C    0.061635
   103  N   -0.350564
   104  C    0.037848
   105  C   -0.019777
   106  C   -0.034696
   107  C    0.088928
   108  C    0.072520
   109  C    0.034982
   110  C   -0.007478
   111  N   -0.324041
   112  C    0.078414
   113  C   -0.164493
   114  C    0.001748
   115  C    0.096124
   116  C    0.131661
   117  C    0.041120
   118  O   -0.189387
   119  C    0.001682
   120  C    0.211155
   121  O   -0.251910
   122  O   -0.304543
   123  C    0.152568
   124  H   -0.017886
   125  H   -0.017681
   126  H   -0.041680
   127  H    0.002362
   128  H   -0.008324
   129  H    0.021418
   130  H    0.007318
   131  H    0.032238
   132  H    0.012109
   133  H    0.035623
   134  H    0.024051
   135  H    0.018424
   136  H    0.009240
   137  H    0.023302
   138  H    0.038785
   139  H    0.036761
   140  H    0.035066
   141  H    0.034147
   142  H    0.013345
   143  H    0.013203
   144  H    0.022814
   145  H    0.009584
   146  H    0.010319
   147  H    0.005675
   148  H    0.003178
   149  H    0.010317
   150  H    0.017145
   151  H    0.030527
   152  H    0.045274
   153  H    0.008109
   154  H    0.044729
   155  H    0.036928
   156  H    0.043121
   157  H    0.050391
   158  H    0.052412
 Sum of Mulliken charges =  -0.00000

 Dipole moment (field-independent basis, Debye):
    X=             -6.3192    Y=              1.1900    Z=              5.4421  Tot=              8.4240
 Quadrupole moment (field-independent basis, Debye-Ang):
   XX=           -517.5958   YY=           -525.6828   ZZ=           -475.7641
   XY=             -4.7398   XZ=             -3.4553   YZ=            -28.6289

 Normal termination of Gaussian 16 at Fri Sep  3 17:46:57 2021.
