 Gaussian 16, Revision A.03,
 Gaussian 16:  ES64L-G16RevA.03 25-Dec-2016

 -----------------------------------
 #p cam-b3lyp/Def2SVP td=(nstates=5)
 -----------------------------------

 --------------------------------
 TDDFT excited states in gaussian
 --------------------------------
 Symbolic Z-matrix:
 Charge =  0 Multiplicity = 1

                         Standard orientation:
 ---------------------------------------------------------------------
 Center     Atomic      Atomic             Coordinates (Angstroms)
 Number     Number       Type             X           Y           Z
 ---------------------------------------------------------------------
      1         12           0       -6.667962   -0.424904    0.028201
      2          6           0       -6.684088    3.154182    0.074059
      3          6           0       -7.493014   -0.237960   -3.277461
      4          6           0       -7.104558   -3.565627    0.071329
      5          6           0       -6.967924   -0.323671    3.498855
      6          7           0       -7.014718    1.297586   -1.318437
      7          6           0       -6.930874    2.618236   -1.191842
      8          6           0       -7.055037    3.377856   -2.546440
      9          6           0       -7.856029    2.278943   -3.378786
     10          6           0       -7.401245    1.033879   -2.637901
     11          6           0       -9.370904    2.401442   -3.249760
     12          6           0       -5.659419    3.678790   -3.189417
     13          6           0       -5.673569    4.693476   -4.336398
     14          1           0       -4.546955    5.603020   -4.480686
     15          7           0       -6.737428   -1.729219   -1.453954
     16          6           0       -7.077842   -1.475764   -2.740486
     17          6           0       -6.976689   -2.768603   -3.451130
     18          6           0       -6.734091   -3.829145   -2.434030
     19          6           0       -6.876934   -3.077670   -1.213269
     20          6           0       -7.059267   -2.897122   -4.941235
     21          6           0       -6.433271   -5.290455   -2.544538
     22          8           0       -6.487567   -6.074236   -1.535918
     23          6           0       -6.156078   -5.803552   -3.898398
     24          7           0       -7.210770   -1.762561    1.536069
     25          6           0       -7.271255   -3.078152    1.302517
     26          6           0       -7.399581   -3.854114    2.579762
     27          6           0       -7.169161   -2.803756    3.760188
     28          6           0       -7.021160   -1.519390    2.907679
     29          6           0       -8.737358   -4.575900    2.792810
     30          6           0       -6.061547   -3.136390    4.791190
     31          6           0       -4.705166   -3.074283    4.125253
     32          7           0       -6.626720    1.112352    1.559929
     33          6           0       -6.794377    0.931709    2.940484
     34          6           0       -6.796273    2.272258    3.554480
     35          6           0       -6.645223    3.146134    2.479599
     36          6           0       -6.581055    2.400160    1.268113
     37          6           0       -6.984417    2.555845    4.936006
     38          6           0       -6.547838    4.537844    2.070312
     39          8           0       -6.449700    5.611922    2.665475
     40          6           0       -6.691490    4.605369    0.485815
     41          6           0       -5.590171    5.489158   -0.033149
     42          8           0       -4.395345    5.139088    0.051751
     43          8           0       -6.123561    6.486930   -0.754598
     44          6           0       -5.082634    7.384240   -1.323332
     45          1           0       -7.979694   -0.304569   -4.252472
     46          1           0       -7.150330   -4.654252    0.143711
     47          1           0       -6.972342   -0.218017    4.585257
     48          1           0       -7.631659    4.301764   -2.498228
     49          1           0       -7.532513    2.240424   -4.418774
     50          1           0       -9.648286    3.145111   -2.502808
     51          1           0       -9.718376    1.412613   -2.949805
     52          1           0       -9.827674    2.597955   -4.220081
     53          1           0       -5.313469    2.795950   -3.726980
     54          1           0       -4.946668    4.002758   -2.430234
     55          1           0       -6.614820    5.242801   -4.370996
     56          1           0       -5.645243    4.145007   -5.277981
     57          1           0       -7.406541   -1.974282   -5.404174
     58          1           0       -7.845368   -3.620950   -5.155311
     59          1           0       -6.119075   -3.235927   -5.376646
     60          1           0       -7.015465   -5.608326   -4.540185
     61          1           0       -5.874984   -6.848501   -3.772236
     62          1           0       -5.322301   -5.244447   -4.324034
     63          1           0       -6.641018   -4.633315    2.641837
     64          1           0       -8.064737   -2.667224    4.366798
     65          1           0       -8.635050   -5.649571    2.952402
     66          1           0       -9.373542   -4.367187    1.933159
     67          1           0       -9.342562   -4.184929    3.610298
     68          1           0       -6.187298   -4.150532    5.168878
     69          1           0       -6.054224   -2.462059    5.647621
     70          1           0       -4.613845   -4.058252    3.666672
     71          1           0       -3.923269   -2.915971    4.868748
     72          1           0       -4.689513   -2.337607    3.321792
     73          1           0       -6.248350    3.317126    5.194126
     74          1           0       -6.858621    1.660703    5.544693
     75          1           0       -8.013216    2.915555    4.930025
     76          1           0       -7.678766    5.016640    0.277815
     77          1           0       -5.314478    8.396077   -0.990666
     78          1           0       -5.064483    7.196299   -2.396996
     79          1           0       -4.073620    7.263601   -0.927509
     80         12           0        6.551443   -1.115888    0.189167
     81          6           0        7.341377    2.383437    0.287801
     82          6           0        6.511613   -0.858426   -3.211822
     83          6           0        5.417132   -4.077026    0.077506
     84          6           0        5.542461   -0.839920    3.513539
     85          7           0        6.897964    0.594831   -1.169361
     86          6           0        7.251414    1.862536   -1.019873
     87          6           0        7.601963    2.592946   -2.343950
     88          6           0        6.761461    1.672268   -3.356265
     89          6           0        6.747840    0.373985   -2.551935
     90          6           0        5.325803    2.135323   -3.540098
     91          6           0        9.137255    2.545555   -2.664354
     92          6           0        9.592451    3.496885   -3.773192
     93          1           0       10.907128    4.121992   -3.657757
     94          7           0        6.510537   -2.419946   -1.306273
     95          6           0        6.523422   -2.143907   -2.627223
     96          6           0        6.459068   -3.444973   -3.310778
     97          6           0        6.240953   -4.502564   -2.286740
     98          6           0        6.022186   -3.687596   -1.108580
     99          6           0        6.678832   -3.599997   -4.787629
    100          6           0        6.218634   -5.999403   -2.358682
    101          8           0        5.774435   -6.713462   -1.391404
    102          6           0        6.644888   -6.601040   -3.630632
    103          7           0        5.419516   -2.243268    1.519619
    104          6           0        5.106859   -3.522835    1.249654
    105          6           0        4.529985   -4.211214    2.463637
    106          6           0        4.745318   -3.192883    3.677812
    107          6           0        5.355668   -2.003086    2.904992
    108          6           0        3.051965   -4.590375    2.373788
    109          6           0        5.501914   -3.731901    4.922673
    110          6           0        6.944750   -4.011657    4.568606
    111          7           0        6.618488    0.414255    1.713045
    112          6           0        6.116476    0.328931    3.030159
    113          6           0        6.290964    1.658714    3.649580
    114          6           0        6.865869    2.437885    2.634262
    115          6           0        7.018973    1.654886    1.458270
    116          6           0        5.892000    2.021635    4.966856
    117          6           0        7.368259    3.747645    2.286610
    118          8           0        7.572375    4.791873    2.904394
    119          6           0        7.581989    3.805492    0.712643
    120          6           0        8.940659    4.394927    0.449753
    121          8           0        9.970160    3.789032    0.795610
    122          8           0        8.808490    5.465049   -0.355073
    123          6           0       10.130389    6.077695   -0.653528
    124          1           0        6.250677   -0.838512   -4.270314
    125          1           0        5.108346   -5.123735    0.127812
    126          1           0        5.343076   -0.699380    4.578048
    127          1           0        7.258195    3.618753   -2.401642
    128          1           0        7.290335    1.533333   -4.295594
    129          1           0        5.072781    2.940494   -2.866438
    130          1           0        4.709377    1.268284   -3.341792
    131          1           0        5.146087    2.400026   -4.586026
    132          1           0        9.375530    1.582357   -3.133618
    133          1           0        9.716846    2.719339   -1.778637
    134          1           0        8.829342    4.247942   -4.010948
    135          1           0        9.702655    2.924831   -4.697655
    136          1           0        6.652776   -2.631442   -5.302039
    137          1           0        5.813466   -4.141727   -5.184549
    138          1           0        7.585442   -4.162013   -5.021856
    139          1           0        6.011626   -6.232976   -4.434353
    140          1           0        6.646074   -7.679043   -3.458113
    141          1           0        7.663491   -6.264020   -3.853070
    142          1           0        5.062573   -5.129909    2.676829
    143          1           0        3.787823   -2.841927    4.089954
    144          1           0        2.867699   -5.669525    2.533674
    145          1           0        2.678083   -4.279894    1.407170
    146          1           0        2.395561   -4.055502    3.058073
    147          1           0        5.071375   -4.683159    5.244997
    148          1           0        5.469020   -3.058948    5.773004
    149          1           0        6.899751   -5.008060    4.118884
    150          1           0        7.565794   -4.009573    5.462104
    151          1           0        7.302580   -3.318329    3.798606
    152          1           0        6.701599    2.602410    5.388470
    153          1           0        5.673884    1.144236    5.572145
    154          1           0        4.992060    2.601521    4.745288
    155          1           0        6.782100    4.418625    0.295735
    156          1           0       10.067494    7.130780   -0.362464
    157          1           0       10.326112    5.860824   -1.720493
    158          1           0       10.979922    5.746723   -0.067696
 ---------------------------------------------------------------------

 SCF Done:  E(RCAM-B3LYP) =  -4069.81162043     A.U. after   19 cycles

 Excitation energies and oscillator strengths:

 Excited State   1:      Singlet-A      1.6655 eV  744.44 nm  f=0.0073  <S**2>=0.000
     309 -> 315       -0.10950
     310 -> 316        0.13184
     311 -> 313       -0.43721
     312 -> 314        0.52943
 This state for optimization and/or second-order correction.
 Total Energy, E(TD-HF/TD-DFT) =  -4069.75041525
 Copying the excited state density for this state as the 1-particle RhoCI density.

 Excited State   2:      Singlet-A      1.6893 eV  733.92 nm  f=0.7365  <S**2>=0.000
     309 -> 315        0.13731
     310 -> 316        0.11274
     311 -> 313        0.52823
     312 -> 314        0.43630

 Excited State   3:      Singlet-A      2.1847 eV  567.52 nm  f=0.0452  <S**2>=0.000
     309 -> 313       -0.19407
     310 -> 314        0.61311
     312 -> 316       -0.25944

 Excited State   4:      Singlet-A      2.1935 eV  565.24 nm  f=0.1445  <S**2>=0.000
     309 -> 313        0.61069
     310 -> 314        0.19229
     311 -> 315       -0.26612

 Excited State   5:      Singlet-A      2.6567 eV  466.69 nm  f=0.0000  <S**2>=0.000
     312 -> 313        0.70708

 The electronic state is 1-A.
 Alpha  occ. eigenvalues --  -46.87830 -46.87552 -19.26305 -19.26251 -19.19061
 Alpha  occ. eigenvalues --  -19.19041 -19.18838 -19.18628 -19.18190 -19.17931
 Alpha  occ. eigenvalues --  -14.42485 -14.42391 -14.41483 -14.41250 -14.39435
 Alpha  occ. eigenvalues --  -14.39246 -14.38619 -14.38487 -10.39101 -10.38989
 Alpha  occ. eigenvalues --  -10.35472 -10.35308 -10.34411 -10.34108 -10.31697
 Alpha  occ. eigenvalues --  -10.31669 -10.31440 -10.31199 -10.30944 -10.30924
 Alpha  occ. eigenvalues --  -10.30603 -10.30538 -10.30286 -10.30249 -10.30242
 Alpha  occ. eigenvalues --  -10.30038 -10.29952 -10.29779 -10.29661 -10.29333
 Alpha  occ. eigenvalues --  -10.29294 -10.29287 -10.28791 -10.28624 -10.28599
 Alpha  occ. eigenvalues --  -10.28588 -10.28396 -10.28298 -10.28157 -10.28043
 Alpha  occ. eigenvalues --  -10.27891 -10.27822 -10.27762 -10.27615 -10.27566
 Alpha  occ. eigenvalues --  -10.27539 -10.27522 -10.27482 -10.27436 -10.27412
 Alpha  occ. eigenvalues --  -10.27400 -10.27375 -10.27364 -10.27266 -10.27183
 Alpha  occ. eigenvalues --  -10.26932 -10.26758 -10.26613 -10.26433 -10.26354
 Alpha  occ. eigenvalues --  -10.26270 -10.26233 -10.26054 -10.26047 -10.25918
 Alpha  occ. eigenvalues --  -10.25865 -10.25825 -10.25705 -10.25462 -10.25276
 Alpha  occ. eigenvalues --  -10.24861 -10.24819 -10.24758 -10.24751 -10.24646
 Alpha  occ. eigenvalues --  -10.24581  -3.16573  -3.16301  -1.91455  -1.91183
 Alpha  occ. eigenvalues --   -1.91042  -1.90884  -1.90772  -1.90609  -1.16653
 Alpha  occ. eigenvalues --   -1.16545  -1.08647  -1.08537  -1.07239  -1.06882
 Alpha  occ. eigenvalues --   -1.06845  -1.06663  -1.04615  -1.04389  -1.03794
 Alpha  occ. eigenvalues --   -1.03555  -1.03266  -1.02929  -1.02444  -1.02001
 Alpha  occ. eigenvalues --   -0.92002  -0.91876  -0.89557  -0.89389  -0.89229
 Alpha  occ. eigenvalues --   -0.89054  -0.88323  -0.88115  -0.87898  -0.87709
 Alpha  occ. eigenvalues --   -0.87672  -0.87580  -0.87305  -0.87032  -0.85021
 Alpha  occ. eigenvalues --   -0.84903  -0.83974  -0.83772  -0.82998  -0.82848
 Alpha  occ. eigenvalues --   -0.82684  -0.82559  -0.81614  -0.81493  -0.80627
 Alpha  occ. eigenvalues --   -0.80341  -0.78829  -0.78536  -0.77256  -0.77045
 Alpha  occ. eigenvalues --   -0.76971  -0.76799  -0.75956  -0.75737  -0.74931
 Alpha  occ. eigenvalues --   -0.74695  -0.72807  -0.72589  -0.71704  -0.71473
 Alpha  occ. eigenvalues --   -0.69950  -0.69658  -0.68910  -0.68731  -0.67672
 Alpha  occ. eigenvalues --   -0.67498  -0.67260  -0.67113  -0.65324  -0.65173
 Alpha  occ. eigenvalues --   -0.64885  -0.64665  -0.64655  -0.64553  -0.64305
 Alpha  occ. eigenvalues --   -0.64100  -0.62324  -0.62176  -0.60474  -0.60243
 Alpha  occ. eigenvalues --   -0.59841  -0.59695  -0.59020  -0.58885  -0.58535
 Alpha  occ. eigenvalues --   -0.58319  -0.57610  -0.57442  -0.57340  -0.57133
 Alpha  occ. eigenvalues --   -0.56340  -0.56100  -0.56006  -0.55790  -0.55550
 Alpha  occ. eigenvalues --   -0.55372  -0.55357  -0.55141  -0.54554  -0.54386
 Alpha  occ. eigenvalues --   -0.53935  -0.53817  -0.53330  -0.53256  -0.53127
 Alpha  occ. eigenvalues --   -0.53045  -0.52946  -0.52804  -0.52790  -0.52587
 Alpha  occ. eigenvalues --   -0.52482  -0.52306  -0.51940  -0.51752  -0.51653
 Alpha  occ. eigenvalues --   -0.51568  -0.51228  -0.51094  -0.50606  -0.50397
 Alpha  occ. eigenvalues --   -0.50070  -0.49951  -0.49885  -0.49766  -0.49548
 Alpha  occ. eigenvalues --   -0.49395  -0.49244  -0.49131  -0.49101  -0.48998
 Alpha  occ. eigenvalues --   -0.48622  -0.48492  -0.48471  -0.48454  -0.48267
 Alpha  occ. eigenvalues --   -0.48247  -0.47729  -0.47500  -0.47328  -0.47022
 Alpha  occ. eigenvalues --   -0.46833  -0.46606  -0.46594  -0.46460  -0.46392
 Alpha  occ. eigenvalues --   -0.46192  -0.46167  -0.45973  -0.45849  -0.45710
 Alpha  occ. eigenvalues --   -0.45235  -0.45100  -0.44605  -0.44544  -0.44411
 Alpha  occ. eigenvalues --   -0.44377  -0.44181  -0.44125  -0.44048  -0.44026
 Alpha  occ. eigenvalues --   -0.43981  -0.43844  -0.43522  -0.43452  -0.43422
 Alpha  occ. eigenvalues --   -0.43283  -0.43059  -0.42830  -0.42792  -0.42729
 Alpha  occ. eigenvalues --   -0.42688  -0.42454  -0.42049  -0.41867  -0.41735
 Alpha  occ. eigenvalues --   -0.41574  -0.41560  -0.41364  -0.41174  -0.40910
 Alpha  occ. eigenvalues --   -0.40884  -0.40854  -0.40637  -0.40608  -0.40607
 Alpha  occ. eigenvalues --   -0.40390  -0.40281  -0.40144  -0.39487  -0.39328
 Alpha  occ. eigenvalues --   -0.38507  -0.38247  -0.37793  -0.37565  -0.37357
 Alpha  occ. eigenvalues --   -0.37302  -0.37162  -0.37100  -0.36739  -0.36671
 Alpha  occ. eigenvalues --   -0.36224  -0.36114  -0.34319  -0.34145  -0.33794
 Alpha  occ. eigenvalues --   -0.33761  -0.33218  -0.33067  -0.31368  -0.31186
 Alpha  occ. eigenvalues --   -0.31067  -0.30866  -0.30049  -0.29835  -0.29479
 Alpha  occ. eigenvalues --   -0.29351  -0.29225  -0.29095  -0.24113  -0.23926
 Alpha  occ. eigenvalues --   -0.21161  -0.21009
 Alpha virt. eigenvalues --   -0.08805  -0.08684  -0.01782  -0.01578  -0.00087
 Alpha virt. eigenvalues --    0.00068   0.02174   0.02323   0.03080   0.03323
 Alpha virt. eigenvalues --    0.04679   0.04833   0.05076   0.05268   0.06130

 Mulliken charges:
               1
     1  Mg   0.838635
     2  C   -0.002985
     3  C   -0.094301
     4  C   -0.045796
     5  C   -0.064023
     6  N   -0.256761
     7  C   -0.052507
     8  C   -0.013991
     9  C   -0.086969
    10  C    0.046276
    11  C    0.104808
    12  C    0.053548
    13  C   -0.071645
    14  H    0.035794
    15  N   -0.433155
    16  C    0.168387
    17  C   -0.177247
    18  C   -0.003945
    19  C    0.148691
    20  C    0.110221
    21  C    0.012416
    22  O   -0.249401
    23  C    0.062456
    24  N   -0.341113
    25  C    0.041171
    26  C   -0.028201
    27  C   -0.023980
    28  C    0.074791
    29  C    0.076129
    30  C    0.035144
    31  C   -0.004490
    32  N   -0.310510
    33  C    0.080389
    34  C   -0.169693
    35  C    0.008472
    36  C    0.082984
    37  C    0.127291
    38  C    0.046223
    39  O   -0.188082
    40  C   -0.005374
    41  C    0.212939
    42  O   -0.257083
    43  O   -0.304802
    44  C    0.157586
    45  H   -0.017663
    46  H   -0.016719
    47  H   -0.041480
    48  H    0.001043
    49  H   -0.004241
    50  H    0.025569
    51  H    0.016513
    52  H    0.016626
    53  H    0.010892
    54  H    0.044141
    55  H    0.018069
    56  H    0.017675
    57  H    0.005719
    58  H    0.026899
    59  H    0.039273
    60  H    0.037248
    61  H    0.035950
    62  H    0.031342
    63  H    0.016590
    64  H    0.009577
    65  H    0.023323
    66  H    0.012606
    67  H    0.004804
    68  H    0.006439
    69  H    0.004730
    70  H    0.008920
    71  H    0.017424
    72  H    0.029043
    73  H    0.047780
    74  H    0.009033
    75  H    0.046126
    76  H    0.035215
    77  H    0.043209
    78  H    0.046142
    79  H    0.053884
    80  Mg   0.838084
    81  C   -0.016780
    82  C   -0.087928
    83  C   -0.045538
    84  C   -0.064407
    85  N   -0.254542
    86  C   -0.049533
    87  C   -0.015136
    88  C   -0.090578
    89  C    0.045862
    90  C    0.114409
    91  C    0.062606
    92  C   -0.077718
    93  H    0.034634
    94  N   -0.423416
    95  C    0.162850
    96  C   -0.174995
    97  C   -0.007986
    98  C    0.152019
    99  C    0.099562
   100  C    0.015375
   101  O   -0.253244
   102  C    0.061294
   103  N   -0.349959
   104  C    0.037568
   105  C   -0.019859
   106  C   -0.034849
   107  C    0.089058
   108  C    0.073633
   109  C    0.034726
   110  C   -0.007623
   111  N   -0.324255
   112  C    0.078673
   113  C   -0.162617
   114  C    0.002570
   115  C    0.096331
   116  C    0.131342
   117  C    0.042832
   118  O   -0.187512
   119  C    0.000756
   120  C    0.211171
   121  O   -0.251218
   122  O   -0.305492
   123  C    0.152106
   124  H   -0.020214
   125  H   -0.015652
   126  H   -0.040282
   127  H   -0.000503
   128  H   -0.004796
   129  H    0.023264
   130  H    0.014618
   131  H    0.015554
   132  H    0.013768
   133  H    0.037661
   134  H    0.020754
   135  H    0.019311
   136  H    0.008410
   137  H    0.025524
   138  H    0.039463
   139  H    0.037883
   140  H    0.036166
   141  H    0.033759
   142  H    0.014147
   143  H    0.012740
   144  H    0.025002
   145  H    0.011987
   146  H    0.005845
   147  H    0.006039
   148  H    0.003639
   149  H    0.010820
   150  H    0.017732
   151  H    0.030142
   152  H    0.045832
   153  H    0.008306
   154  H    0.048442
   155  H    0.035742
   156  H    0.043920
   157  H    0.049263
   158  H    0.053439
 Sum of Mulliken charges =  -0.00000

 Dipole moment (field-independent basis, Debye):
    X=             -3.4786    Y=             -2.1367    Z=             -7.9048  Tot=              8.8968
 Quadrupole moment (field-independent basis, Debye-Ang):
   XX=           -507.8857   YY=           -554.5915   ZZ=           -446.3918
   XY=             -3.3927   XZ=            -17.1958   YZ=            -41.6792

 Normal termination of Gaussian 16 at Sat Sep 11 07:28:12 2021.
