 Gaussian 16, Revision A.03,
 Gaussian 16:  ES64L-G16RevA.03 25-Dec-2016

 -----------------------------------
 #p cam-b3lyp/Def2SVP td=(nstates=5)
 -----------------------------------

 --------------------------------
 TDDFT excited states in gaussian
 --------------------------------
 Symbolic Z-matrix:
 Charge =  0 Multiplicity = 1

                         Standard orientation:
 ---------------------------------------------------------------------
 Center     Atomic      Atomic             Coordinates (Angstroms)
 Number     Number       Type             X           Y           Z
 ---------------------------------------------------------------------
      1         12           0       -4.666386   -0.113699    0.221656
      2          6           0       -4.323182    3.189281    1.557598
      3          6           0       -5.571990    1.335639   -2.731709
      4          6           0       -5.413204   -3.005809   -0.843515
      5          6           0       -4.845616   -1.264304    3.506415
      6          7           0       -4.881314    2.004028   -0.386359
      7          6           0       -4.661932    3.175365    0.202718
      8          6           0       -4.751999    4.385079   -0.774960
      9          6           0       -5.684571    3.735934   -1.893403
     10          6           0       -5.333500    2.273519   -1.683599
     11          6           0       -7.174811    3.926042   -1.629684
     12          6           0       -3.354165    4.785220   -1.356063
     13          6           0       -3.302809    6.146530   -2.055741
     14          1           0       -2.096000    6.950591   -1.935547
     15          7           0       -4.912396   -0.775439   -1.623454
     16          6           0       -5.265988   -0.042254   -2.706366
     17          6           0       -5.316948   -0.989370   -3.840850
     18          6           0       -5.149777   -2.364364   -3.293548
     19          6           0       -5.178382   -2.102294   -1.877258
     20          6           0       -5.458702   -0.556965   -5.267974
     21          6           0       -5.000170   -3.703412   -3.943703
     22          8           0       -5.100856   -4.794456   -3.284871
     23          6           0       -4.818302   -3.706771   -5.406561
     24          7           0       -5.292593   -1.860928    1.177004
     25          6           0       -5.491598   -2.990377    0.488725
     26          6           0       -5.656691   -4.166342    1.405124
     27          6           0       -5.285475   -3.642889    2.867297
     28          6           0       -5.036655   -2.152447    2.528267
     29          6           0       -7.052572   -4.804215    1.430548
     30          6           0       -4.184843   -4.418707    3.633544
     31          6           0       -2.850628   -4.228402    2.947431
     32          7           0       -4.423603    0.748196    2.198835
     33          6           0       -4.565053    0.089632    3.428860
     34          6           0       -4.413647    1.108216    4.484147
     35          6           0       -4.209813    2.299119    3.789852
     36          6           0       -4.258609    2.045182    2.389342
     37          6           0       -4.529032    0.881392    5.884030
     38          6           0       -3.986685    3.731168    3.905202
     39          8           0       -3.763025    4.501402    4.840193
     40          6           0       -4.172541    4.384839    2.465064
     41          6           0       -3.005225    5.304076    2.229084
     42          8           0       -1.849307    4.850889    2.103216
     43          8           0       -3.458581    6.536520    1.953237
     44          6           0       -2.351535    7.491423    1.679807
     45          1           0       -6.093260    1.670112   -3.630790
     46          1           0       -5.565283   -4.037879   -1.166224
     47          1           0       -4.805339   -1.563200    4.555459
     48          1           0       -5.231570    5.271161   -0.358674
     49          1           0       -5.399338    4.054048   -2.895983
     50          1           0       -7.352870    4.365098   -0.648131
     51          1           0       -7.609806    2.927930   -1.684856
     52          1           0       -7.639884    4.500317   -2.431365
     53          1           0       -3.115255    4.134971   -2.197585
     54          1           0       -2.589117    4.749813   -0.579678
     55          1           0       -4.185049    6.745362   -1.827789
     56          1           0       -3.359030    5.979959   -3.131516
     57          1           0       -5.726342    0.496287   -5.342622
     58          1           0       -6.319558   -1.085614   -5.676836
     59          1           0       -4.571227   -0.788675   -5.857066
     60          1           0       -5.673590   -3.220932   -5.876659
     61          1           0       -4.639258   -4.744702   -5.684936
     62          1           0       -3.946584   -3.100847   -5.655383
     63          1           0       -4.978252   -4.973437    1.131731
     64          1           0       -6.143427   -3.664959    3.539684
     65          1           0       -7.053152   -5.866398    1.184640
     66          1           0       -7.691378   -4.244440    0.748000
     67          1           0       -7.589694   -4.691190    2.371899
     68          1           0       -4.399429   -5.486816    3.626984
     69          1           0       -4.083260   -4.107217    4.673210
     70          1           0       -2.872575   -4.980500    2.159587
     71          1           0       -2.033866   -4.417310    3.644874
     72          1           0       -2.786640   -3.252889    2.464974
     73          1           0       -3.712808    1.432748    6.350670
     74          1           0       -4.474306   -0.181384    6.118799
     75          1           0       -5.516395    1.301105    6.075890
     76          1           0       -5.119797    4.922830    2.484889
     77          1           0       -2.470505    8.326872    2.369810
     78          1           0       -2.385980    7.708246    0.612003
     79          1           0       -1.347709    7.152450    1.938205
     80         12           0        4.224683   -1.321136   -0.442662
     81          6           0        6.541740    1.393034   -0.063693
     82          6           0        2.016269    0.939982   -1.725181
     83          6           0        2.010661   -3.592813   -0.372171
     84          6           0        6.136184   -3.093021    1.870836
     85          7           0        4.375932    0.856585   -0.798934
     86          6           0        5.326890    1.769941   -0.673244
     87          6           0        4.984684    3.145910   -1.305040
     88          6           0        3.382964    3.038781   -1.261580
     89          6           0        3.238529    1.518796   -1.299550
     90          6           0        2.781128    3.543409    0.039368
     91          6           0        5.511983    3.275391   -2.777180
     92          6           0        5.486447    4.695459   -3.346859
     93          1           0        6.556870    5.101005   -4.253608
     94          7           0        2.491503   -1.455409   -1.400072
     95          6           0        1.741210   -0.437449   -1.871333
     96          6           0        0.552783   -1.059600   -2.475263
     97          6           0        0.583219   -2.517134   -2.176264
     98          6           0        1.710105   -2.576221   -1.267018
     99          6           0       -0.428358   -0.294345   -3.314999
    100          6           0       -0.269677   -3.665557   -2.623339
    101          8           0       -0.209749   -4.811265   -2.051862
    102          6           0       -1.243468   -3.383429   -3.688052
    103          7           0        3.968475   -3.003725    0.751328
    104          6           0        2.949387   -3.854426    0.537597
    105          6           0        3.124888   -5.126479    1.332242
    106          6           0        4.602168   -5.052818    1.940330
    107          6           0        5.010526   -3.648540    1.443689
    108          6           0        2.120088   -5.348785    2.462445
    109          6           0        5.547850   -6.247497    1.638515
    110          6           0        5.882656   -6.281166    0.164690
    111          7           0        6.110148   -1.024412    0.569780
    112          6           0        6.713045   -1.879721    1.517967
    113          6           0        7.928159   -1.197836    2.008820
    114          6           0        7.935558    0.026522    1.323697
    115          6           0        6.794078    0.110886    0.481435
    116          6           0        8.820271   -1.697980    2.998832
    117          6           0        8.643789    1.271249    1.129427
    118          8           0        9.721498    1.726167    1.510659
    119          6           0        7.705935    2.264864    0.317294
    120          6           0        8.520969    2.869892   -0.792745
    121          8           0        8.953868    2.160552   -1.717975
    122          8           0        8.471025    4.210945   -0.695567
    123          6           0        9.255557    4.856587   -1.781603
    124          1           0        1.172193    1.600025   -1.927077
    125          1           0        1.335707   -4.451654   -0.390184
    126          1           0        6.838053   -3.620965    2.519947
    127          1           0        5.315649    4.003776   -0.732066
    128          1           0        2.933061    3.486699   -2.143806
    129          1           0        3.540779    3.781987    0.768862
    130          1           0        2.147908    2.743529    0.400312
    131          1           0        2.116050    4.389433   -0.156141
    132          1           0        4.800973    2.787665   -3.456399
    133          1           0        6.500629    2.868571   -2.864945
    134          1           0        5.338159    5.450510   -2.565286
    135          1           0        4.607036    4.796576   -3.987507
    136          1           0       -0.280267    0.788483   -3.220314
    137          1           0       -1.421291   -0.471094   -2.887539
    138          1           0       -0.430504   -0.616045   -4.358629
    139          1           0       -1.916158   -2.593638   -3.362190
    140          1           0       -1.695706   -4.346381   -3.933133
    141          1           0       -0.705292   -2.998071   -4.561251
    142          1           0        3.051800   -5.996252    0.690961
    143          1           0        4.588612   -5.005872    3.039174
    144          1           0        1.565437   -6.301829    2.372177
    145          1           0        1.435902   -4.510879    2.480618
    146          1           0        2.541212   -5.324986    3.466088
    147          1           0        5.048201   -7.192606    1.864957
    148          1           0        6.468844   -6.224782    2.211446
    149          1           0        5.025091   -6.802282   -0.271338
    150          1           0        6.806544   -6.830163   -0.005819
    151          1           0        5.903210   -5.269710   -0.257424
    152          1           0        9.822735   -1.504091    2.641083
    153          1           0        8.659878   -2.758913    3.179029
    154          1           0        8.523668   -1.086697    3.855351
    155          1           0        7.343687    3.018959    1.017075
    156          1           0        9.980478    5.520597   -1.300695
    157          1           0        8.509764    5.325276   -2.450826
    158          1           0        9.907616    4.224305   -2.372784
 ---------------------------------------------------------------------

 SCF Done:  E(RCAM-B3LYP) =  -4069.81292482     A.U. after   19 cycles

 Excitation energies and oscillator strengths:

 Excited State   1:      Singlet-A      1.6386 eV  756.63 nm  f=0.1955  <S**2>=0.000
     309 -> 315       -0.11666
     310 -> 316       -0.11631
     311 -> 313       -0.48518
     312 -> 314        0.48543
 This state for optimization and/or second-order correction.
 Total Energy, E(TD-HF/TD-DFT) =  -4069.75270593
 Copying the excited state density for this state as the 1-particle RhoCI density.

 Excited State   2:      Singlet-A      1.7005 eV  729.12 nm  f=0.5551  <S**2>=0.000
     309 -> 315        0.12952
     310 -> 316       -0.12643
     311 -> 313        0.48388
     312 -> 314        0.48328

 Excited State   3:      Singlet-A      2.1788 eV  569.06 nm  f=0.0051  <S**2>=0.000
     309 -> 313        0.38010
     310 -> 314        0.52091
     311 -> 315       -0.15706
     312 -> 316        0.21533

 Excited State   4:      Singlet-A      2.1953 eV  564.76 nm  f=0.1667  <S**2>=0.000
     309 -> 313        0.51476
     310 -> 314       -0.37504
     311 -> 315       -0.22791
     312 -> 316       -0.16419

 Excited State   5:      Singlet-A      2.2384 eV  553.90 nm  f=0.0006  <S**2>=0.000
     312 -> 313        0.70358

 The electronic state is 1-A.
 Alpha  occ. eigenvalues --  -46.88124 -46.87417 -19.26681 -19.26171 -19.19438
 Alpha  occ. eigenvalues --  -19.19070 -19.18976 -19.18494 -19.18420 -19.17830
 Alpha  occ. eigenvalues --  -14.42791 -14.42232 -14.41733 -14.41129 -14.39784
 Alpha  occ. eigenvalues --  -14.39111 -14.38903 -14.38361 -10.39485 -10.38900
 Alpha  occ. eigenvalues --  -10.35693 -10.35115 -10.34717 -10.34007 -10.32079
 Alpha  occ. eigenvalues --  -10.31740 -10.31607 -10.31285 -10.31029 -10.30912
 Alpha  occ. eigenvalues --  -10.30816 -10.30762 -10.30484 -10.30168 -10.30148
 Alpha  occ. eigenvalues --  -10.30125 -10.29954 -10.29917 -10.29679 -10.29588
 Alpha  occ. eigenvalues --  -10.29197 -10.29176 -10.29169 -10.29059 -10.28713
 Alpha  occ. eigenvalues --  -10.28500 -10.28490 -10.28421 -10.28161 -10.28128
 Alpha  occ. eigenvalues --  -10.28062 -10.27944 -10.27837 -10.27766 -10.27756
 Alpha  occ. eigenvalues --  -10.27737 -10.27625 -10.27535 -10.27506 -10.27390
 Alpha  occ. eigenvalues --  -10.27347 -10.27275 -10.27255 -10.27245 -10.27239
 Alpha  occ. eigenvalues --  -10.27214 -10.26821 -10.26672 -10.26550 -10.26482
 Alpha  occ. eigenvalues --  -10.26302 -10.26204 -10.26098 -10.26095 -10.25992
 Alpha  occ. eigenvalues --  -10.25711 -10.25649 -10.25521 -10.25373 -10.25282
 Alpha  occ. eigenvalues --  -10.25163 -10.25048 -10.24638 -10.24589 -10.24580
 Alpha  occ. eigenvalues --  -10.24463  -3.16869  -3.16167  -1.91750  -1.91336
 Alpha  occ. eigenvalues --   -1.91180  -1.91049  -1.90638  -1.90475  -1.17033
 Alpha  occ. eigenvalues --   -1.16463  -1.08953  -1.08441  -1.07448  -1.07052
 Alpha  occ. eigenvalues --   -1.06760  -1.06662  -1.04929  -1.04231  -1.04066
 Alpha  occ. eigenvalues --   -1.03556  -1.03420  -1.02808  -1.02720  -1.01875
 Alpha  occ. eigenvalues --   -0.92304  -0.91746  -0.89731  -0.89573  -0.89291
 Alpha  occ. eigenvalues --   -0.88823  -0.88462  -0.88175  -0.88032  -0.88006
 Alpha  occ. eigenvalues --   -0.87607  -0.87569  -0.87438  -0.86885  -0.85356
 Alpha  occ. eigenvalues --   -0.84719  -0.84093  -0.83701  -0.83216  -0.82975
 Alpha  occ. eigenvalues --   -0.82688  -0.82373  -0.81927  -0.81385  -0.80924
 Alpha  occ. eigenvalues --   -0.80215  -0.79119  -0.78403  -0.77529  -0.77240
 Alpha  occ. eigenvalues --   -0.76905  -0.76659  -0.76259  -0.75546  -0.75093
 Alpha  occ. eigenvalues --   -0.74609  -0.73070  -0.72462  -0.71961  -0.71320
 Alpha  occ. eigenvalues --   -0.70005  -0.69579  -0.69223  -0.68557  -0.67955
 Alpha  occ. eigenvalues --   -0.67620  -0.67376  -0.66969  -0.65660  -0.65168
 Alpha  occ. eigenvalues --   -0.65012  -0.64929  -0.64539  -0.64460  -0.64416
 Alpha  occ. eigenvalues --   -0.64001  -0.62629  -0.62078  -0.60726  -0.60170
 Alpha  occ. eigenvalues --   -0.60126  -0.59505  -0.59281  -0.58801  -0.58763
 Alpha  occ. eigenvalues --   -0.58200  -0.57931  -0.57557  -0.57337  -0.57030
 Alpha  occ. eigenvalues --   -0.56623  -0.56347  -0.55970  -0.55825  -0.55681
 Alpha  occ. eigenvalues --   -0.55567  -0.55217  -0.55057  -0.54765  -0.54303
 Alpha  occ. eigenvalues --   -0.54288  -0.53641  -0.53579  -0.53564  -0.53250
 Alpha  occ. eigenvalues --   -0.53141  -0.52989  -0.52896  -0.52657  -0.52516
 Alpha  occ. eigenvalues --   -0.52354  -0.52221  -0.52193  -0.51999  -0.51669
 Alpha  occ. eigenvalues --   -0.51484  -0.51391  -0.50978  -0.50907  -0.50325
 Alpha  occ. eigenvalues --   -0.50232  -0.50147  -0.49854  -0.49745  -0.49616
 Alpha  occ. eigenvalues --   -0.49521  -0.49427  -0.49176  -0.48943  -0.48921
 Alpha  occ. eigenvalues --   -0.48778  -0.48730  -0.48660  -0.48296  -0.48190
 Alpha  occ. eigenvalues --   -0.48070  -0.47990  -0.47581  -0.47342  -0.47080
 Alpha  occ. eigenvalues --   -0.46921  -0.46891  -0.46645  -0.46479  -0.46423
 Alpha  occ. eigenvalues --   -0.46267  -0.46141  -0.46041  -0.45882  -0.45599
 Alpha  occ. eigenvalues --   -0.45389  -0.45018  -0.44893  -0.44799  -0.44440
 Alpha  occ. eigenvalues --   -0.44374  -0.44305  -0.44299  -0.44181  -0.43879
 Alpha  occ. eigenvalues --   -0.43826  -0.43816  -0.43688  -0.43672  -0.43347
 Alpha  occ. eigenvalues --   -0.43317  -0.43133  -0.43055  -0.42808  -0.42732
 Alpha  occ. eigenvalues --   -0.42671  -0.42353  -0.42229  -0.42008  -0.41858
 Alpha  occ. eigenvalues --   -0.41759  -0.41442  -0.41429  -0.41224  -0.41194
 Alpha  occ. eigenvalues --   -0.41122  -0.40740  -0.40707  -0.40668  -0.40464
 Alpha  occ. eigenvalues --   -0.40404  -0.40265  -0.39975  -0.39513  -0.39253
 Alpha  occ. eigenvalues --   -0.38678  -0.38171  -0.38151  -0.37647  -0.37541
 Alpha  occ. eigenvalues --   -0.37428  -0.37059  -0.37050  -0.36939  -0.36587
 Alpha  occ. eigenvalues --   -0.36475  -0.36005  -0.34598  -0.34171  -0.34014
 Alpha  occ. eigenvalues --   -0.33666  -0.33504  -0.32936  -0.31580  -0.31337
 Alpha  occ. eigenvalues --   -0.30975  -0.30720  -0.30353  -0.29804  -0.29735
 Alpha  occ. eigenvalues --   -0.29646  -0.29096  -0.28979  -0.24394  -0.23792
 Alpha  occ. eigenvalues --   -0.21449  -0.20876
 Alpha virt. eigenvalues --   -0.09104  -0.08553  -0.02068  -0.01445  -0.00397
 Alpha virt. eigenvalues --    0.00245   0.01898   0.02406   0.02480   0.03463
 Alpha virt. eigenvalues --    0.04353   0.04689   0.04986   0.05361   0.05720

 Mulliken charges:
               1
     1  Mg   0.836529
     2  C   -0.004157
     3  C   -0.096809
     4  C   -0.042700
     5  C   -0.062866
     6  N   -0.256912
     7  C   -0.053179
     8  C   -0.013507
     9  C   -0.086426
    10  C    0.044529
    11  C    0.104636
    12  C    0.053473
    13  C   -0.071548
    14  H    0.034246
    15  N   -0.435930
    16  C    0.167134
    17  C   -0.182604
    18  C   -0.006572
    19  C    0.147928
    20  C    0.111221
    21  C    0.011931
    22  O   -0.245267
    23  C    0.064485
    24  N   -0.340662
    25  C    0.040113
    26  C   -0.029025
    27  C   -0.024426
    28  C    0.076588
    29  C    0.075756
    30  C    0.034648
    31  C   -0.006679
    32  N   -0.311098
    33  C    0.081386
    34  C   -0.168737
    35  C    0.008595
    36  C    0.083687
    37  C    0.127149
    38  C    0.046431
    39  O   -0.187445
    40  C   -0.005459
    41  C    0.213384
    42  O   -0.258972
    43  O   -0.304191
    44  C    0.157465
    45  H   -0.017304
    46  H   -0.014508
    47  H   -0.040247
    48  H    0.001817
    49  H   -0.004617
    50  H    0.025890
    51  H    0.017271
    52  H    0.017201
    53  H    0.007987
    54  H    0.041859
    55  H    0.019904
    56  H    0.018164
    57  H    0.005726
    58  H    0.028234
    59  H    0.036988
    60  H    0.037672
    61  H    0.038368
    62  H    0.027007
    63  H    0.021177
    64  H    0.009608
    65  H    0.024655
    66  H    0.011992
    67  H    0.004779
    68  H    0.007105
    69  H    0.003663
    70  H    0.015532
    71  H    0.017894
    72  H    0.029456
    73  H    0.048202
    74  H    0.010080
    75  H    0.046683
    76  H    0.035835
    77  H    0.044381
    78  H    0.045943
    79  H    0.052769
    80  Mg   0.838335
    81  C   -0.016911
    82  C   -0.087569
    83  C   -0.045849
    84  C   -0.064975
    85  N   -0.254783
    86  C   -0.048826
    87  C   -0.015231
    88  C   -0.090730
    89  C    0.045965
    90  C    0.114239
    91  C    0.062778
    92  C   -0.077023
    93  H    0.033392
    94  N   -0.423521
    95  C    0.163565
    96  C   -0.177638
    97  C   -0.009269
    98  C    0.151692
    99  C    0.097463
   100  C    0.019134
   101  O   -0.251033
   102  C    0.045733
   103  N   -0.349842
   104  C    0.037596
   105  C   -0.019924
   106  C   -0.034779
   107  C    0.088822
   108  C    0.073154
   109  C    0.034910
   110  C   -0.007583
   111  N   -0.324051
   112  C    0.078421
   113  C   -0.163393
   114  C    0.002294
   115  C    0.096194
   116  C    0.131478
   117  C    0.042201
   118  O   -0.188540
   119  C    0.000987
   120  C    0.211103
   121  O   -0.251511
   122  O   -0.305346
   123  C    0.152303
   124  H   -0.017376
   125  H   -0.015722
   126  H   -0.041081
   127  H   -0.000579
   128  H   -0.006523
   129  H    0.021775
   130  H    0.020927
   131  H    0.019853
   132  H    0.013030
   133  H    0.037079
   134  H    0.020948
   135  H    0.018505
   136  H    0.007667
   137  H    0.033748
   138  H    0.034850
   139  H    0.045488
   140  H    0.043901
   141  H    0.028915
   142  H    0.014192
   143  H    0.012055
   144  H    0.024047
   145  H    0.012730
   146  H    0.004862
   147  H    0.005583
   148  H    0.003401
   149  H    0.010803
   150  H    0.017459
   151  H    0.030409
   152  H    0.045453
   153  H    0.007984
   154  H    0.047113
   155  H    0.035841
   156  H    0.043561
   157  H    0.049225
   158  H    0.053135
 Sum of Mulliken charges =  -0.00000

 Dipole moment (field-independent basis, Debye):
    X=             -6.7237    Y=              1.9392    Z=             -4.1625  Tot=              8.1422
 Quadrupole moment (field-independent basis, Debye-Ang):
   XX=           -549.7892   YY=           -493.6537   ZZ=           -493.1124
   XY=            -17.8442   XZ=             13.9151   YZ=            -57.1507

 Normal termination of Gaussian 16 at Fri Sep 10 06:02:46 2021.
