 Gaussian 16, Revision A.03,
 Gaussian 16:  ES64L-G16RevA.03 25-Dec-2016

 -----------------------------------
 #p cam-b3lyp/Def2SVP td=(nstates=5)
 -----------------------------------

 --------------------------------
 TDDFT excited states in gaussian
 --------------------------------
 Symbolic Z-matrix:
 Charge =  0 Multiplicity = 1

                         Standard orientation:
 ---------------------------------------------------------------------
 Center     Atomic      Atomic             Coordinates (Angstroms)
 Number     Number       Type             X           Y           Z
 ---------------------------------------------------------------------
      1         12           0        7.849918   -0.636731   -0.454625
      2          6           0        8.077805    2.724495    0.754687
      3          6           0        8.888546   -1.659250    2.630626
      4          6           0        8.093825   -3.572219   -1.629378
      5          6           0        7.939131    0.675018   -3.682165
      6          7           0        8.382386    0.485273    1.377922
      7          6           0        8.370199    1.767393    1.728908
      8          6           0        8.623646    1.994153    3.249342
      9          6           0        9.407463    0.645179    3.577819
     10          6           0        8.833655   -0.241077    2.486390
     11          6           0       10.916006    0.753485    3.380159
     12          6           0        7.291254    2.095816    4.065508
     13          6           0        7.437496    2.638187    5.490219
     14          1           0        6.378614    3.475906    6.032753
     15          7           0        7.933009   -2.382481    0.466410
     16          6           0        8.367311   -2.612187    1.728908
     17          6           0        8.233158   -4.068529    1.947432
     18          6           0        7.864645   -4.691879    0.646000
     19          6           0        7.976156   -3.562604   -0.241514
     20          6           0        8.400329   -4.718458    3.286609
     21          6           0        7.484168   -6.086632    0.261246
     22          8           0        7.428565   -6.464436   -0.958896
     23          6           0        7.261379   -7.035555    1.367118
     24          7           0        8.216753   -1.372430   -2.373431
     25          6           0        8.212619   -2.686847   -2.620969
     26          6           0        8.214544   -2.964878   -4.094954
     27          6           0        7.974621   -1.557715   -4.810553
     28          6           0        7.957191   -0.653573   -3.553376
     29          6           0        9.490789   -3.609997   -4.652657
     30          6           0        6.787118   -1.466139   -5.801446
     31          6           0        5.480919   -1.597182   -5.050601
     32          7           0        7.805838    1.343325   -1.342589
     33          6           0        7.876232    1.656960   -2.707636
     34          6           0        7.920366    3.127116   -2.811378
     35          6           0        7.889099    3.569013   -1.490168
     36          6           0        7.855721    2.445470   -0.615624
     37          6           0        8.038954    3.874334   -4.016382
     38          6           0        7.900988    4.728508   -0.613078
     39          8           0        7.830649    5.946341   -0.784628
     40          6           0        8.146630    4.226361    0.878007
     41          6           0        7.134689    4.906636    1.759205
     42          8           0        5.918054    4.650312    1.652130
     43          8           0        7.770769    5.565919    2.739659
     44          6           0        6.822898    6.239166    3.667255
     45          1           0        9.430009   -2.082975    3.478692
     46          1           0        8.069633   -4.565782   -2.081799
     47          1           0        7.882350    1.157830   -4.659469
     48          1           0        9.250532    2.855101    3.482167
     49          1           0        9.147481    0.252454    4.560621
     50          1           0       11.190533    1.703298    2.921453
     51          1           0       11.184228   -0.076637    2.726363
     52          1           0       11.443161    0.578397    4.318364
     53          1           0        6.927055    1.092308    4.285489
     54          1           0        6.553415    2.691515    3.526932
     55          1           0        8.410328    3.107230    5.640236
     56          1           0        7.434898    1.793486    6.179183
     57          1           0        8.830428   -4.031429    4.014312
     58          1           0        9.153383   -5.497661    3.170583
     59          1           0        7.470391   -5.156970    3.648898
     60          1           0        8.169150   -7.109436    1.966318
     61          1           0        6.910818   -7.958090    0.905721
     62          1           0        6.490705   -6.634927    2.026290
     63          1           0        7.408222   -3.645332   -4.365606
     64          1           0        8.837339   -1.246207   -5.399921
     65          1           0        9.314547   -4.553674   -5.169490
     66          1           0       10.190541   -3.740681   -3.827697
     67          1           0       10.066374   -2.976140   -5.326708
     68          1           0        6.828099   -2.284846   -6.519072
     69          1           0        6.767042   -0.532681   -6.364034
     70          1           0        5.359423   -2.676002   -4.959943
     71          1           0        4.665231   -1.159513   -5.627064
     72          1           0        5.559445   -1.192179   -4.041496
     73          1           0        7.335257    4.702411   -3.932314
     74          1           0        7.822109    3.257161   -4.887977
     75          1           0        9.085856    4.173259   -3.966419
     76          1           0        9.167811    4.503460    1.137865
     77          1           0        7.093889    7.294698    3.692730
     78          1           0        6.860270    5.684411    4.604941
     79          1           0        5.785818    6.300902    3.335602
     80         12           0       -8.012370   -0.793556    0.331549
     81          6           0       -7.919781    2.392063   -1.318392
     82          6           0       -7.010976    0.814207    3.168257
     83          6           0       -7.648719   -3.635457    1.694925
     84          6           0       -7.884776   -2.274104   -2.820811
     85          7           0       -7.557325    1.330931    0.745989
     86          6           0       -7.616676    2.460835    0.057408
     87          6           0       -7.414180    3.743625    0.907711
     88          6           0       -6.587027    3.098163    2.123478
     89          6           0       -7.104890    1.663923    2.037211
     90          6           0       -5.086005    3.079029    1.887026
     91          6           0       -8.772872    4.356049    1.398526
     92          6           0       -8.671014    5.772259    1.969271
     93          1           0       -9.775034    6.698636    1.733834
     94          7           0       -7.896729   -1.292812    2.248828
     95          6           0       -7.491201   -0.509901    3.270523
     96          6           0       -7.568115   -1.349646    4.475959
     97          6           0       -7.894621   -2.740353    4.058776
     98          6           0       -7.803539   -2.611668    2.618206
     99          6           0       -7.419618   -0.796754    5.863647
    100          6           0       -8.220685   -3.983782    4.829333
    101          8           0       -8.237281   -5.137226    4.270669
    102          6           0       -8.428274   -3.823076    6.275908
    103          7           0       -7.584797   -2.679390   -0.432085
    104          6           0       -7.534458   -3.755778    0.372131
    105          6           0       -7.486398   -5.034283   -0.430060
    106          6           0       -7.760058   -4.601414   -1.945095
    107          6           0       -7.833651   -3.069681   -1.761285
    108          6           0       -6.176683   -5.818641   -0.353796
    109          6           0       -8.927438   -5.314511   -2.680872
    110          6           0      -10.247784   -4.915987   -2.061792
    111          7           0       -8.104650   -0.106016   -1.714629
    112          6           0       -8.006310   -0.891841   -2.883770
    113          6           0       -8.008111    0.035966   -4.033382
    114          6           0       -8.084782    1.308591   -3.447669
    115          6           0       -8.107367    1.183780   -2.032256
    116          6           0       -7.896346   -0.336025   -5.402772
    117          6           0       -8.141025    2.729680   -3.704615
    118          8           0       -8.239840    3.426773   -4.713595
    119          6           0       -7.909125    3.500597   -2.334109
    120          6           0       -8.962621    4.567858   -2.217496
    121          8           0      -10.162671    4.261723   -2.104464
    122          8           0       -8.364438    5.760000   -2.040430
    123          6           0       -9.368547    6.849103   -1.908367
    124          1           0       -6.482213    1.179468    4.049108
    125          1           0       -7.629940   -4.645829    2.109981
    126          1           0       -7.946545   -2.662158   -3.839762
    127          1           0       -6.827457    4.518244    0.428652
    128          1           0       -6.865361    3.547572    3.073167
    129          1           0       -4.831686    3.396030    0.886544
    130          1           0       -4.775581    2.055233    2.049908
    131          1           0       -4.576494    3.673585    2.650719
    132          1           0       -9.106247    3.816085    2.294095
    133          1           0       -9.505726    4.333851    0.615545
    134          1           0       -7.712605    6.246791    1.725908
    135          1           0       -8.668673    5.707455    3.060051
    136          1           0       -7.022195    0.225619    5.848914
    137          1           0       -6.639716   -1.384205    6.360148
    138          1           0       -8.340579   -0.868034    6.446252
    139          1           0       -7.534637   -3.394785    6.723598
    140          1           0       -8.738667   -4.805316    6.637482
    141          1           0       -9.237030   -3.101168    6.435212
    142          1           0       -8.264265   -5.718532   -0.114113
    143          1           0       -6.890373   -4.799248   -2.588806
    144          1           0       -6.311028   -6.859465   -0.003502
    145          1           0       -5.495876   -5.283911    0.295133
    146          1           0       -5.615008   -5.871244   -1.284895
    147          1           0       -8.843847   -6.397710   -2.563180
    148          1           0       -8.957570   -5.107615   -3.745423
    149          1           0      -10.330236   -5.588079   -1.202382
    150          1           0      -11.063332   -5.072516   -2.764941
    151          1           0      -10.207988   -3.890750   -1.675846
    152          1           0       -8.621233    0.255361   -5.946203
    153          1           0       -8.067824   -1.401563   -5.540584
    154          1           0       -6.856446   -0.059264   -5.595812
    155          1           0       -6.902648    3.919985   -2.360386
    156          1           0       -9.129548    7.598042   -2.669719
    157          1           0       -9.321363    7.172401   -0.851490
    158          1           0      -10.397108    6.615392   -2.157157
 ---------------------------------------------------------------------

 SCF Done:  E(RCAM-B3LYP) =  -4069.81181100     A.U. after   19 cycles

 Excitation energies and oscillator strengths:

 Excited State   1:      Singlet-A      1.6720 eV  741.54 nm  f=0.1353  <S**2>=0.000
     310 -> 316        0.14466
     311 -> 313       -0.37384
     312 -> 314        0.57548
 This state for optimization and/or second-order correction.
 Total Energy, E(TD-HF/TD-DFT) =  -4069.75036710
 Copying the excited state density for this state as the 1-particle RhoCI density.

 Excited State   2:      Singlet-A      1.6829 eV  736.74 nm  f=0.6180  <S**2>=0.000
     309 -> 315        0.14798
     311 -> 313        0.57482
     312 -> 314        0.37347

 Excited State   3:      Singlet-A      2.1853 eV  567.36 nm  f=0.0787  <S**2>=0.000
     309 -> 313       -0.10419
     310 -> 314        0.63424
     312 -> 316       -0.26872

 Excited State   4:      Singlet-A      2.1930 eV  565.36 nm  f=0.1176  <S**2>=0.000
     309 -> 313        0.63224
     310 -> 314        0.10338
     311 -> 315       -0.27489

 Excited State   5:      Singlet-A      2.7637 eV  448.61 nm  f=0.0000  <S**2>=0.000
     312 -> 313        0.70710

 The electronic state is 1-A.
 Alpha  occ. eigenvalues --  -46.87838 -46.87585 -19.26362 -19.26254 -19.19095
 Alpha  occ. eigenvalues --  -19.19072 -19.18849 -19.18665 -19.18215 -19.17970
 Alpha  occ. eigenvalues --  -14.42494 -14.42417 -14.41488 -14.41286 -14.39443
 Alpha  occ. eigenvalues --  -14.39280 -14.38628 -14.38525 -10.39152 -10.39001
 Alpha  occ. eigenvalues --  -10.35482 -10.35344 -10.34436 -10.34146 -10.31769
 Alpha  occ. eigenvalues --  -10.31660 -10.31450 -10.31222 -10.30956 -10.30942
 Alpha  occ. eigenvalues --  -10.30611 -10.30546 -10.30327 -10.30284 -10.30242
 Alpha  occ. eigenvalues --  -10.30074 -10.29957 -10.29823 -10.29669 -10.29367
 Alpha  occ. eigenvalues --  -10.29332 -10.29292 -10.28809 -10.28628 -10.28617
 Alpha  occ. eigenvalues --  -10.28560 -10.28408 -10.28329 -10.28170 -10.28031
 Alpha  occ. eigenvalues --  -10.27929 -10.27832 -10.27769 -10.27623 -10.27590
 Alpha  occ. eigenvalues --  -10.27526 -10.27520 -10.27477 -10.27458 -10.27448
 Alpha  occ. eigenvalues --  -10.27414 -10.27405 -10.27400 -10.27316 -10.27212
 Alpha  occ. eigenvalues --  -10.26959 -10.26782 -10.26601 -10.26440 -10.26382
 Alpha  occ. eigenvalues --  -10.26282 -10.26202 -10.26086 -10.26055 -10.25878
 Alpha  occ. eigenvalues --  -10.25869 -10.25864 -10.25781 -10.25459 -10.25340
 Alpha  occ. eigenvalues --  -10.24873 -10.24826 -10.24798 -10.24706 -10.24683
 Alpha  occ. eigenvalues --  -10.24619  -3.16581  -3.16335  -1.91463  -1.91218
 Alpha  occ. eigenvalues --   -1.91049  -1.90891  -1.90806  -1.90643  -1.16709
 Alpha  occ. eigenvalues --   -1.16549  -1.08674  -1.08575  -1.07250  -1.06919
 Alpha  occ. eigenvalues --   -1.06856  -1.06717  -1.04625  -1.04414  -1.03800
 Alpha  occ. eigenvalues --   -1.03588  -1.03273  -1.02967  -1.02451  -1.02037
 Alpha  occ. eigenvalues --   -0.92018  -0.91907  -0.89553  -0.89427  -0.89243
 Alpha  occ. eigenvalues --   -0.89050  -0.88319  -0.88156  -0.87907  -0.87721
 Alpha  occ. eigenvalues --   -0.87718  -0.87606  -0.87311  -0.87062  -0.85036
 Alpha  occ. eigenvalues --   -0.84911  -0.83968  -0.83813  -0.83001  -0.82880
 Alpha  occ. eigenvalues --   -0.82699  -0.82571  -0.81643  -0.81513  -0.80645
 Alpha  occ. eigenvalues --   -0.80365  -0.78835  -0.78570  -0.77261  -0.77066
 Alpha  occ. eigenvalues --   -0.76988  -0.76814  -0.75975  -0.75747  -0.74934
 Alpha  occ. eigenvalues --   -0.74734  -0.72813  -0.72625  -0.71715  -0.71499
 Alpha  occ. eigenvalues --   -0.69935  -0.69697  -0.68923  -0.68743  -0.67684
 Alpha  occ. eigenvalues --   -0.67529  -0.67276  -0.67123  -0.65340  -0.65182
 Alpha  occ. eigenvalues --   -0.64900  -0.64693  -0.64669  -0.64572  -0.64304
 Alpha  occ. eigenvalues --   -0.64136  -0.62357  -0.62195  -0.60478  -0.60278
 Alpha  occ. eigenvalues --   -0.59854  -0.59705  -0.59029  -0.58917  -0.58547
 Alpha  occ. eigenvalues --   -0.58350  -0.57638  -0.57469  -0.57349  -0.57168
 Alpha  occ. eigenvalues --   -0.56351  -0.56131  -0.56044  -0.55801  -0.55561
 Alpha  occ. eigenvalues --   -0.55381  -0.55380  -0.55176  -0.54572  -0.54414
 Alpha  occ. eigenvalues --   -0.53951  -0.53816  -0.53338  -0.53271  -0.53159
 Alpha  occ. eigenvalues --   -0.53064  -0.52966  -0.52822  -0.52799  -0.52603
 Alpha  occ. eigenvalues --   -0.52466  -0.52343  -0.51949  -0.51813  -0.51670
 Alpha  occ. eigenvalues --   -0.51577  -0.51240  -0.51124  -0.50607  -0.50422
 Alpha  occ. eigenvalues --   -0.50063  -0.49958  -0.49902  -0.49804  -0.49562
 Alpha  occ. eigenvalues --   -0.49414  -0.49259  -0.49147  -0.49122  -0.49011
 Alpha  occ. eigenvalues --   -0.48643  -0.48496  -0.48488  -0.48473  -0.48310
 Alpha  occ. eigenvalues --   -0.48276  -0.47739  -0.47519  -0.47338  -0.47050
 Alpha  occ. eigenvalues --   -0.46838  -0.46634  -0.46611  -0.46465  -0.46399
 Alpha  occ. eigenvalues --   -0.46204  -0.46201  -0.46013  -0.45871  -0.45740
 Alpha  occ. eigenvalues --   -0.45235  -0.45142  -0.44624  -0.44549  -0.44435
 Alpha  occ. eigenvalues --   -0.44393  -0.44183  -0.44138  -0.44065  -0.44041
 Alpha  occ. eigenvalues --   -0.44013  -0.43869  -0.43548  -0.43471  -0.43431
 Alpha  occ. eigenvalues --   -0.43304  -0.43070  -0.42848  -0.42819  -0.42760
 Alpha  occ. eigenvalues --   -0.42693  -0.42491  -0.42050  -0.41892  -0.41748
 Alpha  occ. eigenvalues --   -0.41589  -0.41587  -0.41376  -0.41185  -0.40917
 Alpha  occ. eigenvalues --   -0.40904  -0.40864  -0.40658  -0.40620  -0.40607
 Alpha  occ. eigenvalues --   -0.40422  -0.40300  -0.40141  -0.39468  -0.39367
 Alpha  occ. eigenvalues --   -0.38505  -0.38281  -0.37812  -0.37568  -0.37356
 Alpha  occ. eigenvalues --   -0.37317  -0.37195  -0.37115  -0.36775  -0.36686
 Alpha  occ. eigenvalues --   -0.36242  -0.36141  -0.34328  -0.34177  -0.33839
 Alpha  occ. eigenvalues --   -0.33776  -0.33229  -0.33101  -0.31379  -0.31223
 Alpha  occ. eigenvalues --   -0.31078  -0.30897  -0.30075  -0.29873  -0.29488
 Alpha  occ. eigenvalues --   -0.29361  -0.29260  -0.29138  -0.24122  -0.23960
 Alpha  occ. eigenvalues --   -0.21168  -0.21043
 Alpha virt. eigenvalues --   -0.08814  -0.08720  -0.01789  -0.01612  -0.00098
 Alpha virt. eigenvalues --    0.00039   0.02159   0.02282   0.03076   0.03294
 Alpha virt. eigenvalues --    0.04667   0.04815   0.05029   0.05254   0.06105

 Mulliken charges:
               1
     1  Mg   0.838642
     2  C   -0.003132
     3  C   -0.094235
     4  C   -0.045804
     5  C   -0.063825
     6  N   -0.256770
     7  C   -0.052543
     8  C   -0.013992
     9  C   -0.086973
    10  C    0.046240
    11  C    0.104791
    12  C    0.053502
    13  C   -0.071566
    14  H    0.035391
    15  N   -0.433150
    16  C    0.168405
    17  C   -0.177182
    18  C   -0.003948
    19  C    0.148683
    20  C    0.110170
    21  C    0.012300
    22  O   -0.249533
    23  C    0.062473
    24  N   -0.341135
    25  C    0.041249
    26  C   -0.028181
    27  C   -0.024011
    28  C    0.074818
    29  C    0.076135
    30  C    0.035082
    31  C   -0.004543
    32  N   -0.310486
    33  C    0.080371
    34  C   -0.169585
    35  C    0.008347
    36  C    0.082951
    37  C    0.127296
    38  C    0.046101
    39  O   -0.188457
    40  C   -0.005350
    41  C    0.212899
    42  O   -0.257424
    43  O   -0.304663
    44  C    0.157826
    45  H   -0.017601
    46  H   -0.016733
    47  H   -0.041272
    48  H    0.000935
    49  H   -0.004158
    50  H    0.025512
    51  H    0.016575
    52  H    0.016667
    53  H    0.011100
    54  H    0.043854
    55  H    0.018059
    56  H    0.017934
    57  H    0.005799
    58  H    0.026929
    59  H    0.039533
    60  H    0.037381
    61  H    0.035780
    62  H    0.031481
    63  H    0.016596
    64  H    0.009576
    65  H    0.023298
    66  H    0.012537
    67  H    0.004860
    68  H    0.006487
    69  H    0.004937
    70  H    0.008717
    71  H    0.018406
    72  H    0.028807
    73  H    0.047664
    74  H    0.009328
    75  H    0.046070
    76  H    0.035212
    77  H    0.043007
    78  H    0.046277
    79  H    0.053264
    80  Mg   0.837957
    81  C   -0.016785
    82  C   -0.087712
    83  C   -0.045658
    84  C   -0.064910
    85  N   -0.254617
    86  C   -0.049534
    87  C   -0.015165
    88  C   -0.090563
    89  C    0.045829
    90  C    0.114334
    91  C    0.062512
    92  C   -0.077871
    93  H    0.034645
    94  N   -0.423486
    95  C    0.162889
    96  C   -0.174696
    97  C   -0.008024
    98  C    0.152146
    99  C    0.099430
   100  C    0.015409
   101  O   -0.253421
   102  C    0.061260
   103  N   -0.350057
   104  C    0.037590
   105  C   -0.019835
   106  C   -0.034833
   107  C    0.089006
   108  C    0.073678
   109  C    0.034778
   110  C   -0.007643
   111  N   -0.324150
   112  C    0.078552
   113  C   -0.163128
   114  C    0.002396
   115  C    0.096199
   116  C    0.131456
   117  C    0.042441
   118  O   -0.187752
   119  C    0.000930
   120  C    0.211215
   121  O   -0.251246
   122  O   -0.305378
   123  C    0.152091
   124  H   -0.019579
   125  H   -0.015827
   126  H   -0.040565
   127  H   -0.000109
   128  H   -0.004505
   129  H    0.023241
   130  H    0.014480
   131  H    0.016783
   132  H    0.013699
   133  H    0.037535
   134  H    0.021254
   135  H    0.019453
   136  H    0.008814
   137  H    0.025808
   138  H    0.039564
   139  H    0.038048
   140  H    0.036100
   141  H    0.033881
   142  H    0.014207
   143  H    0.012483
   144  H    0.024874
   145  H    0.011685
   146  H    0.005792
   147  H    0.006125
   148  H    0.003604
   149  H    0.010824
   150  H    0.017799
   151  H    0.030180
   152  H    0.045918
   153  H    0.008355
   154  H    0.047157
   155  H    0.035710
   156  H    0.044033
   157  H    0.049544
   158  H    0.053359
 Sum of Mulliken charges =  -0.00000

 Dipole moment (field-independent basis, Debye):
    X=              4.4225    Y=             -2.1625    Z=              6.7645  Tot=              8.3661
 Quadrupole moment (field-independent basis, Debye-Ang):
   XX=           -517.6863   YY=           -534.9526   ZZ=           -464.3182
   XY=            -19.3711   XZ=             -4.9657   YZ=             33.3487

 Normal termination of Gaussian 16 at Sun Sep 12 06:58:01 2021.
