 Gaussian 16, Revision A.03,
 Gaussian 16:  ES64L-G16RevA.03 25-Dec-2016

 -----------------------------------
 #p cam-b3lyp/Def2SVP td=(nstates=5)
 -----------------------------------

 --------------------------------
 TDDFT excited states in gaussian
 --------------------------------
 Symbolic Z-matrix:
 Charge =  0 Multiplicity = 1

                         Standard orientation:
 ---------------------------------------------------------------------
 Center     Atomic      Atomic             Coordinates (Angstroms)
 Number     Number       Type             X           Y           Z
 ---------------------------------------------------------------------
      1         12           0        3.696046   -1.379078    0.523131
      2          6           0        4.813052    0.864872   -2.032099
      3          6           0        5.335055    0.599006    2.768994
      4          6           0        3.108430   -3.581794    2.727529
      5          6           0        3.137284   -3.728088   -1.989954
      6          7           0        4.885768    0.471595    0.277739
      7          6           0        5.188240    1.262632   -0.746928
      8          6           0        5.876211    2.593150   -0.318218
      9          6           0        6.476374    2.126073    1.083082
     10          6           0        5.487171    1.022914    1.415408
     11          6           0        7.871566    1.518983    0.976389
     12          6           0        4.850285    3.762655   -0.140830
     13          6           0        5.464966    5.161994   -0.044021
     14          1           0        4.750768    6.283073   -0.636010
     15          7           0        3.723457   -1.257739    2.494774
     16          6           0        4.435279   -0.380390    3.242340
     17          6           0        4.117427   -0.694290    4.651992
     18          6           0        3.311360   -1.946516    4.668713
     19          6           0        3.371806   -2.331371    3.281770
     20          6           0        4.524700    0.176352    5.800844
     21          6           0        2.608346   -2.685507    5.763151
     22          8           0        2.162779   -3.873329    5.604645
     23          6           0        2.532050   -2.007551    7.069901
     24          7           0        3.401660   -3.443369    0.424781
     25          6           0        3.106008   -4.151215    1.520467
     26          6           0        2.663789   -5.540979    1.169843
     27          6           0        2.484983   -5.560913   -0.416784
     28          6           0        2.961451   -4.120225   -0.726080
     29          6           0        3.612916   -6.671492    1.590688
     30          6           0        1.108661   -6.015978   -0.963659
     31          6           0        0.050130   -4.999015   -0.599796
     32          7           0        3.754640   -1.395936   -1.646506
     33          6           0        3.507967   -2.490233   -2.488136
     34          6           0        3.773735   -2.042727   -3.867691
     35          6           0        4.175126   -0.715373   -3.730356
     36          6           0        4.186230   -0.364297   -2.350170
     37          6           0        3.690056   -2.849963   -5.036366
     38          6           0        4.620904    0.480624   -4.426582
     39          8           0        4.716715    0.810392   -5.609615
     40          6           0        5.168720    1.514416   -3.346305
     41          6           0        4.563125    2.856797   -3.653836
     42          8           0        3.337292    3.050703   -3.523063
     43          8           0        5.542623    3.758401   -3.821872
     44          6           0        5.009027    5.118393   -4.100891
     45          1           0        6.003750    1.008515    3.528659
     46          1           0        2.793629   -4.341467    3.446024
     47          1           0        2.903335   -4.380825   -2.832958
     48          1           0        6.680471    2.921681   -0.976744
     49          1           0        6.427006    2.917254    1.830957
     50          1           0        8.171101    1.389154   -0.063488
     51          1           0        7.807754    0.552971    1.477629
     52          1           0        8.593534    2.104899    1.545811
     53          1           0        4.392357    3.692507    0.845802
     54          1           0        4.108158    3.749358   -0.939828
     55          1           0        6.507710    5.162205   -0.362758
     56          1           0        5.503098    5.446276    1.007610
     57          1           0        5.245747    0.932981    5.494005
     58          1           0        5.073762   -0.454609    6.499506
     59          1           0        3.665621    0.620631    6.303766
     60          1           0        3.540930   -1.799098    7.426631
     61          1           0        1.917669   -2.645523    7.704234
     62          1           0        2.047511   -1.039708    6.937795
     63          1           0        1.710204   -5.778177    1.639778
     64          1           0        3.197523   -6.229612   -0.900315
     65          1           0        3.145222   -7.420662    2.229993
     66          1           0        4.475621   -6.222016    2.081606
     67          1           0        4.085755   -7.202509    0.764939
     68          1           0        0.814258   -6.961722   -0.509961
     69          1           0        1.098231   -6.149643   -2.045452
     70          1           0       -0.225445   -5.286650    0.414185
     71          1           0       -0.803041   -5.080118   -1.274133
     72          1           0        0.465325   -3.992158   -0.551431
     73          1           0        3.187551   -2.244069   -5.790256
     74          1           0        3.144399   -3.773006   -4.841808
     75          1           0        4.746954   -3.024164   -5.237557
     76          1           0        6.253951    1.523083   -3.442852
     77          1           0        5.453537    5.451397   -5.038843
     78          1           0        5.201602    5.715710   -3.209526
     79          1           0        3.947462    5.179343   -4.343181
     80         12           0       -3.722117    1.420471    0.377444
     81          6           0       -4.733158   -1.029253   -2.042414
     82          6           0       -5.335535   -0.452891    2.727336
     83          6           0       -3.236648    3.777049    2.445844
     84          6           0       -3.200601    3.621476   -2.273836
     85          7           0       -4.851017   -0.476464    0.237843
     86          6           0       -5.116738   -1.348378   -0.723145
     87          6           0       -5.762612   -2.671255   -0.230792
     88          6           0       -6.406357   -2.129968    1.137217
     89          6           0       -5.455363   -0.966733    1.411398
     90          6           0       -7.808167   -1.569852    0.962414
     91          6           0       -4.698042   -3.791869    0.039270
     92          6           0       -5.275894   -5.196776    0.223849
     93          1           0       -4.512735   -6.335065   -0.280491
     94          7           0       -3.777048    1.419698    2.361267
     95          6           0       -4.465446    0.573565    3.155913
     96          6           0       -4.191132    1.004363    4.535524
     97          6           0       -3.417115    2.274435    4.485213
     98          6           0       -3.465912    2.556778    3.064652
     99          6           0       -4.582984    0.191271    5.735001
    100          6           0       -2.754933    3.105011    5.542508
    101          8           0       -2.342015    4.294686    5.303798
    102          6           0       -2.688225    2.519949    6.889628
    103          7           0       -3.485545    3.473019    0.146286
    104          6           0       -3.234596    4.263524    1.204611
    105          6           0       -2.829851    5.650556    0.765637
    106          6           0       -2.626120    5.557690   -0.817863
    107          6           0       -3.053584    4.090638   -1.042392
    108          6           0       -3.824224    6.766360    1.085977
    109          6           0       -1.254362    6.022094   -1.379377
    110          6           0       -0.165044    5.075781   -0.928520
    111          7           0       -3.742154    1.290266   -1.779108
    112          6           0       -3.521738    2.338723   -2.699022
    113          6           0       -3.752597    1.788040   -4.050278
    114          6           0       -4.116605    0.452842   -3.819559
    115          6           0       -4.132502    0.195424   -2.422065
    116          6           0       -3.665610    2.515079   -5.270912
    117          6           0       -4.501350   -0.794472   -4.439948
    118          8           0       -4.574656   -1.202173   -5.598456
    119          6           0       -5.040555   -1.775095   -3.311208
    120          6           0       -4.389164   -3.116098   -3.510996
    121          8           0       -3.162081   -3.251375   -3.360737
    122          8           0       -5.344115   -4.056214   -3.631833
    123          6           0       -4.747265   -5.405243   -3.820820
    124          1           0       -6.000080   -0.842547    3.498981
    125          1           0       -2.955663    4.597311    3.110446
    126          1           0       -2.963300    4.217354   -3.157752
    127          1           0       -6.538262   -3.065779   -0.876156
    128          1           0       -6.337485   -2.873148    1.927348
    129          1           0       -8.095293   -1.519904   -0.077400
    130          1           0       -7.785248   -0.578893    1.396600
    131          1           0       -8.521046   -2.144576    1.560596
    132          1           0       -4.259467   -3.636987    1.033461
    133          1           0       -3.954743   -3.805577   -0.734006
    134          1           0       -6.320722   -5.259067   -0.103859
    135          1           0       -5.316808   -5.417421    1.293269
    136          1           0       -5.283493   -0.609238    5.466922
    137          1           0       -5.161345    0.849450    6.392389
    138          1           0       -3.720297   -0.189206    6.286056
    139          1           0       -3.694631    2.301343    7.238650
    140          1           0       -2.101715    3.222636    7.484698
    141          1           0       -2.160984    1.561326    6.828999
    142          1           0       -1.893161    5.943298    1.223899
    143          1           0       -3.351354    6.182721   -1.359334
    144          1           0       -3.385102    7.581870    1.691102
    145          1           0       -4.673964    6.330665    1.594542
    146          1           0       -4.288495    7.234028    0.219418
    147          1           0       -0.995395    7.006000   -0.980604
    148          1           0       -1.233750    6.097544   -2.461447
    149          1           0        0.080010    5.440948    0.073320
    150          1           0        0.694913    5.137430   -1.592391
    151          1           0       -0.549755    4.054824   -0.822274
    152          1           0       -3.138022    1.883058   -5.972828
    153          1           0       -3.156940    3.466702   -5.131482
    154          1           0       -4.727422    2.646299   -5.495870
    155          1           0       -6.125148   -1.827494   -3.413542
    156          1           0       -5.170267   -5.815414   -4.743057
    157          1           0       -4.952212   -5.956526   -2.883892
    158          1           0       -3.685855   -5.458450   -4.033023
 ---------------------------------------------------------------------

 SCF Done:  E(RCAM-B3LYP) =  -4069.81264135     A.U. after   19 cycles

 Excitation energies and oscillator strengths:

 Excited State   1:      Singlet-A      1.6366 eV  757.56 nm  f=0.0034  <S**2>=0.000
     309 -> 316        0.11834
     310 -> 315       -0.11315
     311 -> 313        0.49911
     312 -> 314       -0.47388
 This state for optimization and/or second-order correction.
 Total Energy, E(TD-HF/TD-DFT) =  -4069.75249683
 Copying the excited state density for this state as the 1-particle RhoCI density.

 Excited State   2:      Singlet-A      1.7082 eV  725.83 nm  f=0.6811  <S**2>=0.000
     309 -> 316        0.12044
     310 -> 315        0.12790
     311 -> 313        0.47090
     312 -> 314        0.49580

 Excited State   3:      Singlet-A      2.1788 eV  569.05 nm  f=0.0100  <S**2>=0.000
     309 -> 313        0.53383
     310 -> 314        0.35288
     311 -> 316       -0.22060
     312 -> 315       -0.14471

 Excited State   4:      Singlet-A      2.1950 eV  564.84 nm  f=0.1618  <S**2>=0.000
     309 -> 313       -0.34837
     310 -> 314        0.52878
     311 -> 316        0.15444
     312 -> 315       -0.23323

 Excited State   5:      Singlet-A      2.3793 eV  521.09 nm  f=0.0000  <S**2>=0.000
     312 -> 313        0.70704

 The electronic state is 1-A.
 Alpha  occ. eigenvalues --  -46.87538 -46.87453 -19.26355 -19.26216 -19.19183
 Alpha  occ. eigenvalues --  -19.18955 -19.18672 -19.18616 -19.17943 -19.17878
 Alpha  occ. eigenvalues --  -14.42299 -14.42198 -14.41183 -14.41142 -14.39155
 Alpha  occ. eigenvalues --  -14.39155 -14.38378 -14.38313 -10.39077 -10.38990
 Alpha  occ. eigenvalues --  -10.35313 -10.35301 -10.34167 -10.34060 -10.31816
 Alpha  occ. eigenvalues --  -10.31666 -10.31140 -10.31097 -10.30865 -10.30699
 Alpha  occ. eigenvalues --  -10.30289 -10.30240 -10.30184 -10.30133 -10.29940
 Alpha  occ. eigenvalues --  -10.29923 -10.29665 -10.29639 -10.29366 -10.29231
 Alpha  occ. eigenvalues --  -10.29190 -10.28998 -10.28605 -10.28589 -10.28565
 Alpha  occ. eigenvalues --  -10.28429 -10.28221 -10.28129 -10.27984 -10.27909
 Alpha  occ. eigenvalues --  -10.27793 -10.27534 -10.27468 -10.27462 -10.27341
 Alpha  occ. eigenvalues --  -10.27299 -10.27297 -10.27273 -10.27267 -10.27244
 Alpha  occ. eigenvalues --  -10.27181 -10.27178 -10.27166 -10.27152 -10.26977
 Alpha  occ. eigenvalues --  -10.26929 -10.26592 -10.26549 -10.26407 -10.26360
 Alpha  occ. eigenvalues --  -10.26042 -10.25883 -10.25747 -10.25744 -10.25712
 Alpha  occ. eigenvalues --  -10.25679 -10.25515 -10.25454 -10.25231 -10.25226
 Alpha  occ. eigenvalues --  -10.24662 -10.24571 -10.24541 -10.24492 -10.24153
 Alpha  occ. eigenvalues --  -10.24042  -3.16280  -3.16203  -1.91162  -1.91085
 Alpha  occ. eigenvalues --   -1.90749  -1.90674  -1.90591  -1.90511  -1.16645
 Alpha  occ. eigenvalues --   -1.16561  -1.08496  -1.08407  -1.07082  -1.06938
 Alpha  occ. eigenvalues --   -1.06877  -1.06560  -1.04336  -1.04303  -1.03500
 Alpha  occ. eigenvalues --   -1.03459  -1.02970  -1.02822  -1.02148  -1.01899
 Alpha  occ. eigenvalues --   -0.91807  -0.91738  -0.89242  -0.89206  -0.88994
 Alpha  occ. eigenvalues --   -0.88981  -0.87988  -0.87966  -0.87570  -0.87552
 Alpha  occ. eigenvalues --   -0.87478  -0.87423  -0.87064  -0.86962  -0.84846
 Alpha  occ. eigenvalues --   -0.84777  -0.83619  -0.83610  -0.82793  -0.82784
 Alpha  occ. eigenvalues --   -0.82502  -0.82446  -0.81472  -0.81404  -0.80386
 Alpha  occ. eigenvalues --   -0.80292  -0.78555  -0.78441  -0.76956  -0.76951
 Alpha  occ. eigenvalues --   -0.76727  -0.76719  -0.75714  -0.75686  -0.74635
 Alpha  occ. eigenvalues --   -0.74591  -0.72497  -0.72474  -0.71439  -0.71400
 Alpha  occ. eigenvalues --   -0.69527  -0.69430  -0.68667  -0.68660  -0.67428
 Alpha  occ. eigenvalues --   -0.67415  -0.67075  -0.67042  -0.65120  -0.65075
 Alpha  occ. eigenvalues --   -0.64622  -0.64589  -0.64485  -0.64387  -0.63969
 Alpha  occ. eigenvalues --   -0.63953  -0.62163  -0.62126  -0.60215  -0.60162
 Alpha  occ. eigenvalues --   -0.59627  -0.59582  -0.58797  -0.58738  -0.58265
 Alpha  occ. eigenvalues --   -0.58246  -0.57432  -0.57399  -0.57066  -0.57041
 Alpha  occ. eigenvalues --   -0.56077  -0.56023  -0.55840  -0.55794  -0.55329
 Alpha  occ. eigenvalues --   -0.55321  -0.55084  -0.55050  -0.54307  -0.54276
 Alpha  occ. eigenvalues --   -0.53770  -0.53698  -0.53093  -0.53065  -0.53006
 Alpha  occ. eigenvalues --   -0.52974  -0.52770  -0.52718  -0.52586  -0.52559
 Alpha  occ. eigenvalues --   -0.52039  -0.52023  -0.51615  -0.51594  -0.51524
 Alpha  occ. eigenvalues --   -0.51424  -0.50999  -0.50938  -0.50396  -0.50338
 Alpha  occ. eigenvalues --   -0.49830  -0.49766  -0.49671  -0.49606  -0.49360
 Alpha  occ. eigenvalues --   -0.49323  -0.49062  -0.49005  -0.48933  -0.48884
 Alpha  occ. eigenvalues --   -0.48419  -0.48392  -0.48278  -0.48221  -0.48207
 Alpha  occ. eigenvalues --   -0.48168  -0.47478  -0.47432  -0.47080  -0.46953
 Alpha  occ. eigenvalues --   -0.46524  -0.46502  -0.46397  -0.46364  -0.46099
 Alpha  occ. eigenvalues --   -0.46065  -0.45908  -0.45886  -0.45647  -0.45588
 Alpha  occ. eigenvalues --   -0.44986  -0.44927  -0.44377  -0.44372  -0.44279
 Alpha  occ. eigenvalues --   -0.44271  -0.43985  -0.43923  -0.43850  -0.43821
 Alpha  occ. eigenvalues --   -0.43812  -0.43777  -0.43414  -0.43293  -0.43219
 Alpha  occ. eigenvalues --   -0.43144  -0.42840  -0.42789  -0.42712  -0.42569
 Alpha  occ. eigenvalues --   -0.42318  -0.42295  -0.41694  -0.41678  -0.41487
 Alpha  occ. eigenvalues --   -0.41467  -0.41314  -0.41263  -0.40916  -0.40812
 Alpha  occ. eigenvalues --   -0.40690  -0.40620  -0.40612  -0.40521  -0.40264
 Alpha  occ. eigenvalues --   -0.40226  -0.40117  -0.40066  -0.39080  -0.39030
 Alpha  occ. eigenvalues --   -0.38187  -0.38124  -0.37567  -0.37529  -0.37057
 Alpha  occ. eigenvalues --   -0.37050  -0.37034  -0.37014  -0.36715  -0.36570
 Alpha  occ. eigenvalues --   -0.36024  -0.35963  -0.34057  -0.34028  -0.33825
 Alpha  occ. eigenvalues --   -0.33663  -0.32969  -0.32931  -0.31202  -0.31175
 Alpha  occ. eigenvalues --   -0.30794  -0.30784  -0.29803  -0.29784  -0.29212
 Alpha  occ. eigenvalues --   -0.29142  -0.29049  -0.28991  -0.23829  -0.23822
 Alpha  occ. eigenvalues --   -0.20904  -0.20860
 Alpha virt. eigenvalues --   -0.08590  -0.08521  -0.01499  -0.01483   0.00121
 Alpha virt. eigenvalues --    0.00142   0.02339   0.02434   0.02504   0.04495
 Alpha virt. eigenvalues --    0.04851   0.04932   0.05139   0.05163   0.06089

 Mulliken charges:
               1
     1  Mg   0.838897
     2  C   -0.003638
     3  C   -0.093794
     4  C   -0.046200
     5  C   -0.060527
     6  N   -0.256824
     7  C   -0.052408
     8  C   -0.014271
     9  C   -0.086931
    10  C    0.046001
    11  C    0.104953
    12  C    0.052379
    13  C   -0.070923
    14  H    0.033471
    15  N   -0.432981
    16  C    0.168193
    17  C   -0.177464
    18  C   -0.004873
    19  C    0.148383
    20  C    0.110319
    21  C    0.011049
    22  O   -0.251116
    23  C    0.062906
    24  N   -0.341386
    25  C    0.041302
    26  C   -0.027540
    27  C   -0.024081
    28  C    0.075346
    29  C    0.076569
    30  C    0.034619
    31  C   -0.007572
    32  N   -0.311279
    33  C    0.082353
    34  C   -0.165931
    35  C    0.008064
    36  C    0.084256
    37  C    0.127013
    38  C    0.046767
    39  O   -0.188536
    40  C   -0.005960
    41  C    0.212962
    42  O   -0.257764
    43  O   -0.304349
    44  C    0.158040
    45  H   -0.018291
    46  H   -0.018015
    47  H   -0.039599
    48  H    0.000389
    49  H   -0.004080
    50  H    0.025100
    51  H    0.016436
    52  H    0.016146
    53  H    0.012721
    54  H    0.044416
    55  H    0.017772
    56  H    0.018700
    57  H    0.006023
    58  H    0.025752
    59  H    0.039281
    60  H    0.037892
    61  H    0.033442
    62  H    0.030128
    63  H    0.015566
    64  H    0.008567
    65  H    0.021825
    66  H    0.012024
    67  H    0.004361
    68  H    0.002760
    69  H    0.006292
    70  H    0.002700
    71  H    0.030459
    72  H    0.030648
    73  H    0.049924
    74  H    0.011573
    75  H    0.044605
    76  H    0.034831
    77  H    0.043108
    78  H    0.046271
    79  H    0.051621
    80  Mg   0.837972
    81  C   -0.017539
    82  C   -0.087371
    83  C   -0.045791
    84  C   -0.061930
    85  N   -0.254600
    86  C   -0.049858
    87  C   -0.015482
    88  C   -0.090370
    89  C    0.045445
    90  C    0.114519
    91  C    0.060710
    92  C   -0.076910
    93  H    0.031909
    94  N   -0.423364
    95  C    0.162760
    96  C   -0.174887
    97  C   -0.008674
    98  C    0.151826
    99  C    0.099545
   100  C    0.014313
   101  O   -0.254526
   102  C    0.061680
   103  N   -0.350296
   104  C    0.037617
   105  C   -0.019300
   106  C   -0.034990
   107  C    0.089423
   108  C    0.074071
   109  C    0.034281
   110  C   -0.009510
   111  N   -0.324883
   112  C    0.080450
   113  C   -0.159480
   114  C    0.001988
   115  C    0.097450
   116  C    0.131259
   117  C    0.043123
   118  O   -0.187935
   119  C    0.000108
   120  C    0.211096
   121  O   -0.251313
   122  O   -0.305079
   123  C    0.152072
   124  H   -0.020262
   125  H   -0.016634
   126  H   -0.038512
   127  H   -0.001216
   128  H   -0.004300
   129  H    0.022103
   130  H    0.014436
   131  H    0.015832
   132  H    0.015672
   133  H    0.039049
   134  H    0.020751
   135  H    0.020461
   136  H    0.008978
   137  H    0.025113
   138  H    0.039629
   139  H    0.038811
   140  H    0.034298
   141  H    0.032448
   142  H    0.013569
   143  H    0.011612
   144  H    0.023861
   145  H    0.011111
   146  H    0.005337
   147  H    0.003117
   148  H    0.005251
   149  H    0.005356
   150  H    0.029048
   151  H    0.031768
   152  H    0.048372
   153  H    0.010851
   154  H    0.045604
   155  H    0.034782
   156  H    0.044276
   157  H    0.049401
   158  H    0.051651
 Sum of Mulliken charges =  -0.00000

 Dipole moment (field-independent basis, Debye):
    X=             -0.0025    Y=              0.1037    Z=              6.4931  Tot=              6.4939
 Quadrupole moment (field-independent basis, Debye-Ang):
   XX=           -471.3386   YY=           -473.8310   ZZ=           -540.5618
   XY=             24.5470   XZ=              1.1253   YZ=             -2.5617

 Normal termination of Gaussian 16 at Wed Sep  8 18:34:51 2021.
