 Gaussian 16, Revision A.03,
 Gaussian 16:  ES64L-G16RevA.03 25-Dec-2016

 -----------------------------------
 #p cam-b3lyp/Def2SVP td=(nstates=5)
 -----------------------------------

 --------------------------------
 TDDFT excited states in gaussian
 --------------------------------
 Symbolic Z-matrix:
 Charge =  0 Multiplicity = 1

                         Standard orientation:
 ---------------------------------------------------------------------
 Center     Atomic      Atomic             Coordinates (Angstroms)
 Number     Number       Type             X           Y           Z
 ---------------------------------------------------------------------
      1         12           0       -6.519563   -0.772184    0.092299
      2          6           0       -6.718374    2.795332    0.305649
      3          6           0       -7.400271   -0.476125   -3.190956
      4          6           0       -6.794019   -3.929964   -0.006286
      5          6           0       -6.774682   -0.846684    3.567213
      6          7           0       -6.973322    0.990239   -1.168103
      7          6           0       -6.955446    2.306220   -0.980901
      8          6           0       -7.137710    3.119999   -2.296925
      9          6           0       -7.893166    2.020566   -3.170156
     10          6           0       -7.364649    0.767934   -2.493762
     11          6           0       -9.410329    2.058293   -3.017530
     12          6           0       -5.768675    3.522188   -2.941686
     13          6           0       -5.851183    4.586553   -4.039717
     14          1           0       -4.774823    5.558960   -4.154712
     15          7           0       -6.543292   -2.008657   -1.448292
     16          6           0       -6.914597   -1.714171   -2.717424
     17          6           0       -6.757510   -2.965905   -3.488895
     18          6           0       -6.446385   -4.058187   -2.525456
     19          6           0       -6.610077   -3.372183   -1.269279
     20          6           0       -6.854685   -3.029726   -4.982292
     21          6           0       -6.072705   -5.495291   -2.707743
     22          8           0       -6.072353   -6.326479   -1.736301
     23          6           0       -5.788968   -5.930391   -4.087317
     24          7           0       -6.971521   -2.204246    1.542322
     25          6           0       -6.967858   -3.509041    1.248246
     26          6           0       -7.037994   -4.348647    2.489246
     27          6           0       -6.844839   -3.343271    3.714670
     28          6           0       -6.775033   -2.015040    2.921449
     29          6           0       -8.333854   -5.147863    2.684213
     30          6           0       -5.707016   -3.665197    4.715740
     31          6           0       -4.365255   -3.502235    4.037345
     32          7           0       -6.535243    0.692921    1.693633
     33          6           0       -6.673676    0.440401    3.066128
     34          6           0       -6.735472    1.749328    3.742114
     35          6           0       -6.644770    2.678464    2.707549
     36          6           0       -6.559791    1.993442    1.461830
     37          6           0       -6.918133    1.958813    5.137530
     38          6           0       -6.624672    4.090732    2.362656
     39          8           0       -6.573193    5.139883    3.006181
     40          6           0       -6.794227    4.223666    0.784870
     41          6           0       -5.747162    5.186334    0.294733
     42          8           0       -4.534879    4.895136    0.348950
     43          8           0       -6.341226    6.187299   -0.372875
     44          6           0       -5.355872    7.162619   -0.911374
     45          1           0       -7.896786   -0.522873   -4.162156
     46          1           0       -6.782921   -5.021675    0.015654
     47          1           0       -6.768979   -0.791578    4.657343
     48          1           0       -7.760161    4.009567   -2.198708
     49          1           0       -7.582998    2.046837   -4.214583
     50          1           0       -9.714741    2.751368   -2.233374
     51          1           0       -9.702362    1.040009   -2.760026
     52          1           0       -9.890388    2.275368   -3.972097
     53          1           0       -5.385669    2.684181   -3.524019
     54          1           0       -5.062680    3.847339   -2.176719
     55          1           0       -6.819739    5.087354   -4.037391
     56          1           0       -5.808255    4.084265   -5.006187
     57          1           0       -7.255363   -2.105778   -5.397409
     58          1           0       -7.605649   -3.782696   -5.220611
     59          1           0       -5.904689   -3.298909   -5.444224
     60          1           0       -6.666312   -5.750611   -4.709003
     61          1           0       -5.452933   -6.964066   -4.013506
     62          1           0       -4.991098   -5.309795   -4.496233
     63          1           0       -6.239697   -5.089508    2.505789
     64          1           0       -7.737473   -3.281450    4.337613
     65          1           0       -8.174403   -6.220999    2.792197
     66          1           0       -8.992116   -4.933017    1.842891
     67          1           0       -8.946547   -4.826880    3.526230
     68          1           0       -5.775235   -4.700821    5.047064
     69          1           0       -5.722010   -3.031578    5.602618
     70          1           0       -4.230207   -4.457968    3.532202
     71          1           0       -3.581948   -3.338033    4.778075
     72          1           0       -4.398849   -2.729497    3.269080
     73          1           0       -6.218421    2.744524    5.422188
     74          1           0       -6.737955    1.044298    5.702155
     75          1           0       -7.963990    2.264600    5.160615
     76          1           0       -7.804149    4.592351    0.608089
     77          1           0       -5.634471    8.144670   -0.529024
     78          1           0       -5.343463    7.025549   -1.992791
     79          1           0       -4.336448    7.076337   -0.533658
     80         12           0        6.717273   -0.781348    0.062151
     81          6           0        6.358197    2.783843    0.260994
     82          6           0        5.983060   -0.520297   -3.258602
     83          6           0        6.582413   -3.949220   -0.055449
     84          6           0        6.291924   -0.877746    3.519826
     85          7           0        6.250312    0.961303   -1.217442
     86          6           0        6.203427    2.273691   -1.044855
     87          6           0        6.058009    3.090188   -2.357008
     88          6           0        5.385176    1.955598   -3.272918
     89          6           0        5.930637    0.716073   -2.566702
     90          6           0        3.868543    1.929042   -3.181063
     91          6           0        7.444043    3.546740   -2.933623
     92          6           0        7.364742    4.604215   -4.036892
     93          1           0        8.410581    5.621263   -4.102647
     94          7           0        6.823086   -2.014572   -1.489153
     95          6           0        6.508365   -1.737472   -2.771895
     96          6           0        6.738286   -2.982761   -3.520593
     97          6           0        7.056669   -4.063003   -2.547750
     98          6           0        6.807205   -3.373828   -1.297597
     99          6           0        6.724907   -3.044792   -5.020392
    100          6           0        7.498603   -5.485284   -2.715166
    101          8           0        7.487117   -6.313524   -1.737053
    102          6           0        7.856408   -5.904497   -4.078155
    103          7           0        6.262757   -2.227056    1.485422
    104          6           0        6.329580   -3.536336    1.186691
    105          6           0        6.231072   -4.385571    2.431476
    106          6           0        6.327532   -3.363424    3.657646
    107          6           0        6.377641   -2.033032    2.874738
    108          6           0        4.959679   -5.223280    2.566376
    109          6           0        7.428243   -3.638711    4.718449
    110          6           0        8.795980   -3.431643    4.108690
    111          7           0        6.569071    0.673939    1.652192
    112          6           0        6.367248    0.418436    3.026265
    113          6           0        6.219093    1.727217    3.695277
    114          6           0        6.322851    2.659917    2.652302
    115          6           0        6.501444    1.979613    1.417477
    116          6           0        5.970758    1.929119    5.082255
    117          6           0        6.311282    4.064886    2.313733
    118          8           0        6.281166    5.113230    2.957007
    119          6           0        6.207063    4.203101    0.733729
    120          6           0        7.236717    5.204080    0.286112
    121          8           0        8.450054    4.962219    0.412374
    122          8           0        6.628009    6.180479   -0.411369
    123          6           0        7.609633    7.191788   -0.886215
    124          1           0        5.542363   -0.576694   -4.254336
    125          1           0        6.636782   -5.039887   -0.024248
    126          1           0        6.254282   -0.819104    4.609689
    127          1           0        5.401600    3.949266   -2.287081
    128          1           0        5.751626    2.004342   -4.295023
    129          1           0        3.499035    2.602362   -2.421958
    130          1           0        3.606255    0.907098   -2.940494
    131          1           0        3.427922    2.130415   -4.161697
    132          1           0        7.887027    2.717337   -3.499842
    133          1           0        8.088508    3.891340   -2.148429
    134          1           0        6.372792    5.068913   -4.091922
    135          1           0        7.481867    4.107254   -5.002980
    136          1           0        6.299768   -2.132597   -5.456933
    137          1           0        6.019839   -3.834557   -5.301478
    138          1           0        7.704954   -3.279860   -5.440997
    139          1           0        7.004624   -5.754798   -4.737343
    140          1           0        8.231335   -6.925212   -3.981006
    141          1           0        8.657103   -5.253023   -4.445699
    142          1           0        7.057313   -5.083434    2.489897
    143          1           0        5.399383   -3.346081    4.247629
    144          1           0        5.160074   -6.305170    2.682219
    145          1           0        4.338134   -5.042363    1.699492
    146          1           0        4.302562   -4.936663    3.385670
    147          1           0        7.388163   -4.681077    5.044067
    148          1           0        7.337595   -3.020550    5.605393
    149          1           0        8.989409   -4.384603    3.607139
    150          1           0        9.535001   -3.236037    4.883048
    151          1           0        8.769376   -2.652814    3.337739
    152          1           0        6.615975    2.737490    5.399629
    153          1           0        6.156102    1.023042    5.655358
    154          1           0        4.908767    2.187334    5.054677
    155          1           0        5.192282    4.527008    0.499442
    156          1           0        7.269063    8.164751   -0.518732
    157          1           0        7.667681    7.059784   -1.983010
    158          1           0        8.611495    7.149361   -0.475229
 ---------------------------------------------------------------------

 SCF Done:  E(RCAM-B3LYP) =  -4069.81156624     A.U. after   19 cycles

 Excitation energies and oscillator strengths:

 Excited State   1:      Singlet-A      1.6654 eV  744.48 nm  f=0.0072  <S**2>=0.000
     309 -> 315       -0.11048
     310 -> 316        0.13096
     311 -> 313       -0.44112
     312 -> 314        0.52618
 This state for optimization and/or second-order correction.
 Total Energy, E(TD-HF/TD-DFT) =  -4069.75036437
 Copying the excited state density for this state as the 1-particle RhoCI density.

 Excited State   2:      Singlet-A      1.6894 eV  733.90 nm  f=0.7363  <S**2>=0.000
     309 -> 315        0.13646
     310 -> 316        0.11370
     311 -> 313        0.52497
     312 -> 314        0.44020

 Excited State   3:      Singlet-A      2.1846 eV  567.53 nm  f=0.0391  <S**2>=0.000
     309 -> 313       -0.20435
     310 -> 314        0.60977
     312 -> 316       -0.25797

 Excited State   4:      Singlet-A      2.1934 eV  565.27 nm  f=0.1496  <S**2>=0.000
     309 -> 313        0.60733
     310 -> 314        0.20257
     311 -> 315       -0.26470

 Excited State   5:      Singlet-A      2.6509 eV  467.71 nm  f=0.0000  <S**2>=0.000
     312 -> 313        0.70710

 The electronic state is 1-A.
 Alpha  occ. eigenvalues --  -46.87843 -46.87547 -19.26312 -19.26227 -19.19048
 Alpha  occ. eigenvalues --  -19.19041 -19.18862 -19.18624 -19.18196 -19.17913
 Alpha  occ. eigenvalues --  -14.42499 -14.42385 -14.41494 -14.41247 -14.39450
 Alpha  occ. eigenvalues --  -14.39241 -14.38630 -14.38482 -10.39109 -10.38967
 Alpha  occ. eigenvalues --  -10.35496 -10.35304 -10.34417 -10.34089 -10.31703
 Alpha  occ. eigenvalues --  -10.31647 -10.31451 -10.31190 -10.30961 -10.30915
 Alpha  occ. eigenvalues --  -10.30613 -10.30549 -10.30281 -10.30254 -10.30242
 Alpha  occ. eigenvalues --  -10.30039 -10.29960 -10.29777 -10.29674 -10.29330
 Alpha  occ. eigenvalues --  -10.29301 -10.29288 -10.28810 -10.28628 -10.28609
 Alpha  occ. eigenvalues --  -10.28579 -10.28410 -10.28290 -10.28174 -10.28029
 Alpha  occ. eigenvalues --  -10.27884 -10.27834 -10.27776 -10.27630 -10.27561
 Alpha  occ. eigenvalues --  -10.27546 -10.27542 -10.27488 -10.27448 -10.27420
 Alpha  occ. eigenvalues --  -10.27396 -10.27367 -10.27359 -10.27274 -10.27191
 Alpha  occ. eigenvalues --  -10.26909 -10.26785 -10.26602 -10.26468 -10.26350
 Alpha  occ. eigenvalues --  -10.26284 -10.26226 -10.26063 -10.26052 -10.25893
 Alpha  occ. eigenvalues --  -10.25864 -10.25824 -10.25707 -10.25469 -10.25294
 Alpha  occ. eigenvalues --  -10.24872 -10.24831 -10.24751 -10.24735 -10.24650
 Alpha  occ. eigenvalues --  -10.24578  -3.16586  -3.16297  -1.91468  -1.91179
 Alpha  occ. eigenvalues --   -1.91054  -1.90896  -1.90768  -1.90605  -1.16660
 Alpha  occ. eigenvalues --   -1.16521  -1.08652  -1.08517  -1.07263  -1.06878
 Alpha  occ. eigenvalues --   -1.06824  -1.06670  -1.04629  -1.04382  -1.03806
 Alpha  occ. eigenvalues --   -1.03551  -1.03278  -1.02926  -1.02455  -1.01997
 Alpha  occ. eigenvalues --   -0.92013  -0.91865  -0.89562  -0.89388  -0.89246
 Alpha  occ. eigenvalues --   -0.89041  -0.88329  -0.88117  -0.87906  -0.87723
 Alpha  occ. eigenvalues --   -0.87668  -0.87575  -0.87325  -0.87027  -0.85039
 Alpha  occ. eigenvalues --   -0.84894  -0.83977  -0.83774  -0.83018  -0.82845
 Alpha  occ. eigenvalues --   -0.82700  -0.82550  -0.81623  -0.81480  -0.80640
 Alpha  occ. eigenvalues --   -0.80332  -0.78844  -0.78531  -0.77267  -0.77039
 Alpha  occ. eigenvalues --   -0.76983  -0.76791  -0.75968  -0.75724  -0.74938
 Alpha  occ. eigenvalues --   -0.74696  -0.72817  -0.72585  -0.71716  -0.71467
 Alpha  occ. eigenvalues --   -0.69950  -0.69661  -0.68926  -0.68722  -0.67685
 Alpha  occ. eigenvalues --   -0.67492  -0.67282  -0.67106  -0.65340  -0.65162
 Alpha  occ. eigenvalues --   -0.64896  -0.64666  -0.64659  -0.64544  -0.64312
 Alpha  occ. eigenvalues --   -0.64099  -0.62332  -0.62163  -0.60490  -0.60240
 Alpha  occ. eigenvalues --   -0.59857  -0.59684  -0.59030  -0.58880  -0.58546
 Alpha  occ. eigenvalues --   -0.58312  -0.57619  -0.57425  -0.57350  -0.57128
 Alpha  occ. eigenvalues --   -0.56353  -0.56093  -0.56017  -0.55775  -0.55566
 Alpha  occ. eigenvalues --   -0.55376  -0.55348  -0.55138  -0.54559  -0.54379
 Alpha  occ. eigenvalues --   -0.53953  -0.53805  -0.53344  -0.53273  -0.53122
 Alpha  occ. eigenvalues --   -0.53036  -0.52956  -0.52811  -0.52794  -0.52579
 Alpha  occ. eigenvalues --   -0.52480  -0.52307  -0.51944  -0.51750  -0.51672
 Alpha  occ. eigenvalues --   -0.51558  -0.51236  -0.51086  -0.50630  -0.50394
 Alpha  occ. eigenvalues --   -0.50077  -0.49969  -0.49878  -0.49767  -0.49565
 Alpha  occ. eigenvalues --   -0.49387  -0.49257  -0.49145  -0.49090  -0.48986
 Alpha  occ. eigenvalues --   -0.48632  -0.48504  -0.48485  -0.48443  -0.48269
 Alpha  occ. eigenvalues --   -0.48239  -0.47743  -0.47492  -0.47342  -0.47019
 Alpha  occ. eigenvalues --   -0.46843  -0.46612  -0.46602  -0.46451  -0.46402
 Alpha  occ. eigenvalues --   -0.46200  -0.46164  -0.45970  -0.45856  -0.45700
 Alpha  occ. eigenvalues --   -0.45242  -0.45102  -0.44615  -0.44560  -0.44400
 Alpha  occ. eigenvalues --   -0.44370  -0.44189  -0.44141  -0.44060  -0.44015
 Alpha  occ. eigenvalues --   -0.43978  -0.43834  -0.43530  -0.43441  -0.43436
 Alpha  occ. eigenvalues --   -0.43275  -0.43069  -0.42817  -0.42781  -0.42735
 Alpha  occ. eigenvalues --   -0.42692  -0.42454  -0.42055  -0.41863  -0.41745
 Alpha  occ. eigenvalues --   -0.41591  -0.41549  -0.41356  -0.41187  -0.40924
 Alpha  occ. eigenvalues --   -0.40877  -0.40877  -0.40631  -0.40615  -0.40600
 Alpha  occ. eigenvalues --   -0.40389  -0.40305  -0.40134  -0.39486  -0.39331
 Alpha  occ. eigenvalues --   -0.38515  -0.38248  -0.37813  -0.37557  -0.37365
 Alpha  occ. eigenvalues --   -0.37319  -0.37160  -0.37092  -0.36746  -0.36655
 Alpha  occ. eigenvalues --   -0.36232  -0.36108  -0.34330  -0.34139  -0.33801
 Alpha  occ. eigenvalues --   -0.33743  -0.33229  -0.33062  -0.31391  -0.31183
 Alpha  occ. eigenvalues --   -0.31080  -0.30860  -0.30055  -0.29816  -0.29494
 Alpha  occ. eigenvalues --   -0.29361  -0.29220  -0.29089  -0.24125  -0.23921
 Alpha  occ. eigenvalues --   -0.21173  -0.21005
 Alpha virt. eigenvalues --   -0.08819  -0.08679  -0.01796  -0.01574  -0.00105
 Alpha virt. eigenvalues --    0.00075   0.02165   0.02333   0.03066   0.03329
 Alpha virt. eigenvalues --    0.04664   0.04839   0.05068   0.05288   0.06109

 Mulliken charges:
               1
     1  Mg   0.838566
     2  C   -0.003027
     3  C   -0.094436
     4  C   -0.045807
     5  C   -0.063904
     6  N   -0.256741
     7  C   -0.052542
     8  C   -0.013954
     9  C   -0.086946
    10  C    0.046186
    11  C    0.104808
    12  C    0.053599
    13  C   -0.071577
    14  H    0.035625
    15  N   -0.433126
    16  C    0.168282
    17  C   -0.177394
    18  C   -0.004052
    19  C    0.148636
    20  C    0.110237
    21  C    0.012254
    22  O   -0.249455
    23  C    0.062549
    24  N   -0.341147
    25  C    0.041193
    26  C   -0.028195
    27  C   -0.024014
    28  C    0.074882
    29  C    0.076125
    30  C    0.035101
    31  C   -0.004487
    32  N   -0.310538
    33  C    0.080484
    34  C   -0.169475
    35  C    0.008552
    36  C    0.083017
    37  C    0.127237
    38  C    0.046363
    39  O   -0.187844
    40  C   -0.005413
    41  C    0.213009
    42  O   -0.257064
    43  O   -0.304823
    44  C    0.157541
    45  H   -0.017715
    46  H   -0.016758
    47  H   -0.041317
    48  H    0.001111
    49  H   -0.004352
    50  H    0.025605
    51  H    0.016540
    52  H    0.016611
    53  H    0.010659
    54  H    0.044097
    55  H    0.018197
    56  H    0.017569
    57  H    0.005692
    58  H    0.026902
    59  H    0.038974
    60  H    0.037334
    61  H    0.035791
    62  H    0.031044
    63  H    0.016580
    64  H    0.009595
    65  H    0.023294
    66  H    0.012568
    67  H    0.004837
    68  H    0.006430
    69  H    0.004835
    70  H    0.008810
    71  H    0.017918
    72  H    0.028986
    73  H    0.048033
    74  H    0.009158
    75  H    0.046136
    76  H    0.035232
    77  H    0.043321
    78  H    0.046002
    79  H    0.053996
    80  Mg   0.838024
    81  C   -0.016660
    82  C   -0.087889
    83  C   -0.045559
    84  C   -0.064713
    85  N   -0.254534
    86  C   -0.049428
    87  C   -0.015142
    88  C   -0.090625
    89  C    0.045875
    90  C    0.114351
    91  C    0.062583
    92  C   -0.077650
    93  H    0.034564
    94  N   -0.423439
    95  C    0.162835
    96  C   -0.174959
    97  C   -0.007999
    98  C    0.152021
    99  C    0.099554
   100  C    0.015393
   101  O   -0.253343
   102  C    0.061294
   103  N   -0.350009
   104  C    0.037529
   105  C   -0.019831
   106  C   -0.034811
   107  C    0.089056
   108  C    0.073692
   109  C    0.034733
   110  C   -0.007616
   111  N   -0.324258
   112  C    0.078703
   113  C   -0.162776
   114  C    0.002749
   115  C    0.096223
   116  C    0.131327
   117  C    0.042994
   118  O   -0.187231
   119  C    0.000641
   120  C    0.211162
   121  O   -0.251356
   122  O   -0.305313
   123  C    0.152145
   124  H   -0.020266
   125  H   -0.015757
   126  H   -0.040433
   127  H   -0.000180
   128  H   -0.004940
   129  H    0.024030
   130  H    0.014456
   131  H    0.015361
   132  H    0.013694
   133  H    0.037666
   134  H    0.020811
   135  H    0.019191
   136  H    0.008342
   137  H    0.025580
   138  H    0.039427
   139  H    0.037957
   140  H    0.036133
   141  H    0.033734
   142  H    0.014157
   143  H    0.012492
   144  H    0.024891
   145  H    0.011943
   146  H    0.005609
   147  H    0.006051
   148  H    0.003626
   149  H    0.010812
   150  H    0.017756
   151  H    0.030180
   152  H    0.045926
   153  H    0.008182
   154  H    0.048269
   155  H    0.036454
   156  H    0.044021
   157  H    0.049157
   158  H    0.053359
 Sum of Mulliken charges =  -0.00000

 Dipole moment (field-independent basis, Debye):
    X=             -3.8582    Y=             -2.3625    Z=             -7.6322  Tot=              8.8723
 Quadrupole moment (field-independent basis, Debye-Ang):
   XX=           -514.5564   YY=           -552.0030   ZZ=           -447.4717
   XY=             -3.2314   XZ=             -0.7141   YZ=            -48.5554

 Normal termination of Gaussian 16 at Sat Sep 11 15:05:43 2021.
