 Gaussian 16, Revision A.03,
 Gaussian 16:  ES64L-G16RevA.03 25-Dec-2016

 -----------------------------------
 #p cam-b3lyp/Def2SVP td=(nstates=5)
 -----------------------------------

 --------------------------------
 TDDFT excited states in gaussian
 --------------------------------
 Symbolic Z-matrix:
 Charge =  0 Multiplicity = 1

                         Standard orientation:
 ---------------------------------------------------------------------
 Center     Atomic      Atomic             Coordinates (Angstroms)
 Number     Number       Type             X           Y           Z
 ---------------------------------------------------------------------
      1         12           0       15.642092   -0.905657    0.169967
      2          6           0       15.891604    2.551865   -0.721941
      3          6           0       16.491902    0.005942    3.346424
      4          6           0       15.872562   -3.988512    0.876724
      5          6           0       15.932983   -1.649510   -3.222337
      6          7           0       16.106373    1.060912    1.074233
      7          6           0       16.108363    2.316496    0.637567
      8          6           0       16.287711    3.365925    1.775067
      9          6           0       17.018864    2.446358    2.852940
     10          6           0       16.480575    1.093132    2.422885
     11          6           0       18.537932    2.436906    2.715661
     12          6           0       14.917511    3.899977    2.312721
     13          6           0       15.002832    5.154535    3.186883
     14          1           0       13.938625    6.143011    3.098976
     15          7           0       15.632695   -1.823170    1.919519
     16          6           0       15.994497   -1.294466    3.113192
     17          6           0       15.812252   -2.372733    4.108586
     18          6           0       15.496543   -3.626235    3.368887
     19          6           0       15.682841   -3.196346    2.006585
     20          6           0       15.892721   -2.149433    5.587576
     21          6           0       15.101461   -4.997196    3.818896
     22          8           0       15.100111   -5.999537    3.025244
     23          6           0       14.797237   -5.155802    5.252540
     24          7           0       16.089892   -2.594722   -0.972035
     25          6           0       16.065387   -3.818545   -0.432923
     26          6           0       16.137255   -4.881750   -1.488559
     27          6           0       15.970774   -4.128523   -2.886660
     28          6           0       15.910618   -2.671899   -2.364264
     29          6           0       17.424130   -5.718125   -1.509533
     30          6           0       14.839353   -4.623974   -3.821986
     31          6           0       13.492817   -4.318518   -3.205030
     32          7           0       15.694644    0.224091   -1.682586
     33          6           0       15.844169   -0.289057   -2.979118
     34          6           0       15.930903    0.864762   -3.893036
     35          6           0       15.841874    1.976379   -3.057436
     36          6           0       15.734401    1.544556   -1.704562
     37          6           0       16.131169    0.800071   -5.300212
     38          6           0       15.837313    3.428740   -2.990477
     39          8           0       15.806914    4.335162   -3.824125
     40          6           0       15.991929    3.860516   -1.465521
     41          6           0       14.952906    4.911205   -1.183050
     42          8           0       13.737421    4.628730   -1.196100
     43          8           0       15.553406    6.015044   -0.712432
     44          6           0       14.575743    7.086746   -0.384130
     45          1           0       16.977416    0.141121    4.314898
     46          1           0       15.846865   -5.063891    1.064711
     47          1           0       15.939581   -1.804889   -4.302738
     48          1           0       16.923196    4.212943    1.515945
     49          1           0       16.698032    2.676377    3.868756
     50          1           0       18.860025    2.962864    1.817026
     51          1           0       18.818815    1.384882    2.662331
     52          1           0       19.010754    2.827961    3.616933
     53          1           0       14.517006    3.193897    3.040119
     54          1           0       14.224144    4.079997    1.490431
     55          1           0       15.978073    5.634578    3.101023
     56          1           0       14.942846    4.847880    4.231184
     57          1           0       16.301493   -1.167513    5.822701
     58          1           0       16.630819   -2.850996    5.975815
     59          1           0       14.934315   -2.314067    6.080207
     60          1           0       15.670306   -4.869812    5.839488
     61          1           0       14.447990   -6.180528    5.374253
     62          1           0       14.003584   -4.459211    5.524245
     63          1           0       15.329186   -5.602912   -1.372897
     64          1           0       16.870716   -4.197670   -3.498213
     65          1           0       17.251268   -6.790137   -1.411479
     66          1           0       18.076299   -5.353037   -0.716642
     67          1           0       18.050016   -5.571902   -2.389478
     68          1           0       14.897003   -5.704672   -3.947337
     69          1           0       14.872352   -4.172832   -4.813768
     70          1           0       13.339452   -5.157758   -2.527544
     71          1           0       12.719707   -4.290904   -3.973632
     72          1           0       13.528763   -3.412958   -2.599097
     73          1           0       15.445252    1.524277   -5.739543
     74          1           0       15.944576   -0.203818   -5.680991
     75          1           0       17.181270    1.083885   -5.367985
     76          1           0       17.004837    4.244871   -1.349713
     77          1           0       14.871695    7.973791   -0.944306
     78          1           0       14.550015    7.160225    0.703227
     79          1           0       13.559300    6.941000   -0.751474
     80         12           0      -16.112387   -0.558017   -0.181353
     81          6           0      -14.220275    2.487536   -0.334797
     82          6           0      -17.098883    0.387663    2.943880
     83          6           0      -17.421489   -3.427385    0.165701
     84          6           0      -14.111902   -1.768030   -2.765853
     85          7           0      -15.652523    1.229208    1.037903
     86          6           0      -14.970965    2.349473    0.851307
     87          6           0      -15.165494    3.413698    1.964484
     88          6           0      -15.597559    2.433769    3.161116
     89          6           0      -16.187204    1.289483    2.339181
     90          6           0      -14.417996    1.894578    3.953111
     91          6           0      -16.304069    4.437119    1.620603
     92          6           0      -16.341706    5.680619    2.511693
     93          1           0      -16.729935    6.954599    1.912766
     94          7           0      -17.490659   -1.194744    1.096738
     95          6           0      -17.772990   -0.680370    2.312048
     96          6           0      -18.850780   -1.516800    2.862444
     97          6           0      -19.068284   -2.666564    1.942960
     98          6           0      -17.963641   -2.481376    1.023422
     99          6           0      -19.613423   -1.149485    4.102145
    100          6           0      -20.092474   -3.760121    1.905845
    101          8           0      -19.950707   -4.790299    1.156527
    102          6           0      -21.219811   -3.634530    2.841169
    103          7           0      -15.678184   -2.415308   -1.008580
    104          6           0      -16.436238   -3.490379   -0.730190
    105          6           0      -16.105028   -4.643593   -1.647140
    106          6           0      -15.131369   -4.039478   -2.762769
    107          6           0      -14.990813   -2.599253   -2.222961
    108          6           0      -15.435522   -5.848147   -0.985932
    109          6           0      -15.552197   -4.235482   -4.245045
    110          6           0      -16.799974   -3.433711   -4.537648
    111          7           0      -14.588024    0.254425   -1.479164
    112          6           0      -13.860998   -0.433038   -2.475602
    113          6           0      -12.857502    0.509778   -3.010878
    114          6           0      -13.056627    1.682486   -2.266836
    115          6           0      -14.096334    1.478082   -1.319875
    116          6           0      -11.893654    0.216493   -4.016428
    117          6           0      -12.616552    3.043441   -2.059920
    118          8           0      -11.826176    3.796589   -2.627203
    119          6           0      -13.265031    3.585084   -0.713632
    120          6           0      -13.837908    4.948230   -0.989609
    121          8           0      -14.794498    5.085152   -1.772420
    122          8           0      -13.308480    5.832132   -0.124287
    123          6           0      -13.854232    7.196887   -0.351104
    124          1           0      -17.285660    0.478555    4.014277
    125          1           0      -17.912638   -4.403215    0.168923
    126          1           0      -13.516138   -2.037969   -3.640421
    127          1           0      -14.268299    3.957533    2.234791
    128          1           0      -16.362029    2.887343    3.786595
    129          1           0      -13.473816    2.166755    3.505243
    130          1           0      -14.536529    0.818971    3.961802
    131          1           0      -14.487263    2.213856    4.996948
    132          1           0      -17.274389    3.992758    1.877063
    133          1           0      -16.252890    4.732105    0.590560
    134          1           0      -15.421690    5.795901    3.097546
    135          1           0      -17.123015    5.545258    3.263533
    136          1           0      -19.120186   -0.338735    4.652433
    137          1           0      -19.558064   -2.009558    4.778222
    138          1           0      -20.663088   -0.925728    3.900156
    139          1           0      -20.840737   -3.586125    3.859210
    140          1           0      -21.890340   -4.462658    2.603538
    141          1           0      -21.729177   -2.683521    2.649462
    142          1           0      -16.997774   -5.023747   -2.128390
    143          1           0      -14.129569   -4.491322   -2.717206
    144          1           0      -15.991079   -6.793109   -1.135895
    145          1           0      -15.320314   -5.638103    0.069120
    146          1           0      -14.409318   -6.034928   -1.297722
    147          1           0      -15.804919   -5.282117   -4.431743
    148          1           0      -14.778532   -3.959625   -4.953789
    149          1           0      -17.602420   -4.088498   -4.184915
    150          1           0      -16.889182   -3.239633   -5.604610
    151          1           0      -16.830992   -2.519489   -3.933587
    152          1           0      -11.877829    1.063710   -4.689081
    153          1           0      -12.135260   -0.704991   -4.542042
    154          1           0      -10.995247    0.114990   -3.401760
    155          1           0      -12.477084    3.617034    0.039818
    156          1           0      -12.998845    7.860511   -0.511103
    157          1           0      -14.500158    7.409170    0.521509
    158          1           0      -14.424335    7.364455   -1.257386
 ---------------------------------------------------------------------

 SCF Done:  E(RCAM-B3LYP) =  -4069.81174909     A.U. after   19 cycles

 Excitation energies and oscillator strengths:

 Excited State   1:      Singlet-A      1.6754 eV  740.02 nm  f=0.2803  <S**2>=0.000
     310 -> 316       -0.16990
     311 -> 313        0.67160
     312 -> 314       -0.14007
     310 <- 316       -0.10242
 This state for optimization and/or second-order correction.
 Total Energy, E(TD-HF/TD-DFT) =  -4069.75017874
 Copying the excited state density for this state as the 1-particle RhoCI density.

 Excited State   2:      Singlet-A      1.6800 eV  737.99 nm  f=0.4990  <S**2>=0.000
     309 -> 315        0.17188
     311 -> 313        0.14004
     312 -> 314        0.67124
     309 <- 315        0.10291

 Excited State   3:      Singlet-A      2.1861 eV  567.15 nm  f=0.0946  <S**2>=0.000
     310 -> 313        0.64203
     311 -> 316        0.27295

 Excited State   4:      Singlet-A      2.1925 eV  565.50 nm  f=0.1055  <S**2>=0.000
     309 -> 314        0.64027
     312 -> 315       -0.27810

 Excited State   5:      Singlet-A      3.0554 eV  405.78 nm  f=0.0000  <S**2>=0.000
     312 -> 313        0.70710

 The electronic state is 1-A.
 Alpha  occ. eigenvalues --  -46.87762 -46.87659 -19.26344 -19.26244 -19.19156
 Alpha  occ. eigenvalues --  -19.18979 -19.18783 -19.18714 -19.18133 -19.18046
 Alpha  occ. eigenvalues --  -14.42497 -14.42415 -14.41415 -14.41358 -14.39368
 Alpha  occ. eigenvalues --  -14.39351 -14.38598 -14.38551 -10.39086 -10.39039
 Alpha  occ. eigenvalues --  -10.35416 -10.35392 -10.34353 -10.34224 -10.31750
 Alpha  occ. eigenvalues --  -10.31638 -10.31370 -10.31307 -10.31023 -10.30874
 Alpha  occ. eigenvalues --  -10.30534 -10.30472 -10.30396 -10.30359 -10.30173
 Alpha  occ. eigenvalues --  -10.30140 -10.29893 -10.29886 -10.29596 -10.29436
 Alpha  occ. eigenvalues --  -10.29399 -10.29220 -10.28718 -10.28714 -10.28653
 Alpha  occ. eigenvalues --  -10.28501 -10.28403 -10.28330 -10.28140 -10.28082
 Alpha  occ. eigenvalues --  -10.27999 -10.27758 -10.27693 -10.27668 -10.27550
 Alpha  occ. eigenvalues --  -10.27517 -10.27482 -10.27468 -10.27467 -10.27464
 Alpha  occ. eigenvalues --  -10.27450 -10.27416 -10.27375 -10.27368 -10.27121
 Alpha  occ. eigenvalues --  -10.27046 -10.26692 -10.26668 -10.26416 -10.26380
 Alpha  occ. eigenvalues --  -10.26202 -10.26149 -10.26136 -10.26026 -10.25985
 Alpha  occ. eigenvalues --  -10.25933 -10.25844 -10.25807 -10.25404 -10.25398
 Alpha  occ. eigenvalues --  -10.24870 -10.24797 -10.24753 -10.24729 -10.24689
 Alpha  occ. eigenvalues --  -10.24650  -3.16504  -3.16409  -1.91386  -1.91292
 Alpha  occ. eigenvalues --   -1.90972  -1.90880  -1.90815  -1.90717  -1.16638
 Alpha  occ. eigenvalues --   -1.16592  -1.08653  -1.08590  -1.07184  -1.06966
 Alpha  occ. eigenvalues --   -1.06940  -1.06602  -1.04546  -1.04494  -1.03726
 Alpha  occ. eigenvalues --   -1.03662  -1.03199  -1.03037  -1.02376  -1.02110
 Alpha  occ. eigenvalues --   -0.91985  -0.91936  -0.89493  -0.89485  -0.89153
 Alpha  occ. eigenvalues --   -0.89151  -0.88253  -0.88219  -0.87835  -0.87790
 Alpha  occ. eigenvalues --   -0.87683  -0.87638  -0.87241  -0.87120  -0.84999
 Alpha  occ. eigenvalues --   -0.84947  -0.83902  -0.83875  -0.82935  -0.82931
 Alpha  occ. eigenvalues --   -0.82652  -0.82614  -0.81593  -0.81548  -0.80561
 Alpha  occ. eigenvalues --   -0.80440  -0.78763  -0.78634  -0.77184  -0.77143
 Alpha  occ. eigenvalues --   -0.76898  -0.76897  -0.75888  -0.75837  -0.74864
 Alpha  occ. eigenvalues --   -0.74802  -0.72739  -0.72697  -0.71638  -0.71580
 Alpha  occ. eigenvalues --   -0.69872  -0.69756  -0.68838  -0.68826  -0.67606
 Alpha  occ. eigenvalues --   -0.67600  -0.67199  -0.67185  -0.65270  -0.65251
 Alpha  occ. eigenvalues --   -0.64818  -0.64768  -0.64652  -0.64585  -0.64235
 Alpha  occ. eigenvalues --   -0.64202  -0.62275  -0.62260  -0.60409  -0.60339
 Alpha  occ. eigenvalues --   -0.59796  -0.59769  -0.58991  -0.58952  -0.58468
 Alpha  occ. eigenvalues --   -0.58424  -0.57551  -0.57547  -0.57274  -0.57235
 Alpha  occ. eigenvalues --   -0.56275  -0.56202  -0.55940  -0.55883  -0.55486
 Alpha  occ. eigenvalues --   -0.55450  -0.55304  -0.55245  -0.54487  -0.54485
 Alpha  occ. eigenvalues --   -0.53912  -0.53860  -0.53264  -0.53226  -0.53187
 Alpha  occ. eigenvalues --   -0.53140  -0.52900  -0.52878  -0.52723  -0.52668
 Alpha  occ. eigenvalues --   -0.52403  -0.52399  -0.51880  -0.51879  -0.51658
 Alpha  occ. eigenvalues --   -0.51581  -0.51198  -0.51160  -0.50540  -0.50476
 Alpha  occ. eigenvalues --   -0.49997  -0.49979  -0.49885  -0.49866  -0.49487
 Alpha  occ. eigenvalues --   -0.49480  -0.49201  -0.49179  -0.49102  -0.49061
 Alpha  occ. eigenvalues --   -0.48557  -0.48556  -0.48428  -0.48411  -0.48374
 Alpha  occ. eigenvalues --   -0.48338  -0.47660  -0.47593  -0.47263  -0.47117
 Alpha  occ. eigenvalues --   -0.46762  -0.46708  -0.46553  -0.46520  -0.46324
 Alpha  occ. eigenvalues --   -0.46269  -0.46127  -0.46083  -0.45819  -0.45785
 Alpha  occ. eigenvalues --   -0.45208  -0.45168  -0.44542  -0.44512  -0.44475
 Alpha  occ. eigenvalues --   -0.44473  -0.44126  -0.44110  -0.44076  -0.44054
 Alpha  occ. eigenvalues --   -0.43984  -0.43938  -0.43550  -0.43458  -0.43384
 Alpha  occ. eigenvalues --   -0.43351  -0.42992  -0.42927  -0.42898  -0.42662
 Alpha  occ. eigenvalues --   -0.42618  -0.42552  -0.41974  -0.41963  -0.41669
 Alpha  occ. eigenvalues --   -0.41667  -0.41498  -0.41458  -0.41107  -0.40989
 Alpha  occ. eigenvalues --   -0.40834  -0.40790  -0.40722  -0.40698  -0.40537
 Alpha  occ. eigenvalues --   -0.40492  -0.40226  -0.40198  -0.39424  -0.39406
 Alpha  occ. eigenvalues --   -0.38435  -0.38349  -0.37712  -0.37653  -0.37286
 Alpha  occ. eigenvalues --   -0.37265  -0.37228  -0.37198  -0.36767  -0.36675
 Alpha  occ. eigenvalues --   -0.36215  -0.36156  -0.34252  -0.34251  -0.33858
 Alpha  occ. eigenvalues --   -0.33731  -0.33174  -0.33151  -0.31312  -0.31273
 Alpha  occ. eigenvalues --   -0.31001  -0.30972  -0.29992  -0.29951  -0.29415
 Alpha  occ. eigenvalues --   -0.29326  -0.29286  -0.29209  -0.24045  -0.24035
 Alpha  occ. eigenvalues --   -0.21116  -0.21093
 Alpha virt. eigenvalues --   -0.08790  -0.08740  -0.01715  -0.01683  -0.00028
 Alpha virt. eigenvalues --   -0.00024   0.02210   0.02236   0.03159   0.03229
 Alpha virt. eigenvalues --    0.04730   0.04753   0.05138   0.05170   0.06183

 Mulliken charges:
               1
     1  Mg   0.838728
     2  C   -0.002928
     3  C   -0.094117
     4  C   -0.045861
     5  C   -0.063964
     6  N   -0.256750
     7  C   -0.052474
     8  C   -0.014017
     9  C   -0.086994
    10  C    0.046305
    11  C    0.104824
    12  C    0.053475
    13  C   -0.071823
    14  H    0.036207
    15  N   -0.433109
    16  C    0.168413
    17  C   -0.177170
    18  C   -0.004015
    19  C    0.148703
    20  C    0.110191
    21  C    0.012275
    22  O   -0.249656
    23  C    0.062481
    24  N   -0.341131
    25  C    0.041224
    26  C   -0.028141
    27  C   -0.024000
    28  C    0.074870
    29  C    0.076180
    30  C    0.035133
    31  C   -0.004508
    32  N   -0.310477
    33  C    0.080435
    34  C   -0.169685
    35  C    0.008373
    36  C    0.083016
    37  C    0.127301
    38  C    0.046153
    39  O   -0.188385
    40  C   -0.005359
    41  C    0.212892
    42  O   -0.257030
    43  O   -0.304829
    44  C    0.157663
    45  H   -0.017644
    46  H   -0.016872
    47  H   -0.041484
    48  H    0.000927
    49  H   -0.004043
    50  H    0.025465
    51  H    0.016424
    52  H    0.016619
    53  H    0.011215
    54  H    0.044178
    55  H    0.017836
    56  H    0.017924
    57  H    0.005856
    58  H    0.026770
    59  H    0.039540
    60  H    0.037312
    61  H    0.035608
    62  H    0.031518
    63  H    0.016547
    64  H    0.009436
    65  H    0.023177
    66  H    0.012521
    67  H    0.004728
    68  H    0.006332
    69  H    0.004745
    70  H    0.008761
    71  H    0.018200
    72  H    0.029015
    73  H    0.047637
    74  H    0.009122
    75  H    0.045981
    76  H    0.035123
    77  H    0.042952
    78  H    0.046382
    79  H    0.053775
    80  Mg   0.837847
    81  C   -0.016833
    82  C   -0.087790
    83  C   -0.045520
    84  C   -0.064860
    85  N   -0.254558
    86  C   -0.049832
    87  C   -0.015078
    88  C   -0.090512
    89  C    0.045735
    90  C    0.114374
    91  C    0.062533
    92  C   -0.077907
    93  H    0.034930
    94  N   -0.423500
    95  C    0.162922
    96  C   -0.174647
    97  C   -0.007817
    98  C    0.152108
    99  C    0.099367
   100  C    0.015563
   101  O   -0.253195
   102  C    0.061208
   103  N   -0.350070
   104  C    0.037520
   105  C   -0.019849
   106  C   -0.034814
   107  C    0.088906
   108  C    0.073660
   109  C    0.034732
   110  C   -0.007682
   111  N   -0.324114
   112  C    0.078461
   113  C   -0.163103
   114  C    0.002264
   115  C    0.096201
   116  C    0.131495
   117  C    0.042428
   118  O   -0.187746
   119  C    0.000897
   120  C    0.211284
   121  O   -0.251012
   122  O   -0.305631
   123  C    0.152010
   124  H   -0.019686
   125  H   -0.015580
   126  H   -0.040403
   127  H   -0.000629
   128  H   -0.004336
   129  H    0.022480
   130  H    0.014417
   131  H    0.016252
   132  H    0.013912
   133  H    0.037698
   134  H    0.020782
   135  H    0.019575
   136  H    0.008747
   137  H    0.026118
   138  H    0.039790
   139  H    0.038232
   140  H    0.036389
   141  H    0.033900
   142  H    0.014405
   143  H    0.012450
   144  H    0.025135
   145  H    0.011617
   146  H    0.005691
   147  H    0.006270
   148  H    0.003695
   149  H    0.010923
   150  H    0.017964
   151  H    0.030092
   152  H    0.046079
   153  H    0.008540
   154  H    0.047018
   155  H    0.035052
   156  H    0.043972
   157  H    0.049463
   158  H    0.053603
 Sum of Mulliken charges =  -0.00000

 Dipole moment (field-independent basis, Debye):
    X=              0.8195    Y=             -1.0788    Z=              8.3883  Tot=              8.4970
 Quadrupole moment (field-independent basis, Debye-Ang):
   XX=           -422.9632   YY=           -522.8066   ZZ=           -472.9701
   XY=            -17.1084   XZ=             -7.3092   YZ=             59.8168

 Normal termination of Gaussian 16 at Sun Sep 12 18:13:32 2021.
