 Gaussian 16, Revision A.03,
 Gaussian 16:  ES64L-G16RevA.03 25-Dec-2016

 -----------------------------------
 #p cam-b3lyp/Def2SVP td=(nstates=5)
 -----------------------------------

 --------------------------------
 TDDFT excited states in gaussian
 --------------------------------
 Symbolic Z-matrix:
 Charge =  0 Multiplicity = 1

                         Standard orientation:
 ---------------------------------------------------------------------
 Center     Atomic      Atomic             Coordinates (Angstroms)
 Number     Number       Type             X           Y           Z
 ---------------------------------------------------------------------
      1         12           0        4.907959   -1.320798    0.476717
      2          6           0        5.612933    1.995140   -0.672101
      3          6           0        5.645492   -0.227251    3.623663
      4          6           0        4.734149   -4.334800    1.447390
      5          6           0        5.334612   -2.392177   -2.812017
      6          7           0        5.535175    0.656189    1.250520
      7          6           0        5.710801    1.859958    0.714547
      8          6           0        5.934431    2.980957    1.773189
      9          6           0        6.481831    2.087064    2.974567
     10          6           0        5.820667    0.767748    2.616528
     11          6           0        7.995401    1.899498    2.953925
     12          6           0        4.602456    3.707393    2.160310
     13          6           0        4.773950    5.018203    2.933436
     14          1           0        3.838991    6.105177    2.685066
     15          7           0        4.677236   -2.071729    2.289373
     16          6           0        5.017937   -1.481152    3.460026
     17          6           0        4.647189   -2.439751    4.523189
     18          6           0        4.238589   -3.712330    3.866163
     19          6           0        4.562820   -3.428855    2.491428
     20          6           0        4.654979   -2.095288    5.980938
     21          6           0        3.659171   -4.986188    4.395021
     22          8           0        3.594671   -6.049283    3.687742
     23          6           0        3.244632   -4.981839    5.809652
     24          7           0        5.232442   -3.143941   -0.486868
     25          6           0        5.031394   -4.304650    0.146628
     26          6           0        5.049753   -5.459414   -0.810516
     27          6           0        5.063990   -4.820500   -2.273847
     28          6           0        5.137842   -3.325195   -1.877765
     29          6           0        6.230140   -6.429865   -0.665869
     30          6           0        3.947266   -5.270995   -3.248732
     31          6           0        2.607141   -4.766363   -2.762408
     32          7           0        5.212734   -0.373678   -1.452303
     33          6           0        5.387414   -1.013903   -2.687727
     34          6           0        5.666828    0.037207   -3.683298
     35          6           0        5.651582    1.222105   -2.950066
     36          6           0        5.405876    0.927262   -1.578575
     37          6           0        5.950829   -0.174483   -5.061327
     38          6           0        5.810134    2.666410   -3.002042
     39          8           0        5.939620    3.492569   -3.906579
     40          6           0        5.912421    3.213271   -1.509960
     41          6           0        4.985126    4.392189   -1.393401
     42          8           0        3.748710    4.244151   -1.475419
     43          8           0        5.676508    5.461443   -0.970048
     44          6           0        4.809425    6.658557   -0.805007
     45          1           0        6.078301   -0.059902    4.611899
     46          1           0        4.572239   -5.379804    1.719767
     47          1           0        5.394614   -2.643286   -3.872582
     48          1           0        6.679083    3.726917    1.494870
     49          1           0        6.123258    2.440618    3.941080
     50          1           0        8.434667    2.304689    2.042450
     51          1           0        8.155989    0.822556    3.007794
     52          1           0        8.449580    2.315542    3.853595
     53          1           0        4.076015    3.117145    2.910329
     54          1           0        3.990331    3.887858    1.275968
     55          1           0        5.801573    5.379234    2.882890
     56          1           0        4.610133    4.814508    3.991676
     57          1           0        5.157833   -1.146836    6.165661
     58          1           0        5.279968   -2.835756    6.479742
     59          1           0        3.653541   -2.109550    6.411346
     60          1           0        4.104158   -4.741622    6.435799
     61          1           0        2.772264   -5.947277    5.987547
     62          1           0        2.520405   -4.181240    5.962902
     63          1           0        4.158043   -6.074747   -0.698076
     64          1           0        5.988378   -5.041920   -2.807845
     65          1           0        5.928700   -7.463499   -0.494284
     66          1           0        6.866241   -6.068806    0.141784
     67          1           0        6.925474   -6.432123   -1.504869
     68          1           0        3.888051   -6.358376   -3.281008
     69          1           0        4.097528   -4.916617   -4.268579
     70          1           0        2.313588   -5.519896   -2.032445
     71          1           0        1.894857   -4.723269   -3.587032
     72          1           0        2.707171   -3.819638   -2.231191
     73          1           0        5.383546    0.578134   -5.608799
     74          1           0        5.675274   -1.181973   -5.372191
     75          1           0        7.028823   -0.014278   -5.072263
     76          1           0        6.953017    3.493482   -1.349449
     77          1           0        5.242063    7.454326   -1.411481
     78          1           0        4.720557    6.831296    0.267685
     79          1           0        3.809462    6.592470   -1.235178
     80         12           0       -5.565951   -0.054567   -0.451378
     81          6           0       -3.169513    2.616748   -0.466428
     82          6           0       -6.900864    1.358702    2.351355
     83          6           0       -7.400389   -2.625723   -0.149005
     84          6           0       -3.389797   -1.832525   -2.512668
     85          7           0       -5.018508    1.754103    0.698093
     86          6           0       -4.128245    2.725369    0.562385
     87          6           0       -4.323596    3.917703    1.536942
     88          6           0       -5.123868    3.150191    2.698563
     89          6           0       -5.753141    2.034984    1.866098
     90          6           0       -4.214556    2.515567    3.737669
     91          6           0       -5.186147    5.068049    0.908681
     92          6           0       -5.159133    6.388048    1.682393
     93          1           0       -5.206083    7.637812    0.928500
     94          7           0       -7.236594   -0.325570    0.585010
     95          6           0       -7.631741    0.351751    1.683363
     96          6           0       -8.919361   -0.239517    2.079074
     97          6           0       -9.172068   -1.429735    1.222202
     98          6           0       -7.908706   -1.520678    0.518115
     99          6           0       -9.809975    0.372705    3.120903
    100          6           0      -10.350453   -2.343521    1.071836
    101          8           0      -10.263762   -3.455885    0.441000
    102          6           0      -11.583786   -1.942228    1.764197
    103          7           0       -5.328128   -2.033667   -1.042073
    104          6           0       -6.300563   -2.938749   -0.834355
    105          6           0       -6.022756   -4.219693   -1.584282
    106          6           0       -4.778208   -3.899061   -2.536057
    107          6           0       -4.482539   -2.451231   -2.086885
    108          6           0       -5.701960   -5.439696   -0.721104
    109          6           0       -4.961502   -4.179588   -4.052757
    110          6           0       -5.977842   -3.223994   -4.635232
    111          7           0       -3.719392    0.363545   -1.492267
    112          6           0       -2.962186   -0.531757   -2.279123
    113          6           0       -1.730420    0.177383   -2.681990
    114          6           0       -1.846633    1.438259   -2.077690
    115          6           0       -3.055259    1.502865   -1.333007
    116          6           0       -0.672761   -0.369762   -3.461795
    117          6           0       -1.216636    2.725585   -1.891717
    118          8           0       -0.219163    3.279232   -2.352428
    119          6           0       -1.984548    3.501867   -0.736686
    120          6           0       -2.251081    4.902479   -1.216041
    121          8           0       -3.016894    5.107596   -2.174195
    122          8           0       -1.733607    5.776253   -0.333368
    123          6           0       -1.982164    7.179253   -0.759552
    124          1           0       -7.252757    1.589908    3.357136
    125          1           0       -8.048708   -3.504826   -0.167298
    126          1           0       -2.707470   -2.284265   -3.235870
    127          1           0       -3.405848    4.336594    1.931949
    128          1           0       -5.893751    3.783023    3.132333
    129          1           0       -3.173707    2.585052    3.458485
    130          1           0       -4.520449    1.479600    3.802851
    131          1           0       -4.407731    2.949404    4.722965
    132          1           0       -6.249225    4.813673    1.008183
    133          1           0       -4.904654    5.241501   -0.111758
    134          1           0       -4.349903    6.415689    2.422223
    135          1           0       -6.071187    6.458705    2.280039
    136          1           0       -9.285415    1.147437    3.693646
    137          1           0      -10.026013   -0.409532    3.856633
    138          1           0      -10.752100    0.738778    2.707306
    139          1           0      -11.385865   -1.848565    2.829329
    140          1           0      -12.337775   -2.672960    1.465152
    141          1           0      -11.876135   -0.947484    1.409750
    142          1           0       -6.870516   -4.500736   -2.197008
    143          1           0       -3.895333   -4.497773   -2.267918
    144          1           0       -6.380466   -6.294271   -0.903877
    145          1           0       -5.737638   -5.141365    0.318255
    146          1           0       -4.686302   -5.819573   -0.817697
    147          1           0       -5.358143   -5.186157   -4.206497
    148          1           0       -4.039608   -4.106606   -4.620007
    149          1           0       -6.932197   -3.701648   -4.394105
    150          1           0       -5.843683   -3.131042   -5.711064
    151          1           0       -5.952303   -2.258347   -4.117033
    152          1           0       -0.390628    0.388853   -4.179707
    153          1           0       -0.977378   -1.290782   -3.954444
    154          1           0        0.072303   -0.548434   -2.681902
    155          1           0       -1.347222    3.486370    0.148267
    156          1           0       -1.008632    7.677327   -0.802585
    157          1           0       -2.722914    7.582199   -0.043536
    158          1           0       -2.346602    7.339808   -1.767447
 ---------------------------------------------------------------------

 SCF Done:  E(RCAM-B3LYP) =  -4069.80856720     A.U. after   19 cycles

 Excitation energies and oscillator strengths:

 Excited State   1:      Singlet-A      1.6567 eV  748.37 nm  f=0.1654  <S**2>=0.000
     309 -> 315       -0.11501
     310 -> 316        0.12404
     311 -> 313       -0.46681
     312 -> 314        0.50410
 This state for optimization and/or second-order correction.
 Total Energy, E(TD-HF/TD-DFT) =  -4069.74768376
 Copying the excited state density for this state as the 1-particle RhoCI density.

 Excited State   2:      Singlet-A      1.6981 eV  730.12 nm  f=0.5882  <S**2>=0.000
     309 -> 315        0.13172
     310 -> 316        0.12129
     311 -> 313        0.50223
     312 -> 314        0.46529

 Excited State   3:      Singlet-A      2.1834 eV  567.84 nm  f=0.0026  <S**2>=0.000
     309 -> 313       -0.40701
     310 -> 314        0.49888
     311 -> 315        0.17111
     312 -> 316       -0.21040

 Excited State   4:      Singlet-A      2.1954 eV  564.74 nm  f=0.1740  <S**2>=0.000
     309 -> 313        0.49500
     310 -> 314        0.40352
     311 -> 315       -0.21866
     312 -> 316       -0.17726

 Excited State   5:      Singlet-A      2.5084 eV  494.28 nm  f=0.0000  <S**2>=0.000
     312 -> 313        0.70677

 The electronic state is 1-A.
 Alpha  occ. eigenvalues --  -46.87608 -46.87418 -19.26029 -19.25761 -19.18819
 Alpha  occ. eigenvalues --  -19.18671 -19.18496 -19.18356 -19.17836 -19.17482
 Alpha  occ. eigenvalues --  -14.42274 -14.42259 -14.41275 -14.41117 -14.39217
 Alpha  occ. eigenvalues --  -14.39105 -14.38374 -14.38332 -10.38753 -10.38462
 Alpha  occ. eigenvalues --  -10.35310 -10.35178 -10.34049 -10.33672 -10.31516
 Alpha  occ. eigenvalues --  -10.31233 -10.31185 -10.31052 -10.30804 -10.30703
 Alpha  occ. eigenvalues --  -10.30351 -10.30308 -10.30127 -10.30077 -10.30075
 Alpha  occ. eigenvalues --  -10.29941 -10.29739 -10.29634 -10.29427 -10.29213
 Alpha  occ. eigenvalues --  -10.29126 -10.29086 -10.28539 -10.28532 -10.28527
 Alpha  occ. eigenvalues --  -10.28347 -10.28140 -10.28134 -10.27967 -10.27921
 Alpha  occ. eigenvalues --  -10.27699 -10.27575 -10.27544 -10.27443 -10.27424
 Alpha  occ. eigenvalues --  -10.27392 -10.27353 -10.27350 -10.27331 -10.27272
 Alpha  occ. eigenvalues --  -10.27231 -10.27203 -10.27175 -10.27174 -10.26793
 Alpha  occ. eigenvalues --  -10.26657 -10.26524 -10.26460 -10.26311 -10.26242
 Alpha  occ. eigenvalues --  -10.26183 -10.26060 -10.25983 -10.25907 -10.25857
 Alpha  occ. eigenvalues --  -10.25704 -10.25619 -10.25499 -10.25344 -10.25205
 Alpha  occ. eigenvalues --  -10.24765 -10.24605 -10.24593 -10.24574 -10.24564
 Alpha  occ. eigenvalues --  -10.24438  -3.16352  -3.16169  -1.91234  -1.91051
 Alpha  occ. eigenvalues --   -1.90820  -1.90661  -1.90640  -1.90476  -1.16316
 Alpha  occ. eigenvalues --   -1.16093  -1.08267  -1.08079  -1.07077  -1.06753
 Alpha  occ. eigenvalues --   -1.06591  -1.06011  -1.04379  -1.04259  -1.03582
 Alpha  occ. eigenvalues --   -1.03419  -1.03038  -1.02788  -1.02216  -1.01855
 Alpha  occ. eigenvalues --   -0.91714  -0.91689  -0.89392  -0.89265  -0.88982
 Alpha  occ. eigenvalues --   -0.88967  -0.88160  -0.88005  -0.87651  -0.87495
 Alpha  occ. eigenvalues --   -0.87484  -0.87449  -0.87109  -0.86889  -0.84797
 Alpha  occ. eigenvalues --   -0.84782  -0.83823  -0.83662  -0.82838  -0.82725
 Alpha  occ. eigenvalues --   -0.82441  -0.82441  -0.81321  -0.81282  -0.80353
 Alpha  occ. eigenvalues --   -0.80190  -0.78615  -0.78382  -0.77057  -0.76933
 Alpha  occ. eigenvalues --   -0.76722  -0.76680  -0.75678  -0.75603  -0.74741
 Alpha  occ. eigenvalues --   -0.74578  -0.72584  -0.72441  -0.71476  -0.71348
 Alpha  occ. eigenvalues --   -0.69839  -0.69567  -0.68675  -0.68613  -0.67432
 Alpha  occ. eigenvalues --   -0.67335  -0.67022  -0.66998  -0.65070  -0.65048
 Alpha  occ. eigenvalues --   -0.64641  -0.64529  -0.64414  -0.64394  -0.64121
 Alpha  occ. eigenvalues --   -0.63976  -0.61998  -0.61948  -0.60283  -0.60104
 Alpha  occ. eigenvalues --   -0.59599  -0.59581  -0.58782  -0.58737  -0.58280
 Alpha  occ. eigenvalues --   -0.58153  -0.57279  -0.57204  -0.57040  -0.56973
 Alpha  occ. eigenvalues --   -0.56106  -0.55945  -0.55624  -0.55623  -0.55332
 Alpha  occ. eigenvalues --   -0.55209  -0.55138  -0.54996  -0.54234  -0.54230
 Alpha  occ. eigenvalues --   -0.53718  -0.53679  -0.53121  -0.53012  -0.52987
 Alpha  occ. eigenvalues --   -0.52905  -0.52655  -0.52644  -0.52589  -0.52471
 Alpha  occ. eigenvalues --   -0.52299  -0.52196  -0.51671  -0.51560  -0.51449
 Alpha  occ. eigenvalues --   -0.51402  -0.50969  -0.50890  -0.50448  -0.50279
 Alpha  occ. eigenvalues --   -0.49935  -0.49780  -0.49753  -0.49650  -0.49311
 Alpha  occ. eigenvalues --   -0.49272  -0.48960  -0.48956  -0.48885  -0.48809
 Alpha  occ. eigenvalues --   -0.48366  -0.48292  -0.48261  -0.48201  -0.48142
 Alpha  occ. eigenvalues --   -0.47996  -0.47502  -0.47351  -0.47100  -0.46894
 Alpha  occ. eigenvalues --   -0.46624  -0.46483  -0.46354  -0.46342  -0.46176
 Alpha  occ. eigenvalues --   -0.46029  -0.45910  -0.45825  -0.45536  -0.45526
 Alpha  occ. eigenvalues --   -0.45062  -0.44985  -0.44369  -0.44305  -0.44303
 Alpha  occ. eigenvalues --   -0.44190  -0.44003  -0.43901  -0.43882  -0.43847
 Alpha  occ. eigenvalues --   -0.43750  -0.43625  -0.43303  -0.43225  -0.43194
 Alpha  occ. eigenvalues --   -0.43138  -0.42817  -0.42666  -0.42595  -0.42583
 Alpha  occ. eigenvalues --   -0.42343  -0.42218  -0.41850  -0.41753  -0.41467
 Alpha  occ. eigenvalues --   -0.41339  -0.41317  -0.41257  -0.40945  -0.40746
 Alpha  occ. eigenvalues --   -0.40716  -0.40679  -0.40524  -0.40509  -0.40417
 Alpha  occ. eigenvalues --   -0.40273  -0.40054  -0.40032  -0.39397  -0.39239
 Alpha  occ. eigenvalues --   -0.38346  -0.38151  -0.37544  -0.37467  -0.37174
 Alpha  occ. eigenvalues --   -0.37049  -0.37047  -0.36973  -0.36476  -0.36370
 Alpha  occ. eigenvalues --   -0.35971  -0.35799  -0.34083  -0.33998  -0.33536
 Alpha  occ. eigenvalues --   -0.33238  -0.32920  -0.32889  -0.31200  -0.31057
 Alpha  occ. eigenvalues --   -0.30819  -0.30728  -0.29688  -0.29384  -0.29260
 Alpha  occ. eigenvalues --   -0.29084  -0.29068  -0.28881  -0.23876  -0.23788
 Alpha  occ. eigenvalues --   -0.20937  -0.20869
 Alpha virt. eigenvalues --   -0.08573  -0.08522  -0.01572  -0.01451   0.00133
 Alpha virt. eigenvalues --    0.00224   0.02455   0.02542   0.03164   0.03459
 Alpha virt. eigenvalues --    0.04905   0.04935   0.05520   0.05641   0.06343

 Mulliken charges:
               1
     1  Mg   0.837642
     2  C   -0.000015
     3  C   -0.094385
     4  C   -0.046444
     5  C   -0.065106
     6  N   -0.256459
     7  C   -0.052523
     8  C   -0.013885
     9  C   -0.086879
    10  C    0.045923
    11  C    0.104980
    12  C    0.053199
    13  C   -0.071009
    14  H    0.035660
    15  N   -0.433017
    16  C    0.167837
    17  C   -0.177757
    18  C   -0.004627
    19  C    0.148405
    20  C    0.110390
    21  C    0.011775
    22  O   -0.250486
    23  C    0.062728
    24  N   -0.341076
    25  C    0.040705
    26  C   -0.027939
    27  C   -0.023922
    28  C    0.074764
    29  C    0.076312
    30  C    0.035418
    31  C   -0.004372
    32  N   -0.311362
    33  C    0.080842
    34  C   -0.169082
    35  C    0.009784
    36  C    0.085185
    37  C    0.126689
    38  C    0.050716
    39  O   -0.186559
    40  C   -0.006701
    41  C    0.209978
    42  O   -0.245058
    43  O   -0.306859
    44  C    0.157371
    45  H   -0.018254
    46  H   -0.017686
    47  H   -0.042109
    48  H    0.001056
    49  H   -0.004844
    50  H    0.025493
    51  H    0.016132
    52  H    0.015954
    53  H    0.009726
    54  H    0.048107
    55  H    0.017513
    56  H    0.016411
    57  H    0.005396
    58  H    0.026259
    59  H    0.038402
    60  H    0.037161
    61  H    0.035005
    62  H    0.030937
    63  H    0.015593
    64  H    0.009487
    65  H    0.022665
    66  H    0.012755
    67  H    0.004469
    68  H    0.006027
    69  H    0.004797
    70  H    0.008610
    71  H    0.015319
    72  H    0.028995
    73  H    0.049575
    74  H    0.008069
    75  H    0.045631
    76  H    0.033886
    77  H    0.041223
    78  H    0.043959
    79  H    0.057212
    80  Mg   0.836792
    81  C   -0.016764
    82  C   -0.088033
    83  C   -0.045829
    84  C   -0.065483
    85  N   -0.254141
    86  C   -0.050272
    87  C   -0.014658
    88  C   -0.090365
    89  C    0.045075
    90  C    0.114617
    91  C    0.062707
    92  C   -0.077300
    93  H    0.034497
    94  N   -0.423288
    95  C    0.162169
    96  C   -0.175339
    97  C   -0.008411
    98  C    0.151660
    99  C    0.099669
   100  C    0.015113
   101  O   -0.253905
   102  C    0.061383
   103  N   -0.350125
   104  C    0.037153
   105  C   -0.019620
   106  C   -0.034809
   107  C    0.089513
   108  C    0.073744
   109  C    0.034864
   110  C   -0.007544
   111  N   -0.324430
   112  C    0.078898
   113  C   -0.165201
   114  C    0.004565
   115  C    0.095625
   116  C    0.132962
   117  C    0.041818
   118  O   -0.172698
   119  C    0.000687
   120  C    0.213093
   121  O   -0.251736
   122  O   -0.305480
   123  C    0.152931
   124  H   -0.020781
   125  H   -0.016220
   126  H   -0.040924
   127  H   -0.001167
   128  H   -0.004993
   129  H    0.021789
   130  H    0.014171
   131  H    0.014883
   132  H    0.013793
   133  H    0.038147
   134  H    0.019889
   135  H    0.019070
   136  H    0.007998
   137  H    0.025230
   138  H    0.039063
   139  H    0.037835
   140  H    0.035744
   141  H    0.033626
   142  H    0.013919
   143  H    0.012300
   144  H    0.024551
   145  H    0.011618
   146  H    0.005703
   147  H    0.005748
   148  H    0.003007
   149  H    0.010779
   150  H    0.017516
   151  H    0.030552
   152  H    0.048627
   153  H    0.006286
   154  H    0.048317
   155  H    0.035961
   156  H    0.042449
   157  H    0.047890
   158  H    0.053805
 Sum of Mulliken charges =  -0.00000

 Dipole moment (field-independent basis, Debye):
    X=              0.1932    Y=              0.3908    Z=              7.6224  Tot=              7.6349
 Quadrupole moment (field-independent basis, Debye-Ang):
   XX=           -495.8258   YY=           -506.2213   ZZ=           -485.4796
   XY=            -25.9674   XZ=              0.6893   YZ=             57.8254

 Normal termination of Gaussian 16 at Fri Sep 10 20:36:51 2021.
