 Gaussian 16, Revision A.03,
 Gaussian 16:  ES64L-G16RevA.03 25-Dec-2016

 -----------------------------------
 #p cam-b3lyp/Def2SVP td=(nstates=5)
 -----------------------------------

 --------------------------------
 TDDFT excited states in gaussian
 --------------------------------
 Symbolic Z-matrix:
 Charge =  0 Multiplicity = 1

                         Standard orientation:
 ---------------------------------------------------------------------
 Center     Atomic      Atomic             Coordinates (Angstroms)
 Number     Number       Type             X           Y           Z
 ---------------------------------------------------------------------
      1         12           0        7.571323    1.045591    0.520780
      2          6           0        7.986177   -2.431191   -0.222251
      3          6           0        8.560679    1.694936   -2.679625
      4          6           0        7.650960    4.122294    1.285095
      5          6           0        7.723569    0.191049    3.896019
      6          7           0        8.169352   -0.284060   -1.145063
      7          6           0        8.228335   -1.600696   -1.318737
      8          6           0        8.497902   -2.017605   -2.795523
      9          6           0        9.207551   -0.684943   -3.307779
     10          6           0        8.583143    0.308617   -2.343996
     11          6           0       10.719225   -0.682852   -3.104460
     12          6           0        7.175272   -2.301759   -3.583963
     13          6           0        7.354820   -3.023739   -4.922567
     14          1           0        6.344861   -3.983933   -5.341325
     15          7           0        7.561164    2.652032   -0.629044
     16          6           0        7.985623    2.731573   -1.913098
     17          6           0        7.772509    4.135238   -2.326603
     18          6           0        7.366921    4.908449   -1.120064
     19          6           0        7.537721    3.917923   -0.088045
     20          6           0        7.907434    4.605477   -3.742379
     21          6           0        6.909606    6.319643   -0.926345
     22          8           0        6.830121    6.856005    0.231486
     23          6           0        6.638157    7.096034   -2.149690
     24          7           0        7.892167    2.053926    2.320212
     25          6           0        7.815397    3.387574    2.387090
     26          6           0        7.798136    3.862844    3.809680
     27          6           0        7.633709    2.554885    4.710769
     28          6           0        7.669193    1.488836    3.588026
     29          6           0        9.035636    4.646443    4.268565
     30          6           0        6.450347    2.533973    5.710586
     31          6           0        5.140953    2.490319    4.955154
     32          7           0        7.633354   -0.794993    1.669452
     33          6           0        7.717152   -0.916071    3.064082
     34          6           0        7.841448   -2.353902    3.366174
     35          6           0        7.837974   -2.972134    2.117325
     36          6           0        7.745469   -1.981249    1.098560
     37          6           0        7.997541   -2.922992    4.660857
     38          6           0        7.915695   -4.237580    1.405664
     39          8           0        7.911690   -5.422851    1.741238
     40          6           0        8.137472   -3.929871   -0.140931
     41          6           0        7.166672   -4.777734   -0.916807
     42          8           0        5.937544   -4.576082   -0.839696
     43          8           0        7.840530   -5.528296   -1.801744
     44          6           0        6.933443   -6.372007   -2.624847
     45          1           0        9.080401    2.028528   -3.579929
     46          1           0        7.571182    5.165265    1.598599
     47          1           0        7.690688   -0.156976    4.930065
     48          1           0        9.171616   -2.866655   -2.912343
     49          1           0        8.929092   -0.444083   -4.333532
     50          1           0       11.044120   -1.545165   -2.522411
     51          1           0       10.939830    0.241749   -2.570662
     52          1           0       11.238518   -0.608240   -4.060255
     53          1           0        6.757259   -1.358814   -3.936357
     54          1           0        6.469718   -2.858219   -2.966006
     55          1           0        8.352277   -3.454966   -5.012188
     56          1           0        7.307820   -2.281816   -5.719776
     57          1           0        8.376462    3.850535   -4.372156
     58          1           0        8.616373    5.433174   -3.736776
     59          1           0        6.955853    4.939288   -4.156380
     60          1           0        7.542126    7.137346   -2.757705
     61          1           0        6.236366    8.052135   -1.816095
     62          1           0        5.892350    6.568130   -2.744702
     63          1           0        6.955037    4.528679    3.989330
     64          1           0        8.510606    2.373871    5.332830
     65          1           0        8.806595    5.640506    4.653381
     66          1           0        9.729395    4.701932    3.430166
     67          1           0        9.643257    4.142365    5.019644
     68          1           0        6.444507    3.443537    6.310257
     69          1           0        6.479907    1.685852    6.394742
     70          1           0        4.960806    3.538579    4.719505
     71          1           0        4.348911    2.091079    5.589573
     72          1           0        5.244248    1.956956    4.009987
     73          1           0        7.340474   -3.792002    4.693313
     74          1           0        7.744885   -2.205969    5.441655
     75          1           0        9.059371   -3.168303    4.646923
     76          1           0        9.172990   -4.183494   -0.365656
     77          1           0        7.261897   -7.404833   -2.508130
     78          1           0        6.942898   -5.948496   -3.629314
     79          1           0        5.900414   -6.444693   -2.282932
     80         12           0       -8.266167    0.231656   -0.208918
     81          6           0       -6.091676   -2.619349   -0.059324
     82          6           0       -5.917369    1.732643   -2.174818
     83          6           0       -9.944048    2.915926    0.007534
     84          6           0       -9.863232   -1.011753    2.628161
     85          7           0       -6.299930   -0.456436   -0.952352
     86          6           0       -5.605066   -1.581826   -0.881636
     87          6           0       -4.357115   -1.626222   -1.803710
     88          6           0       -4.108557   -0.046275   -1.948183
     89          6           0       -5.534455    0.447973   -1.713201
     90          6           0       -3.218976    0.525279   -0.856706
     91          6           0       -4.663438   -2.288863   -3.192624
     92          6           0       -3.427545   -2.645164   -4.021707
     93          1           0       -3.464627   -3.852050   -4.843003
     94          7           0       -8.231241    1.862663   -1.339039
     95          6           0       -7.202898    2.310940   -2.089266
     96          6           0       -7.672771    3.558325   -2.711700
     97          6           0       -9.003759    3.896351   -2.138180
     98          6           0       -9.104150    2.894004   -1.096396
     99          6           0       -6.915486    4.259180   -3.802000
    100          6           0      -10.012814    4.955528   -2.463965
    101          8           0      -10.994190    5.214152   -1.681132
    102          6           0       -9.765998    5.744323   -3.679848
    103          7           0       -9.557617    0.974100    1.241355
    104          6           0      -10.197231    2.143467    1.064182
    105          6           0      -11.275535    2.338304    2.103271
    106          6           0      -11.389002    0.940538    2.871988
    107          6           0      -10.244861    0.173775    2.173120
    108          6           0      -11.029640    3.456984    3.115446
    109          6           0      -12.794046    0.280778    2.929080
    110          6           0      -13.215193   -0.157211    1.544814
    111          7           0       -8.166871   -1.580488    0.963390
    112          6           0       -8.905993   -1.884901    2.127483
    113          6           0       -8.409266   -3.181522    2.631931
    114          6           0       -7.391788   -3.533215    1.732190
    115          6           0       -7.249749   -2.517151    0.748862
    116          6           0       -8.862535   -3.846102    3.806234
    117          6           0       -6.398397   -4.527903    1.396831
    118          8           0       -6.112323   -5.647111    1.820221
    119          6           0       -5.426778   -3.920409    0.295327
    120          6           0       -5.263168   -4.943662   -0.794950
    121          8           0       -6.230834   -5.272439   -1.503570
    122          8           0       -3.953609   -5.202684   -0.963248
    123          6           0       -3.739636   -6.203977   -2.041886
    124          1           0       -5.152049    2.378173   -2.606652
    125          1           0      -10.622550    3.770079    0.066865
    126          1           0      -10.375954   -1.513691    3.451475
    127          1           0       -3.486594   -2.101203   -1.367401
    128          1           0       -3.776043    0.211236   -2.950418
    129          1           0       -2.996209   -0.206287   -0.094247
    130          1           0       -3.768490    1.356443   -0.434517
    131          1           0       -2.313188    0.954232   -1.294734
    132          1           0       -5.123148   -1.541657   -3.852234
    133          1           0       -5.280688   -3.157865   -3.072313
    134          1           0       -2.507927   -2.614635   -3.424784
    135          1           0       -3.281910   -1.870194   -4.778162
    136          1           0       -5.894740    3.868893   -3.897735
    137          1           0       -6.780202    5.297622   -3.480762
    138          1           0       -7.446586    4.250761   -4.756217
    139          1           0       -8.799785    6.236918   -3.600815
    140          1           0      -10.640143    6.388542   -3.792719
    141          1           0       -9.701682    5.060402   -4.533505
    142          1           0      -12.227068    2.560728    1.636143
    143          1           0      -11.104489    1.033343    3.930414
    144          1           0      -11.839131    4.210837    3.138056
    145          1           0      -10.081455    3.923994    2.884409
    146          1           0      -10.880324    3.126420    4.141916
    147          1           0      -13.539410    1.005655    3.265445
    148          1           0      -12.845112   -0.569179    3.601351
    149          1           0      -13.623070    0.759849    1.109241
    150          1           0      -13.971967   -0.936884    1.603399
    151          1           0      -12.346702   -0.449869    0.943384
    152          1           0       -8.968486   -4.892052    3.550793
    153          1           0       -9.800537   -3.426355    4.163651
    154          1           0       -8.032165   -3.631912    4.484381
    155          1           0       -4.480108   -3.689184    0.785165
    156          1           0       -3.157648   -7.022490   -1.607120
    157          1           0       -3.278356   -5.647215   -2.879130
    158          1           0       -4.608544   -6.735550   -2.411848
 ---------------------------------------------------------------------

 SCF Done:  E(RCAM-B3LYP) =  -4069.81171370     A.U. after   19 cycles

 Excitation energies and oscillator strengths:

 Excited State   1:      Singlet-A      1.6692 eV  742.75 nm  f=0.0129  <S**2>=0.000
     309 -> 315       -0.10649
     310 -> 316        0.13532
     311 -> 313       -0.42271
     312 -> 314        0.54080
 This state for optimization and/or second-order correction.
 Total Energy, E(TD-HF/TD-DFT) =  -4069.75036994
 Copying the excited state density for this state as the 1-particle RhoCI density.

 Excited State   2:      Singlet-A      1.6855 eV  735.60 nm  f=0.7412  <S**2>=0.000
     309 -> 315        0.13946
     310 -> 316        0.10831
     311 -> 313        0.53992
     312 -> 314        0.42212

 Excited State   3:      Singlet-A      2.1853 eV  567.34 nm  f=0.0831  <S**2>=0.000
     310 -> 314        0.63527
     312 -> 316       -0.26935

 Excited State   4:      Singlet-A      2.1927 eV  565.45 nm  f=0.1153  <S**2>=0.000
     309 -> 313        0.63333
     311 -> 315       -0.27519

 Excited State   5:      Singlet-A      2.7299 eV  454.17 nm  f=0.0000  <S**2>=0.000
     312 -> 313        0.70700

 The electronic state is 1-A.
 Alpha  occ. eigenvalues --  -46.87918 -46.87571 -19.26388 -19.26177 -19.19129
 Alpha  occ. eigenvalues --  -19.19014 -19.18946 -19.18645 -19.18268 -19.17935
 Alpha  occ. eigenvalues --  -14.42570 -14.42403 -14.41566 -14.41271 -14.39526
 Alpha  occ. eigenvalues --  -14.39264 -14.38704 -14.38508 -10.39188 -10.38942
 Alpha  occ. eigenvalues --  -10.35581 -10.35325 -10.34488 -10.34109 -10.31779
 Alpha  occ. eigenvalues --  -10.31569 -10.31519 -10.31206 -10.31034 -10.30924
 Alpha  occ. eigenvalues --  -10.30684 -10.30623 -10.30325 -10.30309 -10.30266
 Alpha  occ. eigenvalues --  -10.30063 -10.30030 -10.29807 -10.29746 -10.29374
 Alpha  occ. eigenvalues --  -10.29354 -10.29314 -10.28875 -10.28683 -10.28592
 Alpha  occ. eigenvalues --  -10.28527 -10.28484 -10.28310 -10.28236 -10.28021
 Alpha  occ. eigenvalues --  -10.27910 -10.27905 -10.27845 -10.27705 -10.27617
 Alpha  occ. eigenvalues --  -10.27602 -10.27578 -10.27551 -10.27521 -10.27448
 Alpha  occ. eigenvalues --  -10.27406 -10.27385 -10.27382 -10.27305 -10.27263
 Alpha  occ. eigenvalues --  -10.26915 -10.26852 -10.26576 -10.26559 -10.26364
 Alpha  occ. eigenvalues --  -10.26340 -10.26280 -10.26132 -10.26076 -10.25921
 Alpha  occ. eigenvalues --  -10.25883 -10.25850 -10.25761 -10.25527 -10.25333
 Alpha  occ. eigenvalues --  -10.24943 -10.24903 -10.24794 -10.24778 -10.24672
 Alpha  occ. eigenvalues --  -10.24602  -3.16662  -3.16321  -1.91544  -1.91203
 Alpha  occ. eigenvalues --   -1.91130  -1.90972  -1.90791  -1.90628  -1.16738
 Alpha  occ. eigenvalues --   -1.16477  -1.08724  -1.08537  -1.07348  -1.06899
 Alpha  occ. eigenvalues --   -1.06796  -1.06750  -1.04701  -1.04399  -1.03878
 Alpha  occ. eigenvalues --   -1.03573  -1.03351  -1.02951  -1.02528  -1.02021
 Alpha  occ. eigenvalues --   -0.92085  -0.91882  -0.89628  -0.89411  -0.89310
 Alpha  occ. eigenvalues --   -0.89035  -0.88394  -0.88142  -0.87973  -0.87792
 Alpha  occ. eigenvalues --   -0.87701  -0.87590  -0.87401  -0.87046  -0.85105
 Alpha  occ. eigenvalues --   -0.84893  -0.84041  -0.83797  -0.83096  -0.82863
 Alpha  occ. eigenvalues --   -0.82769  -0.82550  -0.81695  -0.81471  -0.80712
 Alpha  occ. eigenvalues --   -0.80334  -0.78917  -0.78553  -0.77333  -0.77049
 Alpha  occ. eigenvalues --   -0.77049  -0.76786  -0.76035  -0.75721  -0.75003
 Alpha  occ. eigenvalues --   -0.74715  -0.72885  -0.72608  -0.71783  -0.71482
 Alpha  occ. eigenvalues --   -0.70012  -0.69685  -0.68994  -0.68723  -0.67757
 Alpha  occ. eigenvalues --   -0.67507  -0.67352  -0.67100  -0.65407  -0.65158
 Alpha  occ. eigenvalues --   -0.64966  -0.64735  -0.64672  -0.64543  -0.64379
 Alpha  occ. eigenvalues --   -0.64119  -0.62405  -0.62148  -0.60564  -0.60262
 Alpha  occ. eigenvalues --   -0.59924  -0.59687  -0.59100  -0.58897  -0.58616
 Alpha  occ. eigenvalues --   -0.58326  -0.57691  -0.57429  -0.57420  -0.57147
 Alpha  occ. eigenvalues --   -0.56423  -0.56111  -0.56090  -0.55755  -0.55639
 Alpha  occ. eigenvalues --   -0.55444  -0.55352  -0.55149  -0.54629  -0.54379
 Alpha  occ. eigenvalues --   -0.54018  -0.53798  -0.53417  -0.53343  -0.53138
 Alpha  occ. eigenvalues --   -0.53038  -0.53029  -0.52885  -0.52792  -0.52585
 Alpha  occ. eigenvalues --   -0.52542  -0.52328  -0.52009  -0.51791  -0.51742
 Alpha  occ. eigenvalues --   -0.51554  -0.51304  -0.51097  -0.50708  -0.50409
 Alpha  occ. eigenvalues --   -0.50141  -0.50043  -0.49889  -0.49790  -0.49637
 Alpha  occ. eigenvalues --   -0.49395  -0.49328  -0.49209  -0.49099  -0.48990
 Alpha  occ. eigenvalues --   -0.48701  -0.48579  -0.48556  -0.48445  -0.48293
 Alpha  occ. eigenvalues --   -0.48251  -0.47813  -0.47497  -0.47412  -0.47031
 Alpha  occ. eigenvalues --   -0.46909  -0.46679  -0.46616  -0.46472  -0.46447
 Alpha  occ. eigenvalues --   -0.46268  -0.46182  -0.45987  -0.45923  -0.45706
 Alpha  occ. eigenvalues --   -0.45308  -0.45126  -0.44685  -0.44629  -0.44406
 Alpha  occ. eigenvalues --   -0.44376  -0.44259  -0.44207  -0.44132  -0.44023
 Alpha  occ. eigenvalues --   -0.43992  -0.43843  -0.43601  -0.43503  -0.43431
 Alpha  occ. eigenvalues --   -0.43281  -0.43137  -0.42818  -0.42806  -0.42770
 Alpha  occ. eigenvalues --   -0.42761  -0.42477  -0.42120  -0.41874  -0.41815
 Alpha  occ. eigenvalues --   -0.41656  -0.41565  -0.41356  -0.41254  -0.40990
 Alpha  occ. eigenvalues --   -0.40954  -0.40889  -0.40679  -0.40638  -0.40603
 Alpha  occ. eigenvalues --   -0.40406  -0.40371  -0.40115  -0.39547  -0.39355
 Alpha  occ. eigenvalues --   -0.38579  -0.38268  -0.37878  -0.37546  -0.37431
 Alpha  occ. eigenvalues --   -0.37388  -0.37179  -0.37096  -0.36820  -0.36634
 Alpha  occ. eigenvalues --   -0.36303  -0.36113  -0.34402  -0.34160  -0.33882
 Alpha  occ. eigenvalues --   -0.33727  -0.33302  -0.33083  -0.31475  -0.31204
 Alpha  occ. eigenvalues --   -0.31152  -0.30879  -0.30126  -0.29836  -0.29570
 Alpha  occ. eigenvalues --   -0.29433  -0.29243  -0.29118  -0.24198  -0.23943
 Alpha  occ. eigenvalues --   -0.21244  -0.21027
 Alpha virt. eigenvalues --   -0.08892  -0.08702  -0.01869  -0.01596  -0.00182
 Alpha virt. eigenvalues --    0.00057   0.02093   0.02307   0.02964   0.03308
 Alpha virt. eigenvalues --    0.04596   0.04829   0.04990   0.05310   0.06046

 Mulliken charges:
               1
     1  Mg   0.837999
     2  C   -0.003156
     3  C   -0.094395
     4  C   -0.045919
     5  C   -0.063798
     6  N   -0.256775
     7  C   -0.052523
     8  C   -0.013937
     9  C   -0.086930
    10  C    0.046092
    11  C    0.104765
    12  C    0.053584
    13  C   -0.071716
    14  H    0.035768
    15  N   -0.433127
    16  C    0.168097
    17  C   -0.177419
    18  C   -0.004213
    19  C    0.148494
    20  C    0.110195
    21  C    0.011939
    22  O   -0.249555
    23  C    0.062674
    24  N   -0.341086
    25  C    0.041177
    26  C   -0.028193
    27  C   -0.024011
    28  C    0.074780
    29  C    0.076093
    30  C    0.035065
    31  C   -0.004528
    32  N   -0.310576
    33  C    0.080457
    34  C   -0.169370
    35  C    0.008591
    36  C    0.082949
    37  C    0.127224
    38  C    0.046318
    39  O   -0.187758
    40  C   -0.005400
    41  C    0.213089
    42  O   -0.257428
    43  O   -0.304681
    44  C    0.157602
    45  H   -0.017554
    46  H   -0.016781
    47  H   -0.041084
    48  H    0.001222
    49  H   -0.004223
    50  H    0.025656
    51  H    0.016568
    52  H    0.016788
    53  H    0.010572
    54  H    0.043821
    55  H    0.018328
    56  H    0.017789
    57  H    0.005877
    58  H    0.027022
    59  H    0.038820
    60  H    0.037608
    61  H    0.035594
    62  H    0.030699
    63  H    0.016463
    64  H    0.009760
    65  H    0.023322
    66  H    0.012602
    67  H    0.004993
    68  H    0.006606
    69  H    0.005115
    70  H    0.008582
    71  H    0.018446
    72  H    0.028559
    73  H    0.048113
    74  H    0.009367
    75  H    0.046268
    76  H    0.035405
    77  H    0.043420
    78  H    0.046200
    79  H    0.053601
    80  Mg   0.837661
    81  C   -0.016826
    82  C   -0.087823
    83  C   -0.045608
    84  C   -0.065075
    85  N   -0.254571
    86  C   -0.049671
    87  C   -0.015254
    88  C   -0.090477
    89  C    0.045780
    90  C    0.114444
    91  C    0.062541
    92  C   -0.077892
    93  H    0.034421
    94  N   -0.423438
    95  C    0.162819
    96  C   -0.174745
    97  C   -0.007995
    98  C    0.152054
    99  C    0.099466
   100  C    0.015430
   101  O   -0.253381
   102  C    0.061248
   103  N   -0.350048
   104  C    0.037417
   105  C   -0.019757
   106  C   -0.034804
   107  C    0.089001
   108  C    0.073708
   109  C    0.034770
   110  C   -0.007628
   111  N   -0.324155
   112  C    0.078587
   113  C   -0.163199
   114  C    0.002465
   115  C    0.096130
   116  C    0.131488
   117  C    0.042442
   118  O   -0.187248
   119  C    0.000976
   120  C    0.211205
   121  O   -0.251547
   122  O   -0.304893
   123  C    0.152194
   124  H   -0.019871
   125  H   -0.015809
   126  H   -0.040576
   127  H    0.000762
   128  H   -0.004745
   129  H    0.023407
   130  H    0.014089
   131  H    0.016358
   132  H    0.013403
   133  H    0.037613
   134  H    0.022248
   135  H    0.018830
   136  H    0.008519
   137  H    0.025907
   138  H    0.039409
   139  H    0.038127
   140  H    0.036154
   141  H    0.033736
   142  H    0.014225
   143  H    0.012354
   144  H    0.024932
   145  H    0.011667
   146  H    0.005571
   147  H    0.006093
   148  H    0.003611
   149  H    0.010826
   150  H    0.017804
   151  H    0.030200
   152  H    0.046047
   153  H    0.008310
   154  H    0.047156
   155  H    0.036190
   156  H    0.044813
   157  H    0.049490
   158  H    0.052939
 Sum of Mulliken charges =  -0.00000

 Dipole moment (field-independent basis, Debye):
    X=              4.6598    Y=              5.5676    Z=             -4.8291  Tot=              8.7196
 Quadrupole moment (field-independent basis, Debye-Ang):
   XX=           -505.2153   YY=           -567.3019   ZZ=           -452.4154
   XY=              1.7469   XZ=            -39.5622   YZ=              7.5087

 Normal termination of Gaussian 16 at Sun Sep 12 04:17:16 2021.
