 Gaussian 16, Revision A.03,
 Gaussian 16:  ES64L-G16RevA.03 25-Dec-2016

 -----------------------------------
 #p cam-b3lyp/Def2SVP td=(nstates=5)
 -----------------------------------

 --------------------------------
 TDDFT excited states in gaussian
 --------------------------------
 Symbolic Z-matrix:
 Charge =  0 Multiplicity = 1

                         Standard orientation:
 ---------------------------------------------------------------------
 Center     Atomic      Atomic             Coordinates (Angstroms)
 Number     Number       Type             X           Y           Z
 ---------------------------------------------------------------------
      1         12           0       -4.054415   -1.528235    0.523019
      2          6           0       -4.927308    1.942493    0.457340
      3          6           0       -5.220851   -1.729220   -2.677309
      4          6           0       -3.715480   -4.675584    0.712597
      5          6           0       -4.027465   -1.304003    4.000756
      6          7           0       -4.936305   -0.015580   -0.831525
      7          6           0       -5.160915    1.292512   -0.756578
      8          6           0       -5.596797    1.923235   -2.112885
      9          6           0       -6.187387    0.620863   -2.817887
     10          6           0       -5.375659   -0.437510   -2.092030
     11          6           0       -7.666959    0.389292   -2.528502
     12          6           0       -4.384832    2.508249   -2.913279
     13          6           0       -4.755510    3.424157   -4.083349
     14          1           0       -3.900851    4.564324   -4.378178
     15          7           0       -3.953029   -2.893978   -0.900820
     16          6           0       -4.469153   -2.801470   -2.149958
     17          6           0       -4.129986   -4.072028   -2.826219
     18          6           0       -3.540441   -4.985841   -1.808635
     19          6           0       -3.739389   -4.221349   -0.603916
     20          6           0       -4.325169   -4.300722   -4.293649
     21          6           0       -2.908951   -6.338636   -1.905071
     22          8           0       -2.673558   -7.054562   -0.872301
     23          6           0       -2.650752   -6.847710   -3.264195
     24          7           0       -4.108307   -2.868495    2.122530
     25          6           0       -3.872868   -4.172231    1.938611
     26          6           0       -3.684450   -4.882818    3.246091
     27          6           0       -3.598911   -3.742536    4.360629
     28          6           0       -3.849025   -2.510029    3.456948
     29          6           0       -4.781463   -5.886811    3.626316
     30          6           0       -2.348024   -3.745181    5.274791
     31          6           0       -1.118693   -3.402412    4.463401
     32          7           0       -4.234275    0.059620    1.991831
     33          6           0       -4.217035   -0.076897    3.387446
     34          6           0       -4.481343    1.257899    3.955362
     35          6           0       -4.651515    2.080312    2.843371
     36          6           0       -4.528948    1.303105    1.656265
     37          6           0       -4.595574    1.566931    5.339516
     38          6           0       -4.932808    3.430138    2.382177
     39          8           0       -5.038208    4.528994    2.928895
     40          6           0       -5.243442    3.371844    0.821429
     41          6           0       -4.443815    4.459801    0.157912
     42          8           0       -3.197466    4.407173    0.123129
     43          8           0       -5.269988    5.260826   -0.532262
     44          6           0       -4.536819    6.344816   -1.239074
     45          1           0       -5.770533   -1.964065   -3.590894
     46          1           0       -3.490431   -5.738321    0.823869
     47          1           0       -3.950441   -1.140932    5.077291
     48          1           0       -6.371315    2.686055   -2.031324
     49          1           0       -5.967899    0.600902   -3.885197
     50          1           0       -8.040485    1.087565   -1.779626
     51          1           0       -7.734900   -0.634971   -2.161403
     52          1           0       -8.250658    0.417022   -3.448992
     53          1           0       -3.891015    1.703040   -3.457194
     54          1           0       -3.700032    3.033889   -2.246887
     55          1           0       -5.800048    3.732807   -4.032509
     56          1           0       -4.688594    2.845388   -5.004625
     57          1           0       -4.928189   -3.513774   -4.744896
     58          1           0       -4.930958   -5.200651   -4.397837
     59          1           0       -3.378522   -4.432065   -4.817997
     60          1           0       -3.590628   -6.897667   -3.814364
     61          1           0       -2.115316   -7.787842   -3.136485
     62          1           0       -2.022109   -6.132599   -3.795584
     63          1           0       -2.758262   -5.456043    3.249713
     64          1           0       -4.436953   -3.787164    5.056595
     65          1           0       -4.408461   -6.895127    3.807628
     66          1           0       -5.530468   -5.883336    2.834944
     67          1           0       -5.379674   -5.604088    4.492127
     68          1           0       -2.188142   -4.737233    5.695762
     69          1           0       -2.419190   -3.040730    6.103607
     70          1           0       -0.838632   -4.361370    4.028895
     71          1           0       -0.328778   -3.022030    5.111903
     72          1           0       -1.359901   -2.729668    3.640163
     73          1           0       -4.042790    2.493876    5.491733
     74          1           0       -4.198762    0.762818    5.958828
     75          1           0       -5.676178    1.672593    5.434315
     76          1           0       -6.316214    3.525869    0.709361
     77          1           0       -4.971649    7.290484   -0.915238
     78          1           0       -4.579517    6.105887   -2.301851
     79          1           0       -3.494588    6.488508   -0.951940
     80         12           0        4.746315    0.147856   -0.337855
     81          6           0        2.998397    3.275294   -0.130597
     82          6           0        2.878698   -0.541650   -3.107543
     83          6           0        5.939719   -2.791678   -0.288944
     84          6           0        5.620158    0.573225    3.008958
     85          7           0        3.174495    1.297684   -1.386421
     86          6           0        2.636650    2.500656   -1.252425
     87          6           0        1.716578    2.928322   -2.427205
     88          6           0        1.320626    1.468379   -2.966325
     89          6           0        2.547121    0.691679   -2.491860
     90          6           0        0.093661    0.887089   -2.283685
     91          6           0        2.484685    3.754553   -3.517788
     92          6           0        1.589355    4.465992   -4.534636
     93          1           0        2.010026    5.769766   -5.040316
     94          7           0        4.825744   -1.229851   -1.764105
     95          6           0        4.003331   -1.348560   -2.827505
     96          6           0        4.467803   -2.533691   -3.564997
     97          6           0        5.528138   -3.200478   -2.761378
     98          6           0        5.456162   -2.428046   -1.537346
     99          6           0        3.967218   -2.887171   -4.935358
    100          6           0        6.445227   -4.352023   -3.042634
    101          8           0        7.124062   -4.914925   -2.112502
    102          6           0        6.454333   -4.861154   -4.421831
    103          7           0        5.469793   -1.054824    1.195931
    104          6           0        5.979624   -2.271998    0.938107
    105          6           0        6.686227   -2.834921    2.148159
    106          6           0        6.754087   -1.634803    3.202991
    107          6           0        5.961244   -0.564986    2.420496
    108          6           0        6.024243   -4.048540    2.800323
    109          6           0        8.157495   -1.259629    3.752864
    110          6           0        9.004959   -0.672475    2.647218
    111          7           0        4.550331    1.717911    1.133399
    112          6           0        4.962458    1.678056    2.483450
    113          6           0        4.512076    2.936103    3.113455
    114          6           0        3.843791    3.615840    2.083973
    115          6           0        3.857910    2.827559    0.901643
    116          6           0        4.695260    3.294858    4.478692
    117          6           0        3.120393    4.816321    1.731495
    118          8           0        2.870696    5.878540    2.299892
    119          6           0        2.431056    4.593887    0.316665
    120          6           0        2.713698    5.802567   -0.532880
    121          8           0        3.875824    6.068542   -0.886897
    122          8           0        1.549106    6.318982   -0.965789
    123          6           0        1.777772    7.513473   -1.821773
    124          1           0        2.191290   -0.953846   -3.846763
    125          1           0        6.459632   -3.751526   -0.245963
    126          1           0        5.938482    0.824401    4.022992
    127          1           0        0.825816    3.470095   -2.132573
    128          1           0        1.255250    1.452236   -4.051145
    129          1           0       -0.240926    1.503950   -1.462904
    130          1           0        0.391234   -0.089891   -1.925902
    131          1           0       -0.698079    0.711021   -3.017503
    132          1           0        3.013490    3.061977   -4.185205
    133          1           0        3.147786    4.463694   -3.061678
    134          1           0        0.542348    4.499417   -4.209679
    135          1           0        1.566484    3.872600   -5.451903
    136          1           0        3.073363   -2.308365   -5.198785
    137          1           0        3.615986   -3.923727   -4.889951
    138          1           0        4.743093   -2.810110   -5.700060
    139          1           0        5.450851   -5.177251   -4.696729
    140          1           0        7.235588   -5.623314   -4.446831
    141          1           0        6.721395   -4.039850   -5.096187
    142          1           0        7.694777   -3.141451    1.899231
    143          1           0        6.172479   -1.856119    4.109963
    144          1           0        6.691801   -4.928583    2.863249
    145          1           0        5.128834   -4.289561    2.242928
    146          1           0        5.633942   -3.878817    3.802348
    147          1           0        8.679039   -2.154234    4.101907
    148          1           0        8.123787   -0.562005    4.583032
    149          1           0        9.399557   -1.558856    2.141545
    150          1           0        9.806829   -0.064353    3.061017
    151          1           0        8.386470   -0.128339    1.924011
    152          1           0        5.000959    4.332612    4.489576
    153          1           0        5.432709    2.657270    4.961807
    154          1           0        3.686818    3.120306    4.863209
    155          1           0        1.363147    4.456370    0.490562
    156          1           0        1.205356    8.336020   -1.381946
    157          1           0        1.505334    7.202332   -2.847800
    158          1           0        2.775972    7.935145   -1.837492
 ---------------------------------------------------------------------

 SCF Done:  E(RCAM-B3LYP) =  -4069.81150462     A.U. after   19 cycles

 Excitation energies and oscillator strengths:

 Excited State   1:      Singlet-A      1.6460 eV  753.26 nm  f=0.0010  <S**2>=0.000
     309 -> 315        0.11567
     310 -> 316       -0.11946
     311 -> 313        0.47562
     312 -> 314        0.49686
 This state for optimization and/or second-order correction.
 Total Energy, E(TD-HF/TD-DFT) =  -4069.75101629
 Copying the excited state density for this state as the 1-particle RhoCI density.

 Excited State   2:      Singlet-A      1.7049 eV  727.24 nm  f=0.6942  <S**2>=0.000
     309 -> 315        0.13170
     310 -> 316        0.12463
     311 -> 313        0.49414
     312 -> 314       -0.47309

 Excited State   3:      Singlet-A      2.1797 eV  568.81 nm  f=0.0273  <S**2>=0.000
     309 -> 313        0.29415
     310 -> 314        0.57425
     311 -> 315       -0.12136
     312 -> 316        0.23857

 Excited State   4:      Singlet-A      2.1960 eV  564.59 nm  f=0.1515  <S**2>=0.000
     309 -> 313        0.56927
     310 -> 314       -0.28962
     311 -> 315       -0.25094
     312 -> 316       -0.12905

 Excited State   5:      Singlet-A      2.2973 eV  539.69 nm  f=0.0000  <S**2>=0.000
     312 -> 313        0.70687

 The electronic state is 1-A.
 Alpha  occ. eigenvalues --  -46.88004 -46.87393 -19.26464 -19.25913 -19.19220
 Alpha  occ. eigenvalues --  -19.18999 -19.18766 -19.18499 -19.18307 -19.17660
 Alpha  occ. eigenvalues --  -14.42670 -14.42226 -14.41643 -14.41094 -14.39608
 Alpha  occ. eigenvalues --  -14.39088 -14.38783 -14.38318 -10.39277 -10.38677
 Alpha  occ. eigenvalues --  -10.35635 -10.35182 -10.34532 -10.33822 -10.31837
 Alpha  occ. eigenvalues --  -10.31620 -10.31435 -10.31148 -10.31012 -10.30767
 Alpha  occ. eigenvalues --  -10.30731 -10.30690 -10.30399 -10.30121 -10.30089
 Alpha  occ. eigenvalues --  -10.30073 -10.29918 -10.29818 -10.29624 -10.29455
 Alpha  occ. eigenvalues --  -10.29197 -10.29133 -10.29043 -10.28940 -10.28571
 Alpha  occ. eigenvalues --  -10.28473 -10.28378 -10.28352 -10.28109 -10.27975
 Alpha  occ. eigenvalues --  -10.27943 -10.27845 -10.27781 -10.27735 -10.27723
 Alpha  occ. eigenvalues --  -10.27645 -10.27612 -10.27588 -10.27419 -10.27336
 Alpha  occ. eigenvalues --  -10.27328 -10.27325 -10.27207 -10.27177 -10.27168
 Alpha  occ. eigenvalues --  -10.27126 -10.26627 -10.26540 -10.26452 -10.26437
 Alpha  occ. eigenvalues --  -10.26304 -10.26263 -10.26204 -10.25971 -10.25944
 Alpha  occ. eigenvalues --  -10.25686 -10.25669 -10.25583 -10.25558 -10.25209
 Alpha  occ. eigenvalues --  -10.25011 -10.24973 -10.24797 -10.24577 -10.24567
 Alpha  occ. eigenvalues --  -10.24419  -3.16747  -3.16143  -1.91628  -1.91215
 Alpha  occ. eigenvalues --   -1.91057  -1.91026  -1.90614  -1.90451  -1.16815
 Alpha  occ. eigenvalues --   -1.16221  -1.08760  -1.08249  -1.07398  -1.06834
 Alpha  occ. eigenvalues --   -1.06755  -1.06547  -1.04801  -1.04212  -1.03958
 Alpha  occ. eigenvalues --   -1.03428  -1.03392  -1.02775  -1.02606  -1.01838
 Alpha  occ. eigenvalues --   -0.92166  -0.91650  -0.89686  -0.89462  -0.89247
 Alpha  occ. eigenvalues --   -0.88850  -0.88449  -0.88035  -0.87991  -0.87898
 Alpha  occ. eigenvalues --   -0.87517  -0.87484  -0.87421  -0.86904  -0.85242
 Alpha  occ. eigenvalues --   -0.84728  -0.84086  -0.83647  -0.83163  -0.82876
 Alpha  occ. eigenvalues --   -0.82735  -0.82383  -0.81772  -0.81276  -0.80796
 Alpha  occ. eigenvalues --   -0.80152  -0.78997  -0.78395  -0.77430  -0.77148
 Alpha  occ. eigenvalues --   -0.76894  -0.76616  -0.76130  -0.75532  -0.75059
 Alpha  occ. eigenvalues --   -0.74557  -0.72960  -0.72432  -0.71866  -0.71299
 Alpha  occ. eigenvalues --   -0.70053  -0.69552  -0.69113  -0.68561  -0.67836
 Alpha  occ. eigenvalues --   -0.67503  -0.67331  -0.66961  -0.65537  -0.65045
 Alpha  occ. eigenvalues --   -0.64966  -0.64823  -0.64494  -0.64437  -0.64358
 Alpha  occ. eigenvalues --   -0.63960  -0.62474  -0.61939  -0.60637  -0.60109
 Alpha  occ. eigenvalues --   -0.60048  -0.59496  -0.59177  -0.58711  -0.58691
 Alpha  occ. eigenvalues --   -0.58130  -0.57761  -0.57484  -0.57174  -0.56948
 Alpha  occ. eigenvalues --   -0.56499  -0.56182  -0.55941  -0.55717  -0.55556
 Alpha  occ. eigenvalues --   -0.55497  -0.55186  -0.54973  -0.54689  -0.54192
 Alpha  occ. eigenvalues --   -0.54168  -0.53623  -0.53492  -0.53452  -0.53111
 Alpha  occ. eigenvalues --   -0.52989  -0.52979  -0.52866  -0.52612  -0.52577
 Alpha  occ. eigenvalues --   -0.52445  -0.52192  -0.52056  -0.51874  -0.51605
 Alpha  occ. eigenvalues --   -0.51397  -0.51375  -0.50905  -0.50797  -0.50294
 Alpha  occ. eigenvalues --   -0.50214  -0.50120  -0.49748  -0.49735  -0.49641
 Alpha  occ. eigenvalues --   -0.49413  -0.49313  -0.49233  -0.48904  -0.48792
 Alpha  occ. eigenvalues --   -0.48780  -0.48644  -0.48606  -0.48264  -0.48149
 Alpha  occ. eigenvalues --   -0.48073  -0.47901  -0.47490  -0.47334  -0.46993
 Alpha  occ. eigenvalues --   -0.46886  -0.46813  -0.46541  -0.46455  -0.46332
 Alpha  occ. eigenvalues --   -0.46292  -0.46026  -0.45991  -0.45807  -0.45508
 Alpha  occ. eigenvalues --   -0.45362  -0.44967  -0.44765  -0.44715  -0.44334
 Alpha  occ. eigenvalues --   -0.44315  -0.44226  -0.44215  -0.44200  -0.43854
 Alpha  occ. eigenvalues --   -0.43843  -0.43670  -0.43654  -0.43603  -0.43254
 Alpha  occ. eigenvalues --   -0.43212  -0.43105  -0.42871  -0.42811  -0.42635
 Alpha  occ. eigenvalues --   -0.42531  -0.42331  -0.42197  -0.41892  -0.41779
 Alpha  occ. eigenvalues --   -0.41717  -0.41347  -0.41340  -0.41193  -0.41108
 Alpha  occ. eigenvalues --   -0.41052  -0.40743  -0.40723  -0.40555  -0.40496
 Alpha  occ. eigenvalues --   -0.40450  -0.40236  -0.39963  -0.39585  -0.39227
 Alpha  occ. eigenvalues --   -0.38654  -0.38124  -0.38051  -0.37513  -0.37501
 Alpha  occ. eigenvalues --   -0.37410  -0.37021  -0.36926  -0.36893  -0.36423
 Alpha  occ. eigenvalues --   -0.36382  -0.35930  -0.34484  -0.33976  -0.33967
 Alpha  occ. eigenvalues --   -0.33488  -0.33382  -0.32899  -0.31529  -0.31236
 Alpha  occ. eigenvalues --   -0.31057  -0.30687  -0.30167  -0.29646  -0.29551
 Alpha  occ. eigenvalues --   -0.29499  -0.29073  -0.28917  -0.24283  -0.23750
 Alpha  occ. eigenvalues --   -0.21327  -0.20850
 Alpha virt. eigenvalues --   -0.08970  -0.08519  -0.01948  -0.01423  -0.00262
 Alpha virt. eigenvalues --    0.00223   0.02033   0.02484   0.02644   0.03503
 Alpha virt. eigenvalues --    0.04450   0.04864   0.04967   0.05562   0.05735

 Mulliken charges:
               1
     1  Mg   0.835680
     2  C   -0.003975
     3  C   -0.095538
     4  C   -0.045138
     5  C   -0.063364
     6  N   -0.256729
     7  C   -0.053721
     8  C   -0.013144
     9  C   -0.086879
    10  C    0.045406
    11  C    0.104698
    12  C    0.051054
    13  C   -0.071324
    14  H    0.034842
    15  N   -0.433341
    16  C    0.167729
    17  C   -0.178384
    18  C   -0.004159
    19  C    0.148786
    20  C    0.110301
    21  C    0.012423
    22  O   -0.248658
    23  C    0.062850
    24  N   -0.340887
    25  C    0.041067
    26  C   -0.028299
    27  C   -0.024154
    28  C    0.075083
    29  C    0.075996
    30  C    0.034959
    31  C   -0.004511
    32  N   -0.310930
    33  C    0.080866
    34  C   -0.168716
    35  C    0.009263
    36  C    0.082815
    37  C    0.126945
    38  C    0.046976
    39  O   -0.186111
    40  C   -0.005805
    41  C    0.213905
    42  O   -0.258243
    43  O   -0.304680
    44  C    0.156379
    45  H   -0.017862
    46  H   -0.016282
    47  H   -0.040652
    48  H    0.001862
    49  H   -0.005004
    50  H    0.025970
    51  H    0.017072
    52  H    0.016862
    53  H    0.010034
    54  H    0.042787
    55  H    0.019644
    56  H    0.017212
    57  H    0.005447
    58  H    0.027493
    59  H    0.037379
    60  H    0.037538
    61  H    0.036398
    62  H    0.029446
    63  H    0.017074
    64  H    0.009885
    65  H    0.023650
    66  H    0.012542
    67  H    0.005064
    68  H    0.006712
    69  H    0.005022
    70  H    0.009175
    71  H    0.018216
    72  H    0.029051
    73  H    0.049392
    74  H    0.009449
    75  H    0.046395
    76  H    0.035588
    77  H    0.044191
    78  H    0.045059
    79  H    0.055732
    80  Mg   0.837105
    81  C   -0.016658
    82  C   -0.087874
    83  C   -0.045643
    84  C   -0.065833
    85  N   -0.254552
    86  C   -0.048575
    87  C   -0.016787
    88  C   -0.092285
    89  C    0.045393
    90  C    0.107338
    91  C    0.062709
    92  C   -0.076957
    93  H    0.033058
    94  N   -0.423402
    95  C    0.162717
    96  C   -0.175320
    97  C   -0.008178
    98  C    0.151897
    99  C    0.099944
   100  C    0.015277
   101  O   -0.253661
   102  C    0.061411
   103  N   -0.350139
   104  C    0.037226
   105  C   -0.019600
   106  C   -0.034717
   107  C    0.089279
   108  C    0.073829
   109  C    0.034881
   110  C   -0.007551
   111  N   -0.324427
   112  C    0.079094
   113  C   -0.163476
   114  C    0.003622
   115  C    0.095524
   116  C    0.131356
   117  C    0.043831
   118  O   -0.185991
   119  C   -0.000653
   120  C    0.209712
   121  O   -0.252992
   122  O   -0.301732
   123  C    0.152859
   124  H   -0.021710
   125  H   -0.016181
   126  H   -0.041109
   127  H    0.008183
   128  H   -0.006961
   129  H    0.035977
   130  H    0.012870
   131  H    0.015241
   132  H    0.012706
   133  H    0.037619
   134  H    0.021175
   135  H    0.017683
   136  H    0.006960
   137  H    0.024499
   138  H    0.038860
   139  H    0.037556
   140  H    0.035784
   141  H    0.033378
   142  H    0.013903
   143  H    0.011672
   144  H    0.024606
   145  H    0.012278
   146  H    0.004636
   147  H    0.005703
   148  H    0.003338
   149  H    0.010715
   150  H    0.017491
   151  H    0.030466
   152  H    0.045956
   153  H    0.007526
   154  H    0.047917
   155  H    0.048222
   156  H    0.043145
   157  H    0.047535
   158  H    0.052430
 Sum of Mulliken charges =  -0.00000

 Dipole moment (field-independent basis, Debye):
    X=             -4.7108    Y=             -4.0405    Z=             -5.7892  Tot=              8.4872
 Quadrupole moment (field-independent basis, Debye-Ang):
   XX=           -511.6536   YY=           -561.4037   ZZ=           -449.2147
   XY=              0.1193   XZ=             29.9331   YZ=            -30.3528

 Normal termination of Gaussian 16 at Fri Sep 10 03:32:37 2021.
