 Gaussian 16, Revision A.03,
 Gaussian 16:  ES64L-G16RevA.03 25-Dec-2016

 -----------------------------------
 #p cam-b3lyp/Def2SVP td=(nstates=5)
 -----------------------------------

 --------------------------------
 TDDFT excited states in gaussian
 --------------------------------
 Symbolic Z-matrix:
 Charge =  0 Multiplicity = 1

                         Standard orientation:
 ---------------------------------------------------------------------
 Center     Atomic      Atomic             Coordinates (Angstroms)
 Number     Number       Type             X           Y           Z
 ---------------------------------------------------------------------
      1         12           0        6.479873    0.806117    0.455886
      2          6           0        7.101547   -2.289849   -1.229560
      3          6           0        7.179101    2.378995   -2.490332
      4          6           0        6.381839    3.558730    2.027550
      5          6           0        6.944280   -0.904251    3.456657
      6          7           0        7.052943    0.033480   -1.537922
      7          6           0        7.198717   -1.176951   -2.067808
      8          6           0        7.389817   -1.155624   -3.613900
      9          6           0        7.956721    0.325590   -3.777064
     10          6           0        7.331296    0.961774   -2.548228
     11          6           0        9.474726    0.413637   -3.657018
     12          6           0        6.038175   -1.339645   -4.382619
     13          6           0        6.173066   -1.656270   -5.874902
     14          1           0        5.210816   -2.558592   -6.489100
     15          7           0        6.263346    2.653891   -0.208717
     16          6           0        6.584978    3.113970   -1.441667
     17          6           0        6.236159    4.550980   -1.444268
     18          6           0        5.862895    4.931125   -0.053492
     19          6           0        6.183773    3.720464    0.658347
     20          6           0        6.230550    5.394090   -2.682366
     21          6           0        5.315319    6.189809    0.541492
     22          8           0        5.280722    6.386231    1.804344
     23          6           0        4.896533    7.237090   -0.407647
     24          7           0        6.854732    1.320271    2.444041
     25          6           0        6.682128    2.573999    2.876889
     26          6           0        6.733508    2.646627    4.374228
     27          6           0        6.735492    1.135527    4.890298
     28          6           0        6.769101    0.417701    3.518487
     29          6           0        7.938374    3.390014    4.967259
     30          6           0        5.633856    0.737321    5.904324
     31          6           0        4.279555    0.776288    5.232424
     32          7           0        6.765660   -1.261039    1.052741
     33          6           0        6.960722   -1.743338    2.355051
     34          6           0        7.215621   -3.191491    2.245744
     35          6           0        7.167242   -3.449722    0.877233
     36          6           0        6.925169   -2.234991    0.174296
     37          6           0        7.509214   -4.069853    3.325891
     38          6           0        7.288208   -4.465055   -0.156363
     39          8           0        7.398825   -5.691943   -0.157997
     40          6           0        7.371677   -3.734634   -1.568930
     41          6           0        6.413586   -4.429836   -2.497404
     42          8           0        5.181708   -4.371449   -2.306528
     43          8           0        7.075548   -4.849561   -3.586523
     44          6           0        6.177026   -5.522193   -4.562422
     45          1           0        7.604406    2.988626   -3.289961
     46          1           0        6.246431    4.467319    2.617947
     47          1           0        7.014020   -1.518316    4.356387
     48          1           0        8.115587   -1.875782   -3.992125
     49          1           0        7.586125    0.805723   -4.682520
     50          1           0        9.906023   -0.539088   -3.350066
     51          1           0        9.663199    1.177580   -2.902457
     52          1           0        9.915172    0.789780   -4.580760
     53          1           0        5.525050   -0.379849   -4.442250
     54          1           0        5.424225   -2.104543   -3.905835
     55          1           0        7.191067   -1.952979   -6.128963
     56          1           0        6.011421   -0.735445   -6.435395
     57          1           0        6.707922    4.882693   -3.517311
     58          1           0        6.873138    6.252167   -2.486167
     59          1           0        5.228529    5.736710   -2.941009
     60          1           0        5.747601    7.523809   -1.025728
     61          1           0        4.448983    8.027050    0.194442
     62          1           0        4.151201    6.821108   -1.086166
     63          1           0        5.857822    3.158506    4.771191
     64          1           0        7.666953    0.876682    5.394334
     65          1           0        7.663492    4.218703    5.620267
     66          1           0        8.562392    3.732562    4.142302
     67          1           0        8.636064    2.761753    5.520372
     68          1           0        5.603134    1.448124    6.729406
     69          1           0        5.777902   -0.256639    6.328053
     70          1           0        4.003559    1.827879    5.301807
     71          1           0        3.568885    0.149687    5.772360
     72          1           0        4.353239    0.527926    4.173475
     73          1           0        6.924141   -4.972927    3.152349
     74          1           0        7.260984   -3.615195    4.284678
     75          1           0        8.582688   -4.202603    3.192151
     76          1           0        8.404117   -3.821273   -1.906100
     77          1           0        6.590582   -6.513300   -4.749264
     78          1           0        6.080438   -4.845855   -5.411918
     79          1           0        5.180434   -5.779637   -4.202053
     80         12           0       -6.645573   -0.903533    0.361633
     81          6           0       -6.804162    2.019461   -1.714416
     82          6           0       -6.053411    1.181752    2.995178
     83          6           0       -6.054067   -3.469273    2.132107
     84          6           0       -6.111061   -2.763298   -2.536858
     85          7           0       -6.474637    1.297556    0.496763
     86          6           0       -6.614491    2.308878   -0.347043
     87          6           0       -6.627524    3.708835    0.323405
     88          6           0       -5.823303    3.341006    1.663851
     89          6           0       -6.161730    1.854262    1.751748
     90          6           0       -4.316963    3.480235    1.519290
     91          6           0       -8.081354    4.204721    0.643569
     92          6           0       -8.188867    5.685824    1.013067
     93          1           0       -9.373177    6.425602    0.585748
     94          7           0       -6.615332   -1.123931    2.333711
     95          6           0       -6.381505   -0.166832    3.255976
     96          6           0       -6.449066   -0.841200    4.561659
     97          6           0       -6.578443   -2.305119    4.327374
     98          6           0       -6.396052   -2.359294    2.890753
     99          6           0       -6.470098   -0.093834    5.863364
    100          6           0       -6.813084   -3.465777    5.246083
    101          8           0       -6.652814   -4.676216    4.856251
    102          6           0       -7.145207   -3.141058    6.640986
    103          7           0       -5.944372   -2.805147   -0.101557
    104          6           0       -5.828320   -3.749581    0.848448
    105          6           0       -5.571247   -5.107265    0.239358
    106          6           0       -5.780143   -4.918427   -1.334899
    107          6           0       -6.046133   -3.397542   -1.374248
    108          6           0       -4.188010   -5.702686    0.501121
    109          6           0       -6.797912   -5.864984   -2.028326
    110          6           0       -8.198254   -5.557410   -1.548924
    111          7           0       -6.665134   -0.512308   -1.763129
    112          6           0       -6.388643   -1.428307   -2.801684
    113          6           0       -6.413499   -0.669873   -4.069190
    114          6           0       -6.682112    0.649541   -3.674876
    115          6           0       -6.795259    0.712813   -2.259703
    116          6           0       -6.157282   -1.204095   -5.363442
    117          6           0       -6.885134    2.005071   -4.133145
    118          8           0       -6.989516    2.543232   -5.234609
    119          6           0       -6.847833    2.974977   -2.874459
    120          6           0       -8.024834    3.906584   -2.970894
    121          8           0       -9.185817    3.469169   -2.884948
    122          8           0       -7.585258    5.177597   -2.930176
    123          6           0       -8.717046    6.138980   -3.011594
    124          1           0       -5.638141    1.725078    3.844428
    125          1           0       -5.948024   -4.404709    2.686347
    126          1           0       -6.050910   -3.288476   -3.492501
    127          1           0       -6.101549    4.480470   -0.225870
    128          1           0       -6.222299    3.874305    2.522782
    129          1           0       -4.027735    3.690497    0.500333
    130          1           0       -3.901745    2.534794    1.843021
    131          1           0       -3.938884    4.230893    2.219220
    132          1           0       -8.414935    3.751308    1.585853
    133          1           0       -8.746205    3.985892   -0.169268
    134          1           0       -7.277196    6.240868    0.760595
    135          1           0       -8.260180    5.767931    2.100359
    136          1           0       -6.195183    0.959359    5.727008
    137          1           0       -5.665900   -0.506565    6.482075
    138          1           0       -7.417177   -0.202508    6.396202
    139          1           0       -6.343709   -2.547465    7.074253
    140          1           0       -7.364454   -4.097547    7.119450
    141          1           0       -8.042552   -2.512317    6.649706
    142          1           0       -6.284954   -5.835964    0.603647
    143          1           0       -4.847784   -5.088928   -1.892995
    144          1           0       -4.225213   -6.696044    0.986861
    145          1           0       -3.624743   -5.004507    1.105940
    146          1           0       -3.556276   -5.807677   -0.379270
    147          1           0       -6.597016   -6.903487   -1.753929
    148          1           0       -6.772717   -5.807422   -3.111408
    149          1           0       -8.265175   -6.113828   -0.609239
    150          1           0       -8.935219   -5.908074   -2.268617
    151          1           0       -8.307673   -4.493101   -1.310305
    152          1           0       -6.903958   -0.786814   -6.025910
    153          1           0       -6.192021   -2.291541   -5.358724
    154          1           0       -5.145485   -0.826461   -5.533520
    155          1           0       -5.898264    3.510843   -2.901838
    156          1           0       -8.511399    6.803795   -3.856235
    157          1           0       -8.786895    6.603710   -2.010150
    158          1           0       -9.689753    5.746151   -3.283588
 ---------------------------------------------------------------------

 SCF Done:  E(RCAM-B3LYP) =  -4069.81189560     A.U. after   19 cycles

 Excitation energies and oscillator strengths:

 Excited State   1:      Singlet-A      1.6713 eV  741.83 nm  f=0.2108  <S**2>=0.000
     310 -> 316        0.14611
     311 -> 313        0.36654
     312 -> 314        0.58019
 This state for optimization and/or second-order correction.
 Total Energy, E(TD-HF/TD-DFT) =  -4069.75047513
 Copying the excited state density for this state as the 1-particle RhoCI density.

 Excited State   2:      Singlet-A      1.6826 eV  736.87 nm  f=0.5237  <S**2>=0.000
     309 -> 315        0.14887
     311 -> 313        0.57948
     312 -> 314       -0.36613

 Excited State   3:      Singlet-A      2.1852 eV  567.38 nm  f=0.0829  <S**2>=0.000
     309 -> 313        0.12895
     310 -> 314        0.62980
     312 -> 316       -0.26682

 Excited State   4:      Singlet-A      2.1928 eV  565.43 nm  f=0.1134  <S**2>=0.000
     309 -> 313        0.62768
     310 -> 314       -0.12807
     311 -> 315       -0.27256

 Excited State   5:      Singlet-A      2.6506 eV  467.77 nm  f=0.0000  <S**2>=0.000
     312 -> 313        0.70710

 The electronic state is 1-A.
 Alpha  occ. eigenvalues --  -46.87855 -46.87556 -19.26326 -19.26314 -19.19115
 Alpha  occ. eigenvalues --  -19.19066 -19.18890 -19.18616 -19.18219 -19.17984
 Alpha  occ. eigenvalues --  -14.42503 -14.42396 -14.41511 -14.41246 -14.39462
 Alpha  occ. eigenvalues --  -14.39249 -14.38644 -14.38500 -10.39126 -10.39043
 Alpha  occ. eigenvalues --  -10.35523 -10.35293 -10.34439 -10.34162 -10.31735
 Alpha  occ. eigenvalues --  -10.31717 -10.31453 -10.31216 -10.30959 -10.30927
 Alpha  occ. eigenvalues --  -10.30623 -10.30569 -10.30297 -10.30273 -10.30268
 Alpha  occ. eigenvalues --  -10.30019 -10.29987 -10.29777 -10.29688 -10.29330
 Alpha  occ. eigenvalues --  -10.29313 -10.29308 -10.28784 -10.28641 -10.28602
 Alpha  occ. eigenvalues --  -10.28550 -10.28419 -10.28310 -10.28151 -10.28052
 Alpha  occ. eigenvalues --  -10.27908 -10.27847 -10.27778 -10.27643 -10.27584
 Alpha  occ. eigenvalues --  -10.27568 -10.27534 -10.27521 -10.27458 -10.27388
 Alpha  occ. eigenvalues --  -10.27380 -10.27371 -10.27365 -10.27212 -10.27206
 Alpha  occ. eigenvalues --  -10.26986 -10.26730 -10.26627 -10.26483 -10.26327
 Alpha  occ. eigenvalues --  -10.26287 -10.26265 -10.26081 -10.26004 -10.25927
 Alpha  occ. eigenvalues --  -10.25892 -10.25824 -10.25777 -10.25515 -10.25166
 Alpha  occ. eigenvalues --  -10.24886 -10.24852 -10.24810 -10.24782 -10.24615
 Alpha  occ. eigenvalues --  -10.24577  -3.16598  -3.16306  -1.91480  -1.91188
 Alpha  occ. eigenvalues --   -1.91066  -1.90908  -1.90776  -1.90614  -1.16675
 Alpha  occ. eigenvalues --   -1.16606  -1.08676  -1.08596  -1.07293  -1.06901
 Alpha  occ. eigenvalues --   -1.06867  -1.06688  -1.04634  -1.04397  -1.03821
 Alpha  occ. eigenvalues --   -1.03559  -1.03293  -1.02930  -1.02470  -1.02006
 Alpha  occ. eigenvalues --   -0.92025  -0.91898  -0.89594  -0.89378  -0.89225
 Alpha  occ. eigenvalues --   -0.89064  -0.88362  -0.88086  -0.87923  -0.87724
 Alpha  occ. eigenvalues --   -0.87706  -0.87583  -0.87331  -0.87027  -0.85026
 Alpha  occ. eigenvalues --   -0.84911  -0.84017  -0.83745  -0.83036  -0.82828
 Alpha  occ. eigenvalues --   -0.82699  -0.82563  -0.81635  -0.81526  -0.80650
 Alpha  occ. eigenvalues --   -0.80359  -0.78852  -0.78542  -0.77276  -0.77050
 Alpha  occ. eigenvalues --   -0.76982  -0.76804  -0.75968  -0.75757  -0.74967
 Alpha  occ. eigenvalues --   -0.74665  -0.72831  -0.72600  -0.71728  -0.71469
 Alpha  occ. eigenvalues --   -0.69995  -0.69625  -0.68920  -0.68739  -0.67699
 Alpha  occ. eigenvalues --   -0.67505  -0.67262  -0.67119  -0.65331  -0.65188
 Alpha  occ. eigenvalues --   -0.64910  -0.64677  -0.64675  -0.64565  -0.64340
 Alpha  occ. eigenvalues --   -0.64083  -0.62349  -0.62206  -0.60504  -0.60235
 Alpha  occ. eigenvalues --   -0.59848  -0.59708  -0.59045  -0.58891  -0.58561
 Alpha  occ. eigenvalues --   -0.58330  -0.57635  -0.57487  -0.57373  -0.57130
 Alpha  occ. eigenvalues --   -0.56363  -0.56116  -0.56023  -0.55820  -0.55578
 Alpha  occ. eigenvalues --   -0.55408  -0.55372  -0.55138  -0.54587  -0.54386
 Alpha  occ. eigenvalues --   -0.53933  -0.53827  -0.53359  -0.53271  -0.53131
 Alpha  occ. eigenvalues --   -0.53057  -0.52970  -0.52820  -0.52809  -0.52579
 Alpha  occ. eigenvalues --   -0.52528  -0.52281  -0.51967  -0.51805  -0.51660
 Alpha  occ. eigenvalues --   -0.51579  -0.51253  -0.51114  -0.50631  -0.50378
 Alpha  occ. eigenvalues --   -0.50106  -0.49976  -0.49883  -0.49734  -0.49565
 Alpha  occ. eigenvalues --   -0.49399  -0.49267  -0.49138  -0.49120  -0.49020
 Alpha  occ. eigenvalues --   -0.48643  -0.48531  -0.48505  -0.48478  -0.48259
 Alpha  occ. eigenvalues --   -0.48234  -0.47750  -0.47500  -0.47353  -0.47011
 Alpha  occ. eigenvalues --   -0.46856  -0.46606  -0.46596  -0.46464  -0.46419
 Alpha  occ. eigenvalues --   -0.46222  -0.46169  -0.45977  -0.45870  -0.45743
 Alpha  occ. eigenvalues --   -0.45273  -0.45066  -0.44630  -0.44566  -0.44431
 Alpha  occ. eigenvalues --   -0.44385  -0.44212  -0.44133  -0.44072  -0.44040
 Alpha  occ. eigenvalues --   -0.43973  -0.43857  -0.43546  -0.43479  -0.43440
 Alpha  occ. eigenvalues --   -0.43288  -0.43083  -0.42868  -0.42805  -0.42765
 Alpha  occ. eigenvalues --   -0.42719  -0.42433  -0.42077  -0.41861  -0.41760
 Alpha  occ. eigenvalues --   -0.41578  -0.41578  -0.41366  -0.41194  -0.40923
 Alpha  occ. eigenvalues --   -0.40888  -0.40883  -0.40640  -0.40631  -0.40604
 Alpha  occ. eigenvalues --   -0.40368  -0.40267  -0.40151  -0.39534  -0.39296
 Alpha  occ. eigenvalues --   -0.38539  -0.38218  -0.37786  -0.37574  -0.37388
 Alpha  occ. eigenvalues --   -0.37307  -0.37152  -0.37108  -0.36767  -0.36707
 Alpha  occ. eigenvalues --   -0.36250  -0.36110  -0.34343  -0.34153  -0.33819
 Alpha  occ. eigenvalues --   -0.33805  -0.33244  -0.33074  -0.31419  -0.31173
 Alpha  occ. eigenvalues --   -0.31093  -0.30871  -0.30078  -0.29890  -0.29508
 Alpha  occ. eigenvalues --   -0.29377  -0.29232  -0.29121  -0.24138  -0.23933
 Alpha  occ. eigenvalues --   -0.21185  -0.21014
 Alpha virt. eigenvalues --   -0.08831  -0.08694  -0.01811  -0.01575  -0.00117
 Alpha virt. eigenvalues --    0.00064   0.02144   0.02294   0.03054   0.03322
 Alpha virt. eigenvalues --    0.04670   0.04828   0.05052   0.05216   0.06145

 Mulliken charges:
               1
     1  Mg   0.838645
     2  C   -0.002915
     3  C   -0.093780
     4  C   -0.046143
     5  C   -0.064012
     6  N   -0.256795
     7  C   -0.052359
     8  C   -0.014041
     9  C   -0.087040
    10  C    0.046290
    11  C    0.104764
    12  C    0.053364
    13  C   -0.071948
    14  H    0.036285
    15  N   -0.433150
    16  C    0.168353
    17  C   -0.176970
    18  C   -0.004152
    19  C    0.148646
    20  C    0.110069
    21  C    0.011967
    22  O   -0.250145
    23  C    0.062556
    24  N   -0.341128
    25  C    0.041257
    26  C   -0.028131
    27  C   -0.023924
    28  C    0.074715
    29  C    0.076189
    30  C    0.035196
    31  C   -0.004428
    32  N   -0.310502
    33  C    0.080375
    34  C   -0.169671
    35  C    0.008423
    36  C    0.082949
    37  C    0.127314
    38  C    0.046135
    39  O   -0.188292
    40  C   -0.005322
    41  C    0.212920
    42  O   -0.257246
    43  O   -0.304704
    44  C    0.157723
    45  H   -0.017330
    46  H   -0.017149
    47  H   -0.041530
    48  H    0.001033
    49  H   -0.003709
    50  H    0.025491
    51  H    0.016393
    52  H    0.016897
    53  H    0.011424
    54  H    0.043971
    55  H    0.017904
    56  H    0.018327
    57  H    0.006210
    58  H    0.026886
    59  H    0.039852
    60  H    0.037687
    61  H    0.035230
    62  H    0.031576
    63  H    0.015990
    64  H    0.009588
    65  H    0.022960
    66  H    0.012755
    67  H    0.004852
    68  H    0.006063
    69  H    0.004953
    70  H    0.008031
    71  H    0.017815
    72  H    0.029262
    73  H    0.047701
    74  H    0.009060
    75  H    0.046104
    76  H    0.035301
    77  H    0.043025
    78  H    0.046590
    79  H    0.053449
    80  Mg   0.838107
    81  C   -0.017044
    82  C   -0.087881
    83  C   -0.045246
    84  C   -0.064343
    85  N   -0.254589
    86  C   -0.049892
    87  C   -0.015087
    88  C   -0.090503
    89  C    0.045831
    90  C    0.114344
    91  C    0.062558
    92  C   -0.077750
    93  H    0.034498
    94  N   -0.423566
    95  C    0.163091
    96  C   -0.174568
    97  C   -0.007647
    98  C    0.152219
    99  C    0.099358
   100  C    0.015583
   101  O   -0.252838
   102  C    0.061216
   103  N   -0.350022
   104  C    0.037966
   105  C   -0.020165
   106  C   -0.034756
   107  C    0.088947
   108  C    0.073054
   109  C    0.034677
   110  C   -0.007627
   111  N   -0.324045
   112  C    0.078390
   113  C   -0.163199
   114  C    0.001950
   115  C    0.096253
   116  C    0.131548
   117  C    0.042076
   118  O   -0.188705
   119  C    0.001019
   120  C    0.211177
   121  O   -0.251022
   122  O   -0.305763
   123  C    0.152122
   124  H   -0.019634
   125  H   -0.015165
   126  H   -0.040437
   127  H   -0.001034
   128  H   -0.004452
   129  H    0.022057
   130  H    0.014947
   131  H    0.016568
   132  H    0.013935
   133  H    0.037530
   134  H    0.020661
   135  H    0.019631
   136  H    0.008717
   137  H    0.026150
   138  H    0.039608
   139  H    0.038190
   140  H    0.036357
   141  H    0.033706
   142  H    0.014159
   143  H    0.013317
   144  H    0.025302
   145  H    0.012579
   146  H    0.007421
   147  H    0.006559
   148  H    0.003405
   149  H    0.010939
   150  H    0.017565
   151  H    0.029848
   152  H    0.045562
   153  H    0.008585
   154  H    0.046682
   155  H    0.034496
   156  H    0.043472
   157  H    0.049531
   158  H    0.053519
 Sum of Mulliken charges =  -0.00000

 Dipole moment (field-independent basis, Debye):
    X=              3.5154    Y=              4.5367    Z=              1.2118  Tot=              5.8658
 Quadrupole moment (field-independent basis, Debye-Ang):
   XX=           -520.6560   YY=           -521.7116   ZZ=           -476.5015
   XY=             14.5975   XZ=            -50.7227   YZ=             19.8689

 Normal termination of Gaussian 16 at Sat Sep 11 09:47:44 2021.
