 Gaussian 16, Revision A.03,
 Gaussian 16:  ES64L-G16RevA.03 25-Dec-2016

 -----------------------------------
 #p cam-b3lyp/Def2SVP td=(nstates=5)
 -----------------------------------

 --------------------------------
 TDDFT excited states in gaussian
 --------------------------------
 Symbolic Z-matrix:
 Charge =  0 Multiplicity = 1

                         Standard orientation:
 ---------------------------------------------------------------------
 Center     Atomic      Atomic             Coordinates (Angstroms)
 Number     Number       Type             X           Y           Z
 ---------------------------------------------------------------------
      1         12           0       -6.518501    0.583881   -0.565702
      2          6           0       -6.787551   -2.654133    0.935996
      3          6           0       -7.644361    1.880898    2.382730
      4          6           0       -6.722829    3.400658   -2.008144
      5          6           0       -6.516406   -1.014978   -3.662363
      6          7           0       -7.105987   -0.367898    1.344697
      7          6           0       -7.106342   -1.612933    1.810593
      8          6           0       -7.404226   -1.701205    3.337304
      9          6           0       -8.194773   -0.328648    3.519301
     10          6           0       -7.587906    0.455534    2.369217
     11          6           0       -9.697140   -0.455631    3.288495
     12          6           0       -6.096272   -1.727428    4.197711
     13          6           0       -6.284797   -2.138599    5.660841
     14          1           0       -5.243644   -2.922863    6.307586
     15          7           0       -6.625089    2.405833    0.190591
     16          6           0       -7.095428    2.748634    1.413928
     17          6           0       -6.965006    4.218893    1.503430
     18          6           0       -6.557733    4.722059    0.162144
     19          6           0       -6.645508    3.516926   -0.622284
     20          6           0       -7.169783    4.987351    2.772795
     21          6           0       -6.163694    6.076519   -0.336155
     22          8           0       -6.072009    6.342263   -1.583371
     23          6           0       -5.971356    7.121916    0.685213
     24          7           0       -6.828142    1.142404   -2.553115
     25          6           0       -6.814416    2.428989   -2.918483
     26          6           0       -6.773050    2.572324   -4.411026
     27          6           0       -6.515039    1.106304   -4.988928
     28          6           0       -6.535761    0.319803   -3.655040
     29          6           0       -8.031386    3.163231   -5.061741
     30          6           0       -5.299447    0.926281   -5.932510
     31          6           0       -4.015352    1.125867   -5.158970
     32          7           0       -6.452296   -1.468449   -1.268982
     33          6           0       -6.483617   -1.904532   -2.601471
     34          6           0       -6.527416   -3.378075   -2.572843
     35          6           0       -6.535318   -3.698421   -1.216686
     36          6           0       -6.525278   -2.500234   -0.446921
     37          6           0       -6.612351   -4.231495   -3.708138
     38          6           0       -6.574785   -4.773687   -0.238881
     39          8           0       -6.501728   -6.001997   -0.297283
     40          6           0       -6.862678   -4.138702    1.192810
     41          6           0       -5.877988   -4.735523    2.161055
     42          8           0       -4.658290   -4.488977    2.066613
     43          8           0       -6.543463   -5.303772    3.178295
     44          6           0       -5.624149   -5.889441    4.190227
     45          1           0       -8.209432    2.379284    3.172823
     46          1           0       -6.683695    4.349162   -2.547816
     47          1           0       -6.432169   -1.584307   -4.589844
     48          1           0       -8.039183   -2.538020    3.628843
     49          1           0       -7.962705    0.151718    4.469625
     50          1           0       -9.959978   -1.443320    2.909934
     51          1           0       -9.944751    0.311622    2.554667
     52          1           0      -10.250980   -0.196681    4.191259
     53          1           0       -5.736773   -0.707823    4.336372
     54          1           0       -5.344206   -2.368880    3.736992
     55          1           0       -7.262432   -2.592903    5.824388
     56          1           0       -6.300648   -1.234946    6.270234
     57          1           0       -7.622080    4.368736    3.546932
     58          1           0       -7.917722    5.752230    2.564815
     59          1           0       -6.249948    5.457633    3.120749
     60          1           0       -6.895999    7.249054    1.248614
     61          1           0       -5.605862    7.999134    0.152528
     62          1           0       -5.220874    6.783282    1.400092
     63          1           0       -5.957966    3.226105   -4.718652
     64          1           0       -7.360857    0.741984   -5.572482
     65          1           0       -7.838489    4.056340   -5.656595
     66          1           0       -8.754546    3.367560   -4.272704
     67          1           0       -8.588327    2.470446   -5.692045
     68          1           0       -5.318082    1.676566   -6.722238
     69          1           0       -5.264761   -0.054295   -6.407399
     70          1           0       -3.894561    2.208561   -5.162923
     71          1           0       -3.184081    0.638423   -5.669457
     72          1           0       -4.123875    0.813896   -4.120036
     73          1           0       -5.912909   -5.047983   -3.528978
     74          1           0       -6.369169   -3.695658   -4.625385
     75          1           0       -7.660808   -4.525507   -3.661755
     76          1           0       -7.891478   -4.391939    1.446906
     77          1           0       -5.897700   -6.938541    4.303331
     78          1           0       -5.687704   -5.252039    5.072318
     79          1           0       -4.577996   -5.980139    3.895820
     80         12           0        6.676947    0.782187    0.458924
     81          6           0        6.668111   -2.224725   -1.500029
     82          6           0        5.622731   -1.109276    3.094376
     83          6           0        6.241580    3.470893    2.086421
     84          6           0        6.612501    2.566927   -2.533774
     85          7           0        6.238499   -1.377458    0.648606
     86          6           0        6.330210   -2.432780   -0.146527
     87          6           0        6.122093   -3.795611    0.566867
     88          6           0        5.255390   -3.282439    1.817607
     89          6           0        5.756923   -1.841530    1.887769
     90          6           0        3.760908   -3.255185    1.543512
     91          6           0        7.475281   -4.439895    1.031400
     92          6           0        7.376739   -5.906715    1.456233
     93          1           0        8.498279   -6.793893    1.160368
     94          7           0        6.505069    1.087482    2.412342
     95          6           0        6.083133    0.202951    3.340166
     96          6           0        6.117900    0.919649    4.624410
     97          6           0        6.437317    2.348139    4.355904
     98          6           0        6.385416    2.362147    2.907732
     99          6           0        5.940425    0.230271    5.946038
    100          6           0        6.727280    3.512196    5.254287
    101          8           0        6.743639    4.715507    4.813146
    102          6           0        6.899186    3.210832    6.682962
    103          7           0        6.245280    2.730059   -0.125706
    104          6           0        6.160258    3.720747    0.779401
    105          6           0        6.116732    5.072005    0.106644
    106          6           0        6.435238    4.794445   -1.435790
    107          6           0        6.523635    3.252867   -1.402509
    108          6           0        4.795543    5.831569    0.224540
    109          6           0        7.612154    5.588872   -2.065413
    110          6           0        8.920935    5.144296   -1.453159
    111          7           0        6.831247    0.302107   -1.641972
    112          6           0        6.753318    1.199042   -2.729858
    113          6           0        6.796904    0.389984   -3.965157
    114          6           0        6.874592   -0.933634   -3.506383
    115          6           0        6.858737   -0.949704   -2.085467
    116          6           0        6.716071    0.894902   -5.293553
    117          6           0        6.955693   -2.321570   -3.901058
    118          8           0        7.089643   -2.914033   -4.970996
    119          6           0        6.698096   -3.227011   -2.620357
    120          6           0        7.761775   -4.289828   -2.581341
    121          8           0        8.954452   -3.984240   -2.406007
    122          8           0        7.174496   -5.499668   -2.539420
    123          6           0        8.188685   -6.586245   -2.488541
    124          1           0        5.075944   -1.565509    3.920067
    125          1           0        6.199077    4.434845    2.598742
    126          1           0        6.695796    3.054805   -3.507280
    127          1           0        5.558000   -4.524780   -0.002255
    128          1           0        5.514641   -3.821048    2.725377
    129          1           0        3.536781   -3.473890    0.510036
    130          1           0        3.433266   -2.255826    1.798405
    131          1           0        3.239335   -3.927746    2.230501
    132          1           0        7.778301   -3.988134    1.984721
    133          1           0        8.227913   -4.332645    0.274651
    134          1           0        6.431144   -6.364472    1.141172
    135          1           0        7.345179   -5.950525    2.547611
    136          1           0        5.556637   -0.789571    5.819430
    137          1           0        5.140408    0.757600    6.476855
    138          1           0        6.844917    0.252734    6.557634
    139          1           0        5.999749    2.731164    7.061639
    140          1           0        7.187457    4.155437    7.148256
    141          1           0        7.712686    2.484922    6.791967
    142          1           0        6.877286    5.729381    0.509764
    143          1           0        5.580155    5.046336   -2.080149
    144          1           0        4.907380    6.833802    0.679615
    145          1           0        4.104977    5.228185    0.798633
    146          1           0        4.257659    5.970626   -0.711706
    147          1           0        7.511666    6.654133   -1.843436
    148          1           0        7.672632    5.488974   -3.143999
    149          1           0        8.972378    5.728583   -0.529546
    150          1           0        9.752433    5.378127   -2.114953
    151          1           0        8.884238    4.085464   -1.171777
    152          1           0        7.462367    0.367772   -5.872937
    153          1           0        6.877416    1.970539   -5.320549
    154          1           0        5.685170    0.628114   -5.541217
    155          1           0        5.698090   -3.651931   -2.715336
    156          1           0        7.979186   -7.258309   -3.326471
    157          1           0        8.118157   -7.013310   -1.470501
    158          1           0        9.220294   -6.318554   -2.684935
 ---------------------------------------------------------------------

 SCF Done:  E(RCAM-B3LYP) =  -4069.81194995     A.U. after   19 cycles

 Excitation energies and oscillator strengths:

 Excited State   1:      Singlet-A      1.6705 eV  742.20 nm  f=0.1768  <S**2>=0.000
     310 -> 316        0.14184
     311 -> 313       -0.38803
     312 -> 314        0.56611
 This state for optimization and/or second-order correction.
 Total Energy, E(TD-HF/TD-DFT) =  -4069.75056000
 Copying the excited state density for this state as the 1-particle RhoCI density.

 Excited State   2:      Singlet-A      1.6834 eV  736.50 nm  f=0.5593  <S**2>=0.000
     309 -> 315        0.14575
     311 -> 313        0.56533
     312 -> 314        0.38754

 Excited State   3:      Singlet-A      2.1847 eV  567.52 nm  f=0.0800  <S**2>=0.000
     309 -> 313       -0.12654
     310 -> 314        0.63037
     312 -> 316       -0.26626

 Excited State   4:      Singlet-A      2.1933 eV  565.28 nm  f=0.1155  <S**2>=0.000
     309 -> 313        0.62812
     310 -> 314        0.12547
     311 -> 315       -0.27333

 Excited State   5:      Singlet-A      2.6462 eV  468.54 nm  f=0.0000  <S**2>=0.000
     312 -> 313        0.70710

 The electronic state is 1-A.
 Alpha  occ. eigenvalues --  -46.87859 -46.87544 -19.26418 -19.26208 -19.19153
 Alpha  occ. eigenvalues --  -19.19029 -19.18865 -19.18642 -19.18246 -19.17935
 Alpha  occ. eigenvalues --  -14.42516 -14.42369 -14.41508 -14.41247 -14.39464
 Alpha  occ. eigenvalues --  -14.39240 -14.38650 -14.38485 -10.39207 -10.38957
 Alpha  occ. eigenvalues --  -10.35497 -10.35322 -10.34468 -10.34109 -10.31834
 Alpha  occ. eigenvalues --  -10.31615 -10.31475 -10.31170 -10.30981 -10.30893
 Alpha  occ. eigenvalues --  -10.30634 -10.30567 -10.30291 -10.30258 -10.30243
 Alpha  occ. eigenvalues --  -10.30038 -10.29976 -10.29788 -10.29690 -10.29330
 Alpha  occ. eigenvalues --  -10.29311 -10.29297 -10.28842 -10.28675 -10.28546
 Alpha  occ. eigenvalues --  -10.28495 -10.28431 -10.28288 -10.28198 -10.27946
 Alpha  occ. eigenvalues --  -10.27892 -10.27853 -10.27790 -10.27643 -10.27540
 Alpha  occ. eigenvalues --  -10.27536 -10.27532 -10.27489 -10.27473 -10.27429
 Alpha  occ. eigenvalues --  -10.27383 -10.27366 -10.27362 -10.27290 -10.27248
 Alpha  occ. eigenvalues --  -10.26915 -10.26825 -10.26540 -10.26450 -10.26368
 Alpha  occ. eigenvalues --  -10.26306 -10.26204 -10.26073 -10.26062 -10.25887
 Alpha  occ. eigenvalues --  -10.25826 -10.25757 -10.25745 -10.25469 -10.25320
 Alpha  occ. eigenvalues --  -10.24896 -10.24846 -10.24761 -10.24707 -10.24660
 Alpha  occ. eigenvalues --  -10.24583  -3.16602  -3.16294  -1.91484  -1.91176
 Alpha  occ. eigenvalues --   -1.91070  -1.90913  -1.90765  -1.90602  -1.16766
 Alpha  occ. eigenvalues --   -1.16504  -1.08707  -1.08540  -1.07265  -1.06897
 Alpha  occ. eigenvalues --   -1.06813  -1.06773  -1.04649  -1.04367  -1.03821
 Alpha  occ. eigenvalues --   -1.03547  -1.03294  -1.02929  -1.02472  -1.01998
 Alpha  occ. eigenvalues --   -0.92044  -0.91864  -0.89568  -0.89393  -0.89273
 Alpha  occ. eigenvalues --   -0.88977  -0.88334  -0.88124  -0.87927  -0.87741
 Alpha  occ. eigenvalues --   -0.87686  -0.87559  -0.87328  -0.87031  -0.85064
 Alpha  occ. eigenvalues --   -0.84852  -0.83983  -0.83784  -0.83015  -0.82854
 Alpha  occ. eigenvalues --   -0.82726  -0.82519  -0.81680  -0.81471  -0.80673
 Alpha  occ. eigenvalues --   -0.80324  -0.78854  -0.78535  -0.77282  -0.77020
 Alpha  occ. eigenvalues --   -0.77018  -0.76762  -0.76005  -0.75688  -0.74952
 Alpha  occ. eigenvalues --   -0.74699  -0.72833  -0.72585  -0.71737  -0.71450
 Alpha  occ. eigenvalues --   -0.69945  -0.69667  -0.68950  -0.68689  -0.67708
 Alpha  occ. eigenvalues --   -0.67491  -0.67306  -0.67074  -0.65370  -0.65126
 Alpha  occ. eigenvalues --   -0.64927  -0.64695  -0.64651  -0.64525  -0.64321
 Alpha  occ. eigenvalues --   -0.64102  -0.62395  -0.62154  -0.60495  -0.60246
 Alpha  occ. eigenvalues --   -0.59881  -0.59645  -0.59052  -0.58876  -0.58571
 Alpha  occ. eigenvalues --   -0.58310  -0.57674  -0.57428  -0.57370  -0.57135
 Alpha  occ. eigenvalues --   -0.56375  -0.56092  -0.56087  -0.55756  -0.55583
 Alpha  occ. eigenvalues --   -0.55404  -0.55343  -0.55142  -0.54601  -0.54377
 Alpha  occ. eigenvalues --   -0.53981  -0.53747  -0.53359  -0.53297  -0.53123
 Alpha  occ. eigenvalues --   -0.53019  -0.52998  -0.52819  -0.52778  -0.52560
 Alpha  occ. eigenvalues --   -0.52476  -0.52315  -0.51970  -0.51782  -0.51699
 Alpha  occ. eigenvalues --   -0.51524  -0.51266  -0.51084  -0.50620  -0.50393
 Alpha  occ. eigenvalues --   -0.50077  -0.49977  -0.49857  -0.49769  -0.49587
 Alpha  occ. eigenvalues --   -0.49368  -0.49285  -0.49175  -0.49078  -0.48949
 Alpha  occ. eigenvalues --   -0.48674  -0.48518  -0.48507  -0.48423  -0.48281
 Alpha  occ. eigenvalues --   -0.48243  -0.47763  -0.47474  -0.47359  -0.47014
 Alpha  occ. eigenvalues --   -0.46859  -0.46641  -0.46591  -0.46421  -0.46404
 Alpha  occ. eigenvalues --   -0.46228  -0.46165  -0.45977  -0.45902  -0.45697
 Alpha  occ. eigenvalues --   -0.45251  -0.45109  -0.44654  -0.44570  -0.44396
 Alpha  occ. eigenvalues --   -0.44339  -0.44205  -0.44163  -0.44090  -0.43984
 Alpha  occ. eigenvalues --   -0.43979  -0.43831  -0.43582  -0.43454  -0.43428
 Alpha  occ. eigenvalues --   -0.43255  -0.43094  -0.42807  -0.42806  -0.42778
 Alpha  occ. eigenvalues --   -0.42708  -0.42459  -0.42071  -0.41852  -0.41773
 Alpha  occ. eigenvalues --   -0.41615  -0.41547  -0.41323  -0.41208  -0.40942
 Alpha  occ. eigenvalues --   -0.40883  -0.40851  -0.40624  -0.40623  -0.40567
 Alpha  occ. eigenvalues --   -0.40379  -0.40335  -0.40083  -0.39477  -0.39338
 Alpha  occ. eigenvalues --   -0.38523  -0.38244  -0.37846  -0.37514  -0.37374
 Alpha  occ. eigenvalues --   -0.37346  -0.37155  -0.37062  -0.36818  -0.36645
 Alpha  occ. eigenvalues --   -0.36272  -0.36100  -0.34350  -0.34136  -0.33891
 Alpha  occ. eigenvalues --   -0.33734  -0.33253  -0.33061  -0.31395  -0.31199
 Alpha  occ. eigenvalues --   -0.31100  -0.30855  -0.30107  -0.29837  -0.29508
 Alpha  occ. eigenvalues --   -0.29384  -0.29227  -0.29102  -0.24144  -0.23918
 Alpha  occ. eigenvalues --   -0.21188  -0.21002
 Alpha virt. eigenvalues --   -0.08835  -0.08682  -0.01809  -0.01573  -0.00119
 Alpha virt. eigenvalues --    0.00075   0.02135   0.02318   0.03052   0.03329
 Alpha virt. eigenvalues --    0.04640   0.04868   0.04978   0.05297   0.06065

 Mulliken charges:
               1
     1  Mg   0.838601
     2  C   -0.003283
     3  C   -0.094247
     4  C   -0.045770
     5  C   -0.063705
     6  N   -0.256789
     7  C   -0.052583
     8  C   -0.014040
     9  C   -0.086991
    10  C    0.046239
    11  C    0.104777
    12  C    0.053544
    13  C   -0.071464
    14  H    0.034903
    15  N   -0.433188
    16  C    0.168442
    17  C   -0.177104
    18  C   -0.003881
    19  C    0.148699
    20  C    0.110134
    21  C    0.012327
    22  O   -0.249528
    23  C    0.062436
    24  N   -0.341130
    25  C    0.041295
    26  C   -0.028228
    27  C   -0.024014
    28  C    0.074761
    29  C    0.076133
    30  C    0.035076
    31  C   -0.004596
    32  N   -0.310425
    33  C    0.080301
    34  C   -0.169572
    35  C    0.008268
    36  C    0.082882
    37  C    0.127310
    38  C    0.045970
    39  O   -0.188633
    40  C   -0.005323
    41  C    0.212948
    42  O   -0.257862
    43  O   -0.304518
    44  C    0.157957
    45  H   -0.017547
    46  H   -0.016682
    47  H   -0.041142
    48  H    0.000920
    49  H   -0.004140
    50  H    0.025514
    51  H    0.016650
    52  H    0.016718
    53  H    0.011153
    54  H    0.043527
    55  H    0.018183
    56  H    0.018067
    57  H    0.005812
    58  H    0.026988
    59  H    0.039722
    60  H    0.037422
    61  H    0.035792
    62  H    0.031631
    63  H    0.016620
    64  H    0.009629
    65  H    0.023341
    66  H    0.012523
    67  H    0.004922
    68  H    0.006561
    69  H    0.005082
    70  H    0.008620
    71  H    0.018729
    72  H    0.028685
    73  H    0.047575
    74  H    0.009498
    75  H    0.046088
    76  H    0.035270
    77  H    0.043059
    78  H    0.046324
    79  H    0.052757
    80  Mg   0.837964
    81  C   -0.016756
    82  C   -0.087590
    83  C   -0.045840
    84  C   -0.064988
    85  N   -0.254676
    86  C   -0.049336
    87  C   -0.015220
    88  C   -0.090568
    89  C    0.045905
    90  C    0.114316
    91  C    0.062496
    92  C   -0.077854
    93  H    0.034346
    94  N   -0.423485
    95  C    0.162878
    96  C   -0.174693
    97  C   -0.008200
    98  C    0.152264
    99  C    0.099461
   100  C    0.015287
   101  O   -0.253635
   102  C    0.061308
   103  N   -0.350052
   104  C    0.037621
   105  C   -0.019811
   106  C   -0.034798
   107  C    0.088977
   108  C    0.073690
   109  C    0.034789
   110  C   -0.007612
   111  N   -0.324132
   112  C    0.078594
   113  C   -0.163254
   114  C    0.002367
   115  C    0.096194
   116  C    0.131474
   117  C    0.042350
   118  O   -0.187926
   119  C    0.000943
   120  C    0.211187
   121  O   -0.251339
   122  O   -0.305244
   123  C    0.152140
   124  H   -0.019268
   125  H   -0.016060
   126  H   -0.040697
   127  H    0.000246
   128  H   -0.004596
   129  H    0.023671
   130  H    0.014573
   131  H    0.017914
   132  H    0.013546
   133  H    0.037346
   134  H    0.021653
   135  H    0.019437
   136  H    0.008985
   137  H    0.025609
   138  H    0.039446
   139  H    0.037926
   140  H    0.035917
   141  H    0.033916
   142  H    0.014091
   143  H    0.012498
   144  H    0.024633
   145  H    0.011548
   146  H    0.005928
   147  H    0.006026
   148  H    0.003569
   149  H    0.010751
   150  H    0.017717
   151  H    0.030245
   152  H    0.045818
   153  H    0.008293
   154  H    0.046954
   155  H    0.035972
   156  H    0.043946
   157  H    0.049686
   158  H    0.053223
 Sum of Mulliken charges =  -0.00000

 Dipole moment (field-independent basis, Debye):
    X=             -4.6434    Y=              1.9933    Z=              6.2795  Tot=              8.0602
 Quadrupole moment (field-independent basis, Debye-Ang):
   XX=           -518.1171   YY=           -527.0383   ZZ=           -472.5246
   XY=            -19.7169   XZ=              4.3597   YZ=            -26.2995

 Normal termination of Gaussian 16 at Sat Sep 11 16:36:34 2021.
