 Gaussian 16, Revision A.03,
 Gaussian 16:  ES64L-G16RevA.03 25-Dec-2016

 -----------------------------------
 #p cam-b3lyp/Def2SVP td=(nstates=5)
 -----------------------------------

 --------------------------------
 TDDFT excited states in gaussian
 --------------------------------
 Symbolic Z-matrix:
 Charge =  0 Multiplicity = 1

                         Standard orientation:
 ---------------------------------------------------------------------
 Center     Atomic      Atomic             Coordinates (Angstroms)
 Number     Number       Type             X           Y           Z
 ---------------------------------------------------------------------
      1         12           0        3.138195    1.810473    0.924671
      2          6           0        4.639476   -1.342023    0.137183
      3          6           0        4.318078    2.951271   -2.066904
      4          6           0        2.218603    4.718172    1.794304
      5          6           0        3.075975    0.782229    4.254010
      6          7           0        4.314617    0.832673   -0.675511
      7          6           0        4.775677   -0.396931   -0.882079
      8          6           0        5.350753   -0.608591   -2.314511
      9          6           0        5.705662    0.904708   -2.669429
     10          6           0        4.696194    1.606414   -1.778077
     11          6           0        7.110035    1.317752   -2.240906
     12          6           0        4.286048   -1.194092   -3.302095
     13          6           0        4.845696   -1.733318   -4.621710
     14          1           0        4.223534   -2.905042   -5.219477
     15          7           0        2.817489    3.430572   -0.159433
     16          6           0        3.369430    3.722932   -1.361586
     17          6           0        2.816120    5.036468   -1.755481
     18          6           0        2.045213    5.570876   -0.598673
     19          6           0        2.355382    4.594037    0.413729
     20          6           0        2.998155    5.630763   -3.118355
     21          6           0        1.176608    6.777072   -0.429115
     22          8           0        0.789928    7.180580    0.720770
     23          6           0        0.858917    7.535105   -1.652839
     24          7           0        2.907619    2.730051    2.784468
     25          6           0        2.439146    3.978941    2.883407
     26          6           0        2.093506    4.321653    4.302216
     27          6           0        2.195711    2.956508    5.124217
     28          6           0        2.689574    2.031331    3.984737
     29          6           0        2.977076    5.385628    4.968004
     30          6           0        0.945947    2.527568    5.933242
     31          6           0       -0.180400    2.173344    4.988273
     32          7           0        3.576100   -0.018857    2.007646
     33          6           0        3.502907   -0.215919    3.394183
     34          6           0        3.996962   -1.578802    3.663487
     35          6           0        4.341027   -2.077166    2.408459
     36          6           0        4.103157   -1.078899    1.420951
     37          6           0        4.135636   -2.176460    4.947235
     38          6           0        4.877406   -3.212063    1.674862
     39          8           0        5.172150   -4.372087    1.966346
     40          6           0        5.206473   -2.738886    0.190393
     41          6           0        4.636906   -3.765269   -0.750586
     42          8           0        3.403427   -3.924848   -0.852713
     43          8           0        5.612153   -4.226543   -1.548497
     44          6           0        5.108108   -5.227432   -2.526409
     45          1           0        4.834964    3.484624   -2.867094
     46          1           0        1.798377    5.669647    2.126785
     47          1           0        3.006566    0.362317    5.259152
     48          1           0        6.251042   -1.221874   -2.356792
     49          1           0        5.510029    1.133692   -3.716814
     50          1           0        7.589594    0.540844   -1.645626
     51          1           0        6.979104    2.224160   -1.649488
     52          1           0        7.709081    1.607456   -3.104614
     53          1           0        3.663966   -0.383598   -3.681798
     54          1           0        3.695710   -1.971783   -2.816272
     55          1           0        5.927917   -1.857715   -4.574464
     56          1           0        4.693317   -0.977001   -5.391752
     57          1           0        3.746249    5.088340   -3.695138
     58          1           0        3.429122    6.621936   -2.978530
     59          1           0        2.055434    5.712801   -3.659539
     60          1           0        1.785301    7.875292   -2.116126
     61          1           0        0.156064    8.311164   -1.351875
     62          1           0        0.385414    6.864601   -2.370591
     63          1           0        1.077394    4.707204    4.374975
     64          1           0        2.995356    2.983902    5.864820
     65          1           0        2.420004    6.242865    5.346846
     66          1           0        3.731176    5.697417    4.245916
     67          1           0        3.597893    5.018380    5.784785
     68          1           0        0.595949    3.350775    6.555156
     69          1           0        1.127812    1.673262    6.585421
     70          1           0       -0.623350    3.142872    4.763235
     71          1           0       -0.900492    1.520395    5.482577
     72          1           0        0.199349    1.763425    4.052195
     73          1           0        3.760677   -3.195381    4.851447
     74          1           0        3.583228   -1.620641    5.704543
     75          1           0        5.214754   -2.110574    5.085144
     76          1           0        6.291439   -2.672517    0.115795
     77          1           0        5.703114   -6.131427   -2.396041
     78          1           0        5.129449   -4.744151   -3.503337
     79          1           0        4.104349   -5.614013   -2.346514
     80         12           0       -4.197067   -0.785568   -0.646630
     81          6           0       -1.385354   -3.000984   -0.391257
     82          6           0       -2.153931    1.373648   -2.319335
     83          6           0       -6.518773    1.371831   -0.495866
     84          6           0       -5.655905   -2.559043    1.974880
     85          7           0       -2.064655   -0.910579   -1.220584
     86          6           0       -1.113177   -1.826926   -1.124027
     87          6           0        0.177743   -1.500263   -1.921770
     88          6           0        0.024474    0.097100   -1.983586
     89          6           0       -1.495028    0.201425   -1.870055
     90          6           0        0.642461    0.807589   -0.790847
     91          6           0        0.169849   -2.134040   -3.357136
     92          6           0        1.521218   -2.117275   -4.074968
     93          1           0        1.864091   -3.243056   -4.939563
     94          7           0       -4.485904    0.866523   -1.707628
     95          6           0       -3.547184    1.603462   -2.337727
     96          6           0       -4.266676    2.727434   -2.956749
     97          6           0       -5.683360    2.684425   -2.503001
     98          6           0       -5.611182    1.628401   -1.513215
     99          6           0       -3.624978    3.660529   -3.942139
    100          6           0       -6.898870    3.473045   -2.886138
    101          8           0       -7.976239    3.428783   -2.193209
    102          6           0       -6.760643    4.370113   -4.042703
    103          7           0       -5.753326   -0.480634    0.697778
    104          6           0       -6.653888    0.498496    0.502311
    105          6           0       -7.829868    0.352844    1.438384
    106          6           0       -7.645906   -1.072032    2.140848
    107          6           0       -6.288716   -1.482665    1.528635
    108          6           0       -7.965195    1.434512    2.509860
    109          6           0       -8.834637   -2.066459    2.037293
    110          6           0       -9.011048   -2.512424    0.603632
    111          7           0       -3.736134   -2.581371    0.462734
    112          6           0       -4.468165   -3.131392    1.537773
    113          6           0       -3.700238   -4.289073    2.040252
    114          6           0       -2.554392   -4.318603    1.231152
    115          6           0       -2.594919   -3.242355    0.304034
    116          6           0       -4.065587   -5.115639    3.139999
    117          6           0       -1.314651   -5.009164    0.957533
    118          8           0       -0.788176   -6.043647    1.365451
    119          6           0       -0.441697   -4.111624   -0.021628
    120          6           0        0.070080   -4.993353   -1.127590
    121          8           0       -0.717631   -5.511975   -1.938233
    122          8           0        1.411673   -4.903752   -1.177492
    123          6           0        1.965346   -5.752293   -2.266188
    124          1           0       -1.545915    2.215774   -2.651038
    125          1           0       -7.395988    2.022515   -0.471393
    126          1           0       -6.090534   -3.222401    2.725693
    127          1           0        1.100841   -1.766102   -1.420781
    128          1           0        0.363314    0.489739   -2.938779
    129          1           0        0.980019    0.111246   -0.037640
    130          1           0       -0.135290    1.446742   -0.393809
    131          1           0        1.441744    1.476265   -1.123014
    132          1           0       -0.408573   -1.488422   -4.030447
    133          1           0       -0.212028   -3.136047   -3.329099
    134          1           0        2.348506   -1.892116   -3.390984
    135          1           0        1.526764   -1.286616   -4.784892
    136          1           0       -2.533993    3.546262   -3.952666
    137          1           0       -3.787914    4.678360   -3.571541
    138          1           0       -4.053644    3.575997   -4.943022
    139          1           0       -5.963138    5.084428   -3.852413
    140          1           0       -7.757898    4.779099   -4.216164
    141          1           0       -6.451388    3.776952   -4.910540
    142          1           0       -8.763664    0.356176    0.889648
    143          1           0       -7.485103   -0.974322    3.224569
    144          1           0       -8.939727    1.957537    2.481432
    145          1           0       -7.152316    2.138206    2.389074
    146          1           0       -7.823393    1.091171    3.533190
    147          1           0       -9.766497   -1.574136    2.326088
    148          1           0       -8.722812   -2.940686    2.669908
    149          1           0       -9.601994   -1.703141    0.164393
    150          1           0       -9.544958   -3.459572    0.560019
    151          1           0       -8.048994   -2.540348    0.078940
    152          1           0       -3.878043   -6.137286    2.837400
    153          1           0       -5.106534   -4.967803    3.419887
    154          1           0       -3.378149   -4.740427    3.902820
    155          1           0        0.369261   -3.679367    0.565805
    156          1           0        2.698762   -6.422503   -1.807268
    157          1           0        2.337565   -5.048086   -3.033844
    158          1           0        1.296085   -6.462277   -2.737842
 ---------------------------------------------------------------------

 SCF Done:  E(RCAM-B3LYP) =  -4069.77693950     A.U. after   19 cycles

 Excitation energies and oscillator strengths:

 Excited State   1:      Singlet-A      1.6296 eV  760.84 nm  f=0.0023  <S**2>=0.000
     309 -> 315        0.12127
     310 -> 316       -0.10858
     311 -> 313        0.50835
     312 -> 314       -0.46448
 This state for optimization and/or second-order correction.
 Total Energy, E(TD-HF/TD-DFT) =  -4069.71705427
 Copying the excited state density for this state as the 1-particle RhoCI density.

 Excited State   2:      Singlet-A      1.7128 eV  723.88 nm  f=0.6602  <S**2>=0.000
     309 -> 315        0.12547
     310 -> 316        0.13476
     311 -> 313        0.46068
     312 -> 314        0.50413

 Excited State   3:      Singlet-A      2.0925 eV  592.51 nm  f=0.0033  <S**2>=0.000
     309 -> 313       -0.12091
     312 -> 313        0.69288

 Excited State   4:      Singlet-A      2.1728 eV  570.62 nm  f=0.0448  <S**2>=0.000
     309 -> 313        0.38034
     310 -> 314        0.51591
     311 -> 315       -0.15588
     312 -> 316       -0.21128

 Excited State   5:      Singlet-A      2.1886 eV  566.50 nm  f=0.1422  <S**2>=0.000
     309 -> 313        0.50342
     310 -> 314       -0.38443
     311 -> 315       -0.21943
     312 -> 313        0.10006
     312 -> 316        0.16818

 The electronic state is 1-A.
 Alpha  occ. eigenvalues --  -46.88131 -46.87317 -19.26664 -19.24337 -19.19256
 Alpha  occ. eigenvalues --  -19.19181 -19.18477 -19.18419 -19.17833 -19.17444
 Alpha  occ. eigenvalues --  -14.42813 -14.42181 -14.41780 -14.41007 -14.39692
 Alpha  occ. eigenvalues --  -14.39008 -14.38938 -14.38235 -10.39375 -10.37641
 Alpha  occ. eigenvalues --  -10.35816 -10.35106 -10.34709 -10.33570 -10.31839
 Alpha  occ. eigenvalues --  -10.31646 -10.31393 -10.30968 -10.30965 -10.30845
 Alpha  occ. eigenvalues --  -10.30693 -10.30623 -10.30570 -10.30227 -10.30024
 Alpha  occ. eigenvalues --  -10.30002 -10.29964 -10.29873 -10.29650 -10.29534
 Alpha  occ. eigenvalues --  -10.29231 -10.29154 -10.29084 -10.29037 -10.28797
 Alpha  occ. eigenvalues --  -10.28594 -10.28183 -10.28170 -10.28152 -10.28083
 Alpha  occ. eigenvalues --  -10.28000 -10.27975 -10.27925 -10.27842 -10.27756
 Alpha  occ. eigenvalues --  -10.27696 -10.27647 -10.27532 -10.27504 -10.27431
 Alpha  occ. eigenvalues --  -10.27390 -10.27295 -10.27275 -10.27110 -10.27105
 Alpha  occ. eigenvalues --  -10.27045 -10.26820 -10.26619 -10.26397 -10.26380
 Alpha  occ. eigenvalues --  -10.26360 -10.26208 -10.26094 -10.26047 -10.26024
 Alpha  occ. eigenvalues --  -10.25926 -10.25655 -10.25615 -10.25550 -10.25211
 Alpha  occ. eigenvalues --  -10.25163 -10.25125 -10.24853 -10.24520 -10.24481
 Alpha  occ. eigenvalues --  -10.24325  -3.16824  -3.16068  -1.91705  -1.91297
 Alpha  occ. eigenvalues --   -1.91139  -1.90951  -1.90539  -1.90375  -1.17073
 Alpha  occ. eigenvalues --   -1.15070  -1.08932  -1.07993  -1.07578  -1.07215
 Alpha  occ. eigenvalues --   -1.06677  -1.05563  -1.05003  -1.04147  -1.04121
 Alpha  occ. eigenvalues --   -1.03606  -1.03313  -1.02781  -1.02695  -1.01760
 Alpha  occ. eigenvalues --   -0.92377  -0.91477  -0.89843  -0.89759  -0.89150
 Alpha  occ. eigenvalues --   -0.88920  -0.88592  -0.88225  -0.88127  -0.87911
 Alpha  occ. eigenvalues --   -0.87677  -0.87451  -0.87313  -0.86830  -0.85603
 Alpha  occ. eigenvalues --   -0.84652  -0.84228  -0.83548  -0.83337  -0.83168
 Alpha  occ. eigenvalues --   -0.82665  -0.82323  -0.82101  -0.81113  -0.80840
 Alpha  occ. eigenvalues --   -0.79886  -0.79182  -0.78328  -0.77680  -0.77392
 Alpha  occ. eigenvalues --   -0.76863  -0.76528  -0.76334  -0.75563  -0.75184
 Alpha  occ. eigenvalues --   -0.74460  -0.73136  -0.72379  -0.72053  -0.71324
 Alpha  occ. eigenvalues --   -0.70172  -0.69602  -0.69480  -0.68876  -0.68087
 Alpha  occ. eigenvalues --   -0.67951  -0.67204  -0.66760  -0.65772  -0.65407
 Alpha  occ. eigenvalues --   -0.65109  -0.64684  -0.64560  -0.64393  -0.64123
 Alpha  occ. eigenvalues --   -0.63849  -0.62713  -0.61687  -0.60801  -0.60279
 Alpha  occ. eigenvalues --   -0.60032  -0.59481  -0.59373  -0.58965  -0.58693
 Alpha  occ. eigenvalues --   -0.58271  -0.57846  -0.57669  -0.57015  -0.56877
 Alpha  occ. eigenvalues --   -0.56603  -0.56421  -0.55921  -0.55877  -0.55621
 Alpha  occ. eigenvalues --   -0.55291  -0.55103  -0.54746  -0.54720  -0.54689
 Alpha  occ. eigenvalues --   -0.54064  -0.53844  -0.53717  -0.53646  -0.53233
 Alpha  occ. eigenvalues --   -0.53212  -0.52948  -0.52876  -0.52702  -0.52508
 Alpha  occ. eigenvalues --   -0.52416  -0.52181  -0.52103  -0.51793  -0.51525
 Alpha  occ. eigenvalues --   -0.51520  -0.51325  -0.50977  -0.50758  -0.50462
 Alpha  occ. eigenvalues --   -0.50275  -0.50237  -0.50106  -0.49856  -0.49631
 Alpha  occ. eigenvalues --   -0.49575  -0.49519  -0.49286  -0.49123  -0.48876
 Alpha  occ. eigenvalues --   -0.48753  -0.48671  -0.48631  -0.48147  -0.48090
 Alpha  occ. eigenvalues --   -0.47955  -0.47919  -0.47672  -0.47317  -0.47125
 Alpha  occ. eigenvalues --   -0.47095  -0.46929  -0.46705  -0.46523  -0.46397
 Alpha  occ. eigenvalues --   -0.46196  -0.46091  -0.45905  -0.45788  -0.45504
 Alpha  occ. eigenvalues --   -0.45452  -0.44987  -0.44947  -0.44888  -0.44602
 Alpha  occ. eigenvalues --   -0.44522  -0.44370  -0.44314  -0.44282  -0.44024
 Alpha  occ. eigenvalues --   -0.43876  -0.43818  -0.43645  -0.43580  -0.43390
 Alpha  occ. eigenvalues --   -0.43313  -0.43047  -0.42948  -0.42577  -0.42381
 Alpha  occ. eigenvalues --   -0.42269  -0.42140  -0.41994  -0.41892  -0.41732
 Alpha  occ. eigenvalues --   -0.41515  -0.41391  -0.41363  -0.41242  -0.41094
 Alpha  occ. eigenvalues --   -0.40886  -0.40863  -0.40629  -0.40356  -0.40299
 Alpha  occ. eigenvalues --   -0.40133  -0.39881  -0.39672  -0.39261  -0.39066
 Alpha  occ. eigenvalues --   -0.38795  -0.38078  -0.37885  -0.37662  -0.37480
 Alpha  occ. eigenvalues --   -0.37075  -0.37055  -0.36881  -0.36674  -0.36285
 Alpha  occ. eigenvalues --   -0.36006  -0.35153  -0.34650  -0.34364  -0.33886
 Alpha  occ. eigenvalues --   -0.33600  -0.32928  -0.32335  -0.31703  -0.31429
 Alpha  occ. eigenvalues --   -0.30974  -0.30552  -0.30333  -0.29799  -0.29679
 Alpha  occ. eigenvalues --   -0.29304  -0.28985  -0.28822  -0.24439  -0.23645
 Alpha  occ. eigenvalues --   -0.21530  -0.20790
 Alpha virt. eigenvalues --   -0.09170  -0.08430  -0.02123  -0.01353  -0.00474
 Alpha virt. eigenvalues --    0.00285   0.01861   0.02665   0.03428   0.03766
 Alpha virt. eigenvalues --    0.04265   0.04460   0.04989   0.05431   0.06180

 Mulliken charges:
               1
     1  Mg   0.725995
     2  C   -0.008020
     3  C   -0.088748
     4  C   -0.043812
     5  C   -0.062033
     6  N   -0.246192
     7  C   -0.060302
     8  C    0.042224
     9  C   -0.087417
    10  C    0.039058
    11  C    0.105329
    12  C   -0.040392
    13  C   -0.065145
    14  H    0.042917
    15  N   -0.429281
    16  C    0.157418
    17  C   -0.179672
    18  C   -0.007177
    19  C    0.151217
    20  C    0.110891
    21  C    0.011281
    22  O   -0.247861
    23  C    0.063371
    24  N   -0.331740
    25  C    0.041698
    26  C   -0.027176
    27  C   -0.024952
    28  C    0.078241
    29  C    0.075911
    30  C    0.034826
    31  C   -0.005618
    32  N   -0.308312
    33  C    0.081265
    34  C   -0.168586
    35  C    0.010298
    36  C    0.075667
    37  C    0.126331
    38  C    0.048651
    39  O   -0.184163
    40  C   -0.009500
    41  C    0.218959
    42  O   -0.244454
    43  O   -0.303424
    44  C    0.211646
    45  H   -0.018503
    46  H   -0.016789
    47  H   -0.040993
    48  H   -0.005240
    49  H   -0.005056
    50  H    0.026506
    51  H    0.018140
    52  H    0.017365
    53  H    0.015470
    54  H    0.118545
    55  H    0.018889
    56  H    0.018451
    57  H    0.005849
    58  H    0.028134
    59  H    0.036406
    60  H    0.038216
    61  H    0.036930
    62  H    0.027631
    63  H    0.017273
    64  H    0.010219
    65  H    0.023926
    66  H    0.012602
    67  H    0.005341
    68  H    0.007139
    69  H    0.005395
    70  H    0.009350
    71  H    0.019358
    72  H    0.030126
    73  H    0.051282
    74  H    0.010106
    75  H    0.046698
    76  H    0.035948
    77  H    0.037908
    78  H    0.044412
    79  H   -0.039787
    80  Mg   0.836377
    81  C   -0.017675
    82  C   -0.088163
    83  C   -0.045881
    84  C   -0.066853
    85  N   -0.253624
    86  C   -0.049626
    87  C   -0.023829
    88  C   -0.074959
    89  C    0.042501
    90  C    0.017092
    91  C    0.081169
    92  C   -0.055183
    93  H    0.024119
    94  N   -0.423205
    95  C    0.161941
    96  C   -0.174881
    97  C   -0.008619
    98  C    0.151829
    99  C    0.100182
   100  C    0.015188
   101  O   -0.254084
   102  C    0.061360
   103  N   -0.350445
   104  C    0.037062
   105  C   -0.019431
   106  C   -0.034856
   107  C    0.089867
   108  C    0.073925
   109  C    0.034951
   110  C   -0.007554
   111  N   -0.324308
   112  C    0.079551
   113  C   -0.164451
   114  C    0.003700
   115  C    0.094939
   116  C    0.131711
   117  C    0.040832
   118  O   -0.184716
   119  C    0.006625
   120  C    0.206484
   121  O   -0.263538
   122  O   -0.267511
   123  C    0.181494
   124  H   -0.020741
   125  H   -0.016547
   126  H   -0.041405
   127  H    0.019389
   128  H   -0.004155
   129  H    0.072389
   130  H    0.035274
   131  H    0.102446
   132  H    0.006169
   133  H    0.036231
   134  H   -0.038030
   135  H    0.007688
   136  H    0.005098
   137  H    0.024638
   138  H    0.038262
   139  H    0.037548
   140  H    0.035508
   141  H    0.033070
   142  H    0.013783
   143  H    0.011558
   144  H    0.024423
   145  H    0.011940
   146  H    0.004542
   147  H    0.005601
   148  H    0.003250
   149  H    0.010674
   150  H    0.017393
   151  H    0.030644
   152  H    0.046362
   153  H    0.007515
   154  H    0.046261
   155  H    0.045754
   156  H    0.059328
   157  H    0.039647
   158  H    0.042527
 Sum of Mulliken charges =  -0.00000

 Dipole moment (field-independent basis, Debye):
    X=              4.1016    Y=              6.1781    Z=             -3.1664  Tot=              8.0634
 Quadrupole moment (field-independent basis, Debye-Ang):
   XX=           -504.6038   YY=           -559.1293   ZZ=           -461.4716
   XY=             23.6998   XZ=            -37.6837   YZ=             -6.9734

 Normal termination of Gaussian 16 at Thu Sep  9 05:04:26 2021.
