 Gaussian 16, Revision A.03,
 Gaussian 16:  ES64L-G16RevA.03 25-Dec-2016

 -----------------------------------
 #p cam-b3lyp/Def2SVP td=(nstates=5)
 -----------------------------------

 --------------------------------
 TDDFT excited states in gaussian
 --------------------------------
 Symbolic Z-matrix:
 Charge =  0 Multiplicity = 1

                         Standard orientation:
 ---------------------------------------------------------------------
 Center     Atomic      Atomic             Coordinates (Angstroms)
 Number     Number       Type             X           Y           Z
 ---------------------------------------------------------------------
      1         12           0        6.292470   -1.029492    0.319691
      2          6           0        6.740698    2.095727   -1.366819
      3          6           0        7.132975    0.579098    3.209164
      4          6           0        6.346617   -3.858744    1.751130
      5          6           0        6.603602   -2.581285   -2.785272
      6          7           0        6.844252    1.072798    0.739884
      7          6           0        6.920543    2.184731    0.015346
      8          6           0        7.135082    3.467544    0.873097
      9          6           0        7.797236    2.801170    2.161311
     10          6           0        7.195672    1.411162    2.052112
     11          6           0        9.315861    2.687249    2.075855
     12          6           0        5.785806    4.179416    1.225835
     13          6           0        5.922008    5.602104    1.776073
     14          1           0        4.913427    6.589410    1.422041
     15          7           0        6.203435   -1.497164    2.237034
     16          6           0        6.571542   -0.714235    3.279534
     17          6           0        6.314775   -1.511210    4.498379
     18          6           0        5.946218   -2.889618    4.071471
     19          6           0        6.179163   -2.809747    2.652058
     20          6           0        6.380740   -0.942355    5.882505
     21          6           0        5.471097   -4.091633    4.824831
     22          8           0        5.430679   -5.254392    4.294801
     23          6           0        5.133528   -3.885771    6.244941
     24          7           0        6.670268   -2.963065   -0.370380
     25          6           0        6.571366   -4.018474    0.445289
     26          6           0        6.605468   -5.306784   -0.322195
     27          6           0        6.503961   -4.905433   -1.864391
     28          6           0        6.511861   -3.364707   -1.708284
     29          6           0        7.846364   -6.183371   -0.103599
     30          6           0        5.364622   -5.557584   -2.687207
     31          6           0        4.025449   -5.049336   -2.202030
     32          7           0        6.437670   -0.382917   -1.747168
     33          6           0        6.582738   -1.199670   -2.877895
     34          6           0        6.746704   -0.305324   -4.038639
     35          6           0        6.701935    0.977736   -3.496793
     36          6           0        6.547757    0.889999   -2.083703
     37          6           0        6.968170   -0.716375   -5.382672
     38          6           0        6.773189    2.402024   -3.779958
     39          8           0        6.805667    3.081397   -4.807037
     40          6           0        6.923424    3.180549   -2.398960
     41          6           0        5.936719    4.316175   -2.407727
     42          8           0        4.708391    4.096563   -2.389111
     43          8           0        6.586458    5.471253   -2.197546
     44          6           0        5.661318    6.635390   -2.165036
     45          1           0        7.607730    0.920462    4.131129
     46          1           0        6.260619   -4.854752    2.190459
     47          1           0        6.621103   -2.992414   -3.796271
     48          1           0        7.819070    4.196262    0.437719
     49          1           0        7.471095    3.283933    3.082339
     50          1           0        9.681262    2.965506    1.087434
     51          1           0        9.541479    1.641296    2.284596
     52          1           0        9.792700    3.261080    2.870915
     53          1           0        5.335602    3.689009    2.088898
     54          1           0        5.117643    4.188627    0.363977
     55          1           0        6.922696    6.000761    1.606938
     56          1           0        5.827348    5.559154    2.861151
     57          1           0        6.836762    0.046868    5.887632
     58          1           0        7.073610   -1.563803    6.449465
     59          1           0        5.406373   -0.938081    6.371300
     60          1           0        6.009990   -3.508380    6.772140
     61          1           0        4.728346   -4.833365    6.598130
     62          1           0        4.373229   -3.107589    6.317922
     63          1           0        5.758381   -5.939899   -0.061359
     64          1           0        7.409670   -5.162219   -2.414324
     65          1           0        7.615202   -7.190828    0.243244
     66          1           0        8.502814   -5.669278    0.597880
     67          1           0        8.494620   -6.283074   -0.973795
     68          1           0        5.367111   -6.638144   -2.548172
     69          1           0        5.439066   -5.360644   -3.756751
     70          1           0        3.815824   -5.692517   -1.348093
     71          1           0        3.268635   -5.171178   -2.977658
     72          1           0        4.098606   -4.027240   -1.829937
     73          1           0        6.329506   -0.087745   -6.003076
     74          1           0        6.735399   -1.772461   -5.517225
     75          1           0        8.032877   -0.507125   -5.484994
     76          1           0        7.953071    3.533233   -2.348339
     77          1           0        6.013763    7.346435   -2.912319
     78          1           0        5.620252    6.969701   -1.128236
     79          1           0        4.645250    6.453608   -2.517030
     80         12           0       -6.908731   -0.294476   -0.257679
     81          6           0       -4.320717    2.124339    0.317280
     82          6           0       -9.003440    1.751732    1.491561
     83          6           0       -9.084535   -2.601724   -0.357168
     84          6           0       -4.398020   -2.613813   -0.937908
     85          7           0       -6.586754    1.659593    0.727310
     86          6           0       -5.577475    2.511477    0.827307
     87          6           0       -5.954786    3.886511    1.440883
     88          6           0       -7.254056    3.432283    2.268200
     89          6           0       -7.668573    2.225376    1.429019
     90          6           0       -6.934503    2.949909    3.673388
     91          6           0       -6.314318    4.951248    0.345864
     92          6           0       -6.391579    6.393349    0.851954
     93          1           0       -5.946920    7.466375   -0.033131
     94          7           0       -8.872169   -0.221044    0.021740
     95          6           0       -9.558094    0.691447    0.741569
     96          6           0      -10.971664    0.293787    0.652955
     97          6           0      -11.046568   -1.020635   -0.040852
     98          6           0       -9.638337   -1.349159   -0.135932
     99          6           0      -12.094685    1.170025    1.126724
    100          6           0      -12.196039   -1.851251   -0.525630
    101          8           0      -12.039979   -3.070807   -0.887785
    102          6           0      -13.524940   -1.224349   -0.475572
    103          7           0       -6.764016   -2.364227   -0.390168
    104          6           0       -7.865949   -3.130611   -0.469560
    105          6           0       -7.515622   -4.553591   -0.833978
    106          6           0       -5.964225   -4.528356   -1.221392
    107          6           0       -5.650857   -3.047441   -0.914692
    108          6           0       -7.750286   -5.596994    0.258095
    109          6           0       -5.577895   -5.092092   -2.616255
    110          6           0       -6.124676   -4.196381   -3.704421
    111          7           0       -4.761464   -0.238873   -0.490521
    112          6           0       -3.902850   -1.330036   -0.747874
    113          6           0       -2.519097   -0.814345   -0.706634
    114          6           0       -2.668780    0.547226   -0.402985
    115          6           0       -4.047346    0.853889   -0.244819
    116          6           0       -1.337491   -1.587525   -0.885876
    117          6           0       -1.973446    1.792552   -0.169806
    118          8           0       -0.803251    2.163065   -0.253992
    119          6           0       -3.004538    2.842124    0.431571
    120          6           0       -2.843716    4.134627   -0.320825
    121          8           0       -3.130642    4.202580   -1.528988
    122          8           0       -2.587246    5.124546    0.553627
    123          6           0       -2.430621    6.428639   -0.143954
    124          1           0       -9.682054    2.206617    2.213672
    125          1           0       -9.799838   -3.413346   -0.509133
    126          1           0       -3.564418   -3.253199   -1.236199
    127          1           0       -5.213474    4.303202    2.112151
    128          1           0       -8.025721    4.197306    2.243064
    129          1           0       -5.870330    2.880610    3.843293
    130          1           0       -7.396040    1.975130    3.761850
    131          1           0       -7.430136    3.586197    4.412185
    132          1           0       -7.356401    4.805702    0.033417
    133          1           0       -5.631859    4.894098   -0.479733
    134          1           0       -5.943942    6.505552    1.846931
    135          1           0       -7.442537    6.653315    1.000024
    136          1           0      -11.725275    2.000532    1.740892
    137          1           0      -12.699163    0.570459    1.815916
    138          1           0      -12.730676    1.518096    0.310006
    139          1           0      -13.749294   -0.934769    0.548282
    140          1           0      -14.203130   -1.939107   -0.945725
    141          1           0      -13.498674   -0.301150   -1.065179
    142          1           0       -8.086883   -4.884761   -1.692514
    143          1           0       -5.360444   -5.128158   -0.524593
    144          1           0       -8.424640   -6.415278   -0.057715
    145          1           0       -8.145046   -5.094486    1.131137
    146          1           0       -6.849417   -6.066557    0.649421
    147          1           0       -6.031290   -6.074987   -2.766306
    148          1           0       -4.507968   -5.206458   -2.754688
    149          1           0       -7.157932   -4.540055   -3.810966
    150          1           0       -5.566405   -4.331756   -4.628559
    151          1           0       -6.157192   -3.151442   -3.374713
    152          1           0       -0.683670   -1.012617   -1.528130
    153          1           0       -1.561274   -2.561990   -1.314965
    154          1           0       -0.995343   -1.663778    0.149692
    155          1           0       -2.776369    2.954696    1.492159
    156          1           0       -1.454625    6.830478    0.145246
    157          1           0       -3.321844    7.023481    0.131063
    158          1           0       -2.340849    6.411792   -1.223826
 ---------------------------------------------------------------------

 SCF Done:  E(RCAM-B3LYP) =  -4069.81062812     A.U. after   19 cycles

 Excitation energies and oscillator strengths:

 Excited State   1:      Singlet-A      1.6730 eV  741.10 nm  f=0.3469  <S**2>=0.000
     309 -> 315        0.14732
     311 -> 313        0.58435
     312 -> 314       -0.35960
 This state for optimization and/or second-order correction.
 Total Energy, E(TD-HF/TD-DFT) =  -4069.74914754
 Copying the excited state density for this state as the 1-particle RhoCI density.

 Excited State   2:      Singlet-A      1.6821 eV  737.06 nm  f=0.4406  <S**2>=0.000
     310 -> 316        0.14923
     311 -> 313        0.35944
     312 -> 314        0.58383

 Excited State   3:      Singlet-A      2.1844 eV  567.60 nm  f=0.0088  <S**2>=0.000
     309 -> 313        0.53637
     310 -> 314       -0.35530
     311 -> 315       -0.22684
     312 -> 316        0.14978

 Excited State   4:      Singlet-A      2.1919 eV  565.65 nm  f=0.1767  <S**2>=0.000
     309 -> 313        0.35332
     310 -> 314        0.53386
     311 -> 315       -0.15312
     312 -> 316       -0.23229

 Excited State   5:      Singlet-A      2.6045 eV  476.03 nm  f=0.0000  <S**2>=0.000
     312 -> 313        0.70639

 The electronic state is 1-A.
 Alpha  occ. eigenvalues --  -46.87536 -46.87459 -19.26172 -19.25850 -19.18957
 Alpha  occ. eigenvalues --  -19.18603 -19.18564 -19.18521 -19.17830 -19.17825
 Alpha  occ. eigenvalues --  -14.42381 -14.42116 -14.41237 -14.41142 -14.39227
 Alpha  occ. eigenvalues --  -14.39079 -14.38465 -14.38246 -10.38899 -10.38600
 Alpha  occ. eigenvalues --  -10.35283 -10.35202 -10.34038 -10.34013 -10.31594
 Alpha  occ. eigenvalues --  -10.31286 -10.31181 -10.31065 -10.30911 -10.30572
 Alpha  occ. eigenvalues --  -10.30263 -10.30237 -10.30222 -10.30192 -10.30033
 Alpha  occ. eigenvalues --  -10.29931 -10.29764 -10.29622 -10.29320 -10.29319
 Alpha  occ. eigenvalues --  -10.29266 -10.28953 -10.28621 -10.28570 -10.28385
 Alpha  occ. eigenvalues --  -10.28273 -10.28161 -10.28047 -10.28031 -10.27858
 Alpha  occ. eigenvalues --  -10.27784 -10.27552 -10.27478 -10.27413 -10.27410
 Alpha  occ. eigenvalues --  -10.27365 -10.27357 -10.27336 -10.27281 -10.27279
 Alpha  occ. eigenvalues --  -10.27270 -10.27226 -10.27217 -10.27067 -10.26887
 Alpha  occ. eigenvalues --  -10.26786 -10.26590 -10.26324 -10.26253 -10.26201
 Alpha  occ. eigenvalues --  -10.26038 -10.26010 -10.25958 -10.25946 -10.25812
 Alpha  occ. eigenvalues --  -10.25724 -10.25671 -10.25554 -10.25304 -10.25237
 Alpha  occ. eigenvalues --  -10.24725 -10.24626 -10.24565 -10.24536 -10.24507
 Alpha  occ. eigenvalues --  -10.24486  -3.16286  -3.16200  -1.91169  -1.91081
 Alpha  occ. eigenvalues --   -1.90757  -1.90669  -1.90594  -1.90511  -1.16459
 Alpha  occ. eigenvalues --   -1.16190  -1.08433  -1.08272  -1.06971  -1.06858
 Alpha  occ. eigenvalues --   -1.06743  -1.06158  -1.04375  -1.04246  -1.03540
 Alpha  occ. eigenvalues --   -1.03449  -1.02914  -1.02913  -1.02092  -1.01983
 Alpha  occ. eigenvalues --   -0.91846  -0.91631  -0.89374  -0.89257  -0.89051
 Alpha  occ. eigenvalues --   -0.88840  -0.88107  -0.88029  -0.87644  -0.87565
 Alpha  occ. eigenvalues --   -0.87557  -0.87349  -0.87004  -0.86991  -0.84891
 Alpha  occ. eigenvalues --   -0.84645  -0.83761  -0.83692  -0.82824  -0.82720
 Alpha  occ. eigenvalues --   -0.82541  -0.82329  -0.81450  -0.81235  -0.80310
 Alpha  occ. eigenvalues --   -0.80269  -0.78509  -0.78502  -0.77032  -0.76929
 Alpha  occ. eigenvalues --   -0.76780  -0.76608  -0.75716  -0.75594  -0.74687
 Alpha  occ. eigenvalues --   -0.74633  -0.72569  -0.72469  -0.71463  -0.71368
 Alpha  occ. eigenvalues --   -0.69685  -0.69649  -0.68714  -0.68551  -0.67470
 Alpha  occ. eigenvalues --   -0.67331  -0.67091  -0.66873  -0.65154  -0.64940
 Alpha  occ. eigenvalues --   -0.64644  -0.64532  -0.64526  -0.64301  -0.64084
 Alpha  occ. eigenvalues --   -0.63995  -0.62128  -0.61935  -0.60221  -0.60162
 Alpha  occ. eigenvalues --   -0.59685  -0.59467  -0.58863  -0.58675  -0.58290
 Alpha  occ. eigenvalues --   -0.58187  -0.57387  -0.57223  -0.57107  -0.57000
 Alpha  occ. eigenvalues --   -0.56071  -0.56004  -0.55742  -0.55602  -0.55323
 Alpha  occ. eigenvalues --   -0.55229  -0.55116  -0.55052  -0.54350  -0.54197
 Alpha  occ. eigenvalues --   -0.53807  -0.53544  -0.53103  -0.53017  -0.53011
 Alpha  occ. eigenvalues --   -0.52902  -0.52766  -0.52578  -0.52564  -0.52466
 Alpha  occ. eigenvalues --   -0.52286  -0.52202  -0.51720  -0.51604  -0.51546
 Alpha  occ. eigenvalues --   -0.51277  -0.51052  -0.50880  -0.50372  -0.50321
 Alpha  occ. eigenvalues --   -0.49873  -0.49795  -0.49755  -0.49632  -0.49374
 Alpha  occ. eigenvalues --   -0.49199  -0.49073  -0.48968  -0.48892  -0.48773
 Alpha  occ. eigenvalues --   -0.48418  -0.48270  -0.48251  -0.48197  -0.48190
 Alpha  occ. eigenvalues --   -0.48143  -0.47473  -0.47396  -0.47004  -0.47000
 Alpha  occ. eigenvalues --   -0.46589  -0.46502  -0.46446  -0.46210  -0.46143
 Alpha  occ. eigenvalues --   -0.46060  -0.45950  -0.45845  -0.45670  -0.45487
 Alpha  occ. eigenvalues --   -0.45094  -0.44945  -0.44391  -0.44344  -0.44249
 Alpha  occ. eigenvalues --   -0.44232  -0.44004  -0.43956  -0.43875  -0.43803
 Alpha  occ. eigenvalues --   -0.43772  -0.43697  -0.43414  -0.43260  -0.43156
 Alpha  occ. eigenvalues --   -0.43078  -0.42791  -0.42741  -0.42717  -0.42441
 Alpha  occ. eigenvalues --   -0.42440  -0.42274  -0.41849  -0.41725  -0.41515
 Alpha  occ. eigenvalues --   -0.41385  -0.41350  -0.41205  -0.40870  -0.40836
 Alpha  occ. eigenvalues --   -0.40617  -0.40595  -0.40574  -0.40551  -0.40379
 Alpha  occ. eigenvalues --   -0.40296  -0.40129  -0.39851  -0.39318  -0.39228
 Alpha  occ. eigenvalues --   -0.38244  -0.38205  -0.37547  -0.37391  -0.37151
 Alpha  occ. eigenvalues --   -0.37081  -0.37041  -0.36909  -0.36603  -0.36334
 Alpha  occ. eigenvalues --   -0.36083  -0.35828  -0.34123  -0.33960  -0.33672
 Alpha  occ. eigenvalues --   -0.33303  -0.33045  -0.32849  -0.31163  -0.31094
 Alpha  occ. eigenvalues --   -0.30849  -0.30713  -0.29733  -0.29679  -0.29198
 Alpha  occ. eigenvalues --   -0.29142  -0.29060  -0.28993  -0.23911  -0.23752
 Alpha  occ. eigenvalues --   -0.20991  -0.20813
 Alpha virt. eigenvalues --   -0.08660  -0.08460  -0.01564  -0.01442   0.00095
 Alpha virt. eigenvalues --    0.00242   0.02372   0.02524   0.03356   0.03582
 Alpha virt. eigenvalues --    0.04839   0.05048   0.05359   0.05552   0.06281

 Mulliken charges:
               1
     1  Mg   0.841835
     2  C   -0.000570
     3  C   -0.093791
     4  C   -0.046558
     5  C   -0.064697
     6  N   -0.256642
     7  C   -0.051241
     8  C   -0.014736
     9  C   -0.087200
    10  C    0.047078
    11  C    0.105043
    12  C    0.053486
    13  C   -0.071076
    14  H    0.035673
    15  N   -0.432846
    16  C    0.168858
    17  C   -0.177331
    18  C   -0.004478
    19  C    0.148739
    20  C    0.110417
    21  C    0.011820
    22  O   -0.250715
    23  C    0.062609
    24  N   -0.341172
    25  C    0.041069
    26  C   -0.027904
    27  C   -0.023909
    28  C    0.075019
    29  C    0.076426
    30  C    0.035392
    31  C   -0.004563
    32  N   -0.310770
    33  C    0.081209
    34  C   -0.169528
    35  C    0.008427
    36  C    0.084739
    37  C    0.127132
    38  C    0.047445
    39  O   -0.188396
    40  C   -0.006025
    41  C    0.211577
    42  O   -0.251970
    43  O   -0.305822
    44  C    0.157871
    45  H   -0.018359
    46  H   -0.017869
    47  H   -0.042228
    48  H    0.000264
    49  H   -0.004347
    50  H    0.025139
    51  H    0.015954
    52  H    0.015836
    53  H    0.012558
    54  H    0.048168
    55  H    0.016498
    56  H    0.017055
    57  H    0.005650
    58  H    0.025924
    59  H    0.039153
    60  H    0.037059
    61  H    0.034624
    62  H    0.031505
    63  H    0.015628
    64  H    0.009043
    65  H    0.022411
    66  H    0.012536
    67  H    0.004271
    68  H    0.005462
    69  H    0.004609
    70  H    0.007789
    71  H    0.016659
    72  H    0.030610
    73  H    0.048155
    74  H    0.008491
    75  H    0.045394
    76  H    0.034194
    77  H    0.041574
    78  H    0.045510
    79  H    0.055110
    80  Mg   0.837707
    81  C   -0.016659
    82  C   -0.087907
    83  C   -0.045608
    84  C   -0.065038
    85  N   -0.254413
    86  C   -0.050020
    87  C   -0.014907
    88  C   -0.090447
    89  C    0.045516
    90  C    0.114550
    91  C    0.062587
    92  C   -0.077655
    93  H    0.034951
    94  N   -0.423392
    95  C    0.162664
    96  C   -0.174936
    97  C   -0.008049
    98  C    0.151943
    99  C    0.099504
   100  C    0.015399
   101  O   -0.253498
   102  C    0.061269
   103  N   -0.350108
   104  C    0.037311
   105  C   -0.019714
   106  C   -0.034886
   107  C    0.089101
   108  C    0.073753
   109  C    0.034797
   110  C   -0.007628
   111  N   -0.324322
   112  C    0.078670
   113  C   -0.162621
   114  C    0.003059
   115  C    0.096367
   116  C    0.130804
   117  C    0.042440
   118  O   -0.183584
   119  C    0.000351
   120  C    0.212679
   121  O   -0.250085
   122  O   -0.306375
   123  C    0.152138
   124  H   -0.020145
   125  H   -0.015865
   126  H   -0.040330
   127  H   -0.001084
   128  H   -0.004577
   129  H    0.021960
   130  H    0.014332
   131  H    0.015739
   132  H    0.013911
   133  H    0.038209
   134  H    0.020233
   135  H    0.019314
   136  H    0.008447
   137  H    0.025721
   138  H    0.039526
   139  H    0.038043
   140  H    0.036108
   141  H    0.033845
   142  H    0.014244
   143  H    0.012404
   144  H    0.024877
   145  H    0.011467
   146  H    0.005561
   147  H    0.005974
   148  H    0.003595
   149  H    0.010774
   150  H    0.017910
   151  H    0.030416
   152  H    0.048626
   153  H    0.008247
   154  H    0.046285
   155  H    0.033919
   156  H    0.043280
   157  H    0.048476
   158  H    0.054896
 Sum of Mulliken charges =  -0.00000

 Dipole moment (field-independent basis, Debye):
    X=             -1.3455    Y=              1.7410    Z=              6.7062  Tot=              7.0579
 Quadrupole moment (field-independent basis, Debye-Ang):
   XX=           -467.7589   YY=           -482.1743   ZZ=           -506.7695
   XY=            -30.5612   XZ=              5.3047   YZ=             47.8990

 Normal termination of Gaussian 16 at Sat Sep 11 11:35:14 2021.
