 Gaussian 16, Revision A.03,
 Gaussian 16:  ES64L-G16RevA.03 25-Dec-2016

 -----------------------------------
 #p cam-b3lyp/Def2SVP td=(nstates=5)
 -----------------------------------

 --------------------------------
 TDDFT excited states in gaussian
 --------------------------------
 Symbolic Z-matrix:
 Charge =  0 Multiplicity = 1

                         Standard orientation:
 ---------------------------------------------------------------------
 Center     Atomic      Atomic             Coordinates (Angstroms)
 Number     Number       Type             X           Y           Z
 ---------------------------------------------------------------------
      1         12           0       -3.545283    0.954833    0.111136
      2          6           0       -4.099791   -2.129144    1.841402
      3          6           0       -4.107771    2.547315    3.076043
      4          6           0       -3.509778    3.697758   -1.480002
      5          6           0       -4.148088   -0.771862   -2.855480
      6          7           0       -4.030903    0.195812    2.133191
      7          6           0       -4.156280   -1.010997    2.676388
      8          6           0       -4.278069   -0.979909    4.229313
      9          6           0       -4.832935    0.503993    4.408640
     10          6           0       -4.261229    1.130939    3.149270
     11          6           0       -6.354532    0.596018    4.355960
     12          6           0       -2.893964   -1.163544    4.938018
     13          6           0       -2.962958   -1.470892    6.436728
     14          1           0       -1.976786   -2.372525    7.012811
     15          7           0       -3.294070    2.805839    0.754190
     16          6           0       -3.559010    3.274216    1.997458
     17          6           0       -3.206366    4.710131    1.975768
     18          6           0       -2.894524    5.080863    0.567434
     19          6           0       -3.250295    3.866998   -0.122014
     20          6           0       -3.143081    5.560549    3.207245
     21          6           0       -2.370520    6.334297   -0.059028
     22          8           0       -2.391811    6.523115   -1.323333
     23          6           0       -1.906802    7.385890    0.864097
     24          7           0       -4.007120    1.458339   -1.861381
     25          6           0       -3.850483    2.708938   -2.309099
     26          6           0       -3.968488    2.772841   -3.803064
     27          6           0       -3.997787    1.258720   -4.309357
     28          6           0       -3.972114    0.549152   -2.933085
     29          6           0       -5.196537    3.516418   -4.346204
     30          6           0       -2.943673    0.851101   -5.369125
     31          6           0       -1.560607    0.889867   -4.758613
     32          7           0       -3.863279   -1.114934   -0.459817
     33          6           0       -4.117678   -1.604346   -1.749170
     34          6           0       -4.371527   -3.051030   -1.619811
     35          6           0       -4.262799   -3.301286   -0.253284
     36          6           0       -3.986141   -2.083160    0.430764
     37          6           0       -4.715553   -3.934871   -2.680426
     38          6           0       -4.340342   -4.310091    0.790821
     39          8           0       -4.454239   -5.536600    0.804832
     40          6           0       -4.358571   -3.571048    2.201250
     41          6           0       -3.361931   -4.263689    3.090219
     42          8           0       -2.139648   -4.210243    2.844180
     43          8           0       -3.975766   -4.674897    4.210333
     44          6           0       -3.036453   -5.344502    5.149201
     45          1           0       -4.495212    3.162991    3.890152
     46          1           0       -3.398311    4.602406   -2.081355
     47          1           0       -4.259681   -1.391036   -3.747458
     48          1           0       -4.988250   -1.695564    4.643926
     49          1           0       -4.420910    0.988341    5.293719
     50          1           0       -6.801797   -0.357173    4.074354
     51          1           0       -6.574363    1.356050    3.605948
     52          1           0       -6.752214    0.978994    5.296149
     53          1           0       -2.375980   -0.205002    4.968856
     54          1           0       -2.304086   -1.933151    4.438944
     55          1           0       -3.969428   -1.762941    6.737783
     56          1           0       -2.773840   -0.547263    6.983850
     57          1           0       -3.584124    5.055593    4.065758
     58          1           0       -3.791365    6.419430    3.034733
     59          1           0       -2.129543    5.901598    3.418809
     60          1           0       -2.728600    7.678900    1.517811
     61          1           0       -1.484364    8.170877    0.237846
     62          1           0       -1.133084    6.971638    1.511172
     63          1           0       -3.109966    3.279647   -4.241827
     64          1           0       -4.951560    0.999769   -4.769722
     65          1           0       -4.948759    4.340365   -5.015847
     66          1           0       -5.782114    3.865781   -3.496300
     67          1           0       -5.920007    2.887047   -4.863794
     68          1           0       -2.947829    1.556899   -6.199052
     69          1           0       -3.109307   -0.144904   -5.779964
     70          1           0       -1.285018    1.940170   -4.846626
     71          1           0       -0.876535    0.257880   -5.325931
     72          1           0       -1.587619    0.648021   -3.695943
     73          1           0       -4.125864   -4.838704   -2.527707
     74          1           0       -4.509114   -3.486679   -3.652079
     75          1           0       -5.782352   -4.063507   -2.498087
     76          1           0       -5.375160   -3.652494    2.584701
     77          1           0       -3.444047   -6.333201    5.360330
     78          1           0       -2.900108   -4.663439    5.989420
     79          1           0       -2.057683   -5.607159    4.746263
     80         12           0        4.308461   -0.094636   -0.169591
     81          6           0        1.699302   -1.799173   -1.948877
     82          6           0        2.809227    2.832268   -1.075167
     83          6           0        6.826288    1.441619    0.999974
     84          6           0        6.179460   -3.027142   -0.383028
     85          7           0        2.492806    0.331789   -1.358627
     86          6           0        1.547067   -0.397042   -1.931979
     87          6           0        0.331986    0.418303   -2.449994
     88          6           0        1.056953    1.839322   -2.634439
     89          6           0        2.171434    1.680936   -1.602197
     90          6           0        1.694592    2.016571   -4.002397
     91          6           0       -0.827714    0.497616   -1.396038
     92          6           0       -2.160984    1.010974   -1.944295
     93          1           0       -3.397073    0.446093   -1.409999
     94          7           0        4.517556    1.803318    0.371322
     95          6           0        3.809832    2.860489   -0.079016
     96          6           0        4.360809    4.036976    0.611265
     97          6           0        5.560243    3.609764    1.381685
     98          6           0        5.696356    2.242589    0.920849
     99          6           0        3.706702    5.387357    0.565989
    100          6           0        6.446641    4.318832    2.360325
    101          8           0        7.572567    3.828313    2.727107
    102          6           0        6.001319    5.647532    2.804969
    103          7           0        6.303758   -0.630186    0.063545
    104          6           0        7.179889    0.205091    0.648887
    105          6           0        8.481394   -0.496747    0.955336
    106          6           0        8.210342   -2.047279    0.672540
    107          6           0        6.762211   -1.958544    0.142979
    108          6           0        9.692582   -0.035992    0.144711
    109          6           0        8.514747   -3.037472    1.829920
    110          6           0        7.544967   -2.814896    2.968056
    111          7           0        3.956875   -2.118725   -0.838545
    112          6           0        4.885732   -3.182048   -0.864332
    113          6           0        4.215659   -4.329927   -1.509158
    114          6           0        2.941056   -3.843809   -1.837131
    115          6           0        2.831895   -2.482566   -1.443947
    116          6           0        4.803983   -5.600752   -1.764118
    117          6           0        1.666772   -4.169519   -2.436134
    118          8           0        1.147306   -5.197911   -2.867753
    119          6           0        0.849656   -2.822946   -2.649326
    120          6           0       -0.547931   -3.041812   -2.138083
    121          8           0       -0.754194   -3.242315   -0.928176
    122          8           0       -1.424878   -2.763663   -3.119899
    123          6           0       -2.825406   -2.955358   -2.657727
    124          1           0        2.550238    3.805703   -1.492582
    125          1           0        7.688926    1.891049    1.497310
    126          1           0        6.661879   -4.006782   -0.398865
    127          1           0       -0.070984    0.080743   -3.397328
    128          1           0        0.396800    2.658081   -2.360219
    129          1           0        1.656715    1.108314   -4.585305
    130          1           0        2.721087    2.302462   -3.813671
    131          1           0        1.237473    2.861895   -4.524706
    132          1           0       -0.602196    1.293609   -0.674726
    133          1           0       -0.974687   -0.451885   -0.919088
    134          1           0       -2.182149    1.013566   -3.040880
    135          1           0       -2.265940    2.063920   -1.671719
    136          1           0        2.934788    5.434518   -0.212035
    137          1           0        4.469191    6.101076    0.235727
    138          1           0        3.324826    5.703245    1.539155
    139          1           0        5.892579    6.299601    1.941586
    140          1           0        6.718289    5.955693    3.568440
    141          1           0        5.006380    5.550996    3.253745
    142          1           0        8.752456   -0.371563    1.996472
    143          1           0        8.825978   -2.423750   -0.157571
    144          1           0       10.533047    0.311288    0.774862
    145          1           0        9.373856    0.747669   -0.529696
    146          1           0       10.099738   -0.778315   -0.539671
    147          1           0        9.513707   -2.853442    2.232875
    148          1           0        8.475813   -4.079001    1.528761
    149          1           0        7.993722   -1.980291    3.514994
    150          1           0        7.475784   -3.703854    3.591771
    151          1           0        6.570660   -2.478599    2.594867
    152          1           0        4.066442   -6.344990   -1.494613
    153          1           0        5.726161   -5.731951   -1.201848
    154          1           0        4.986662   -5.519001   -2.838929
    155          1           0        0.864530   -2.596113   -3.716048
    156          1           0       -3.297823   -3.656936   -3.352210
    157          1           0       -3.260395   -1.940267   -2.593534
    158          1           0       -2.976040   -3.461040   -1.711138
 ---------------------------------------------------------------------

 SCF Done:  E(RCAM-B3LYP) =  -4069.12843450     A.U. after   22 cycles

 Excitation energies and oscillator strengths:

 Excited State   1:      Singlet-A      0.8507 eV 1457.52 nm  f=0.0789  <S**2>=0.000
     310 -> 313        0.14789
     312 -> 313        0.67467
     312 -> 314       -0.11402
 This state for optimization and/or second-order correction.
 Total Energy, E(TD-HF/TD-DFT) =  -4069.09717363
 Copying the excited state density for this state as the 1-particle RhoCI density.

 Excited State   2:      Singlet-A      1.5656 eV  791.91 nm  f=0.0220  <S**2>=0.000
     310 -> 313        0.48521
     310 -> 314       -0.10182
     311 -> 313        0.17433
     311 -> 314        0.18962
     312 -> 313       -0.10872
     312 -> 315       -0.38300

 Excited State   3:      Singlet-A      1.5975 eV  776.11 nm  f=0.0697  <S**2>=0.000
     311 -> 314        0.22228
     312 -> 313        0.13747
     312 -> 314        0.64127

 Excited State   4:      Singlet-A      1.6831 eV  736.63 nm  f=0.3204  <S**2>=0.000
     309 -> 316        0.14737
     310 -> 313       -0.12966
     311 -> 314        0.60009
     312 -> 314       -0.26065
     312 -> 315        0.13472

 Excited State   5:      Singlet-A      2.1378 eV  579.97 nm  f=0.1235  <S**2>=0.000
     310 -> 313        0.22006
     311 -> 313        0.44466
     311 -> 314       -0.11414
     312 -> 315        0.44782
     312 -> 317        0.11414

 The electronic state is 1-A.
 Alpha  occ. eigenvalues --  -46.89699 -46.87106 -19.25974 -19.25315 -19.18928
 Alpha  occ. eigenvalues --  -19.18608 -19.18521 -19.18298 -19.18267 -19.17622
 Alpha  occ. eigenvalues --  -14.43351 -14.42014 -14.41872 -14.41822 -14.40848
 Alpha  occ. eigenvalues --  -14.38850 -14.38821 -14.38069 -10.38744 -10.38538
 Alpha  occ. eigenvalues --  -10.34984 -10.34929 -10.34928 -10.34267 -10.33780
 Alpha  occ. eigenvalues --  -10.33630 -10.32042 -10.31367 -10.30698 -10.30570
 Alpha  occ. eigenvalues --  -10.30492 -10.30341 -10.30251 -10.30087 -10.29870
 Alpha  occ. eigenvalues --  -10.29791 -10.29686 -10.29671 -10.29571 -10.29466
 Alpha  occ. eigenvalues --  -10.29392 -10.28968 -10.28867 -10.28863 -10.28839
 Alpha  occ. eigenvalues --  -10.28807 -10.28374 -10.28172 -10.28135 -10.27897
 Alpha  occ. eigenvalues --  -10.27868 -10.27617 -10.27555 -10.27538 -10.27471
 Alpha  occ. eigenvalues --  -10.27463 -10.27254 -10.27191 -10.27134 -10.27074
 Alpha  occ. eigenvalues --  -10.26994 -10.26985 -10.26953 -10.26935 -10.26913
 Alpha  occ. eigenvalues --  -10.26906 -10.26706 -10.26588 -10.26272 -10.26162
 Alpha  occ. eigenvalues --  -10.26119 -10.26091 -10.25936 -10.25820 -10.25799
 Alpha  occ. eigenvalues --  -10.25547 -10.25457 -10.25448 -10.25402 -10.25059
 Alpha  occ. eigenvalues --  -10.25016 -10.24398 -10.24393 -10.24266 -10.24182
 Alpha  occ. eigenvalues --  -10.23580  -3.18712  -3.15857  -1.93418  -1.93404
 Alpha  occ. eigenvalues --   -1.92998  -1.90739  -1.90326  -1.90165  -1.16316
 Alpha  occ. eigenvalues --   -1.16080  -1.10380  -1.09097  -1.08271  -1.07800
 Alpha  occ. eigenvalues --   -1.06724  -1.06558  -1.06438  -1.06255  -1.03878
 Alpha  occ. eigenvalues --   -1.03852  -1.03100  -1.02702  -1.02535  -1.01595
 Alpha  occ. eigenvalues --   -0.98905  -0.94405  -0.91917  -0.91454  -0.90991
 Alpha  occ. eigenvalues --   -0.89389  -0.89031  -0.88809  -0.88497  -0.87813
 Alpha  occ. eigenvalues --   -0.87498  -0.87277  -0.86716  -0.86653  -0.86610
 Alpha  occ. eigenvalues --   -0.85458  -0.84534  -0.83820  -0.83430  -0.83282
 Alpha  occ. eigenvalues --   -0.82509  -0.82369  -0.82230  -0.81560  -0.81208
 Alpha  occ. eigenvalues --   -0.80665  -0.79728  -0.78868  -0.78155  -0.77928
 Alpha  occ. eigenvalues --   -0.77224  -0.76917  -0.76401  -0.76185  -0.75438
 Alpha  occ. eigenvalues --   -0.75032  -0.74535  -0.73890  -0.73080  -0.72277
 Alpha  occ. eigenvalues --   -0.71293  -0.70433  -0.69776  -0.69424  -0.69336
 Alpha  occ. eigenvalues --   -0.68123  -0.67722  -0.67424  -0.67069  -0.66193
 Alpha  occ. eigenvalues --   -0.66015  -0.65603  -0.64895  -0.64560  -0.64261
 Alpha  occ. eigenvalues --   -0.63790  -0.63311  -0.62870  -0.62420  -0.62152
 Alpha  occ. eigenvalues --   -0.61247  -0.59957  -0.59869  -0.59570  -0.59491
 Alpha  occ. eigenvalues --   -0.58621  -0.58517  -0.58436  -0.57885  -0.57600
 Alpha  occ. eigenvalues --   -0.57376  -0.57006  -0.56888  -0.56678  -0.56540
 Alpha  occ. eigenvalues --   -0.55898  -0.55720  -0.55429  -0.55238  -0.54923
 Alpha  occ. eigenvalues --   -0.54740  -0.54428  -0.53925  -0.53796  -0.53424
 Alpha  occ. eigenvalues --   -0.53304  -0.53057  -0.52901  -0.52761  -0.52664
 Alpha  occ. eigenvalues --   -0.52429  -0.52352  -0.52056  -0.52014  -0.51866
 Alpha  occ. eigenvalues --   -0.51732  -0.51432  -0.51353  -0.51087  -0.50737
 Alpha  occ. eigenvalues --   -0.50308  -0.50051  -0.50006  -0.49694  -0.49637
 Alpha  occ. eigenvalues --   -0.49485  -0.49443  -0.49323  -0.49137  -0.49026
 Alpha  occ. eigenvalues --   -0.48938  -0.48764  -0.48695  -0.48616  -0.48446
 Alpha  occ. eigenvalues --   -0.48290  -0.47967  -0.47923  -0.47584  -0.47378
 Alpha  occ. eigenvalues --   -0.47297  -0.47043  -0.46931  -0.46728  -0.46438
 Alpha  occ. eigenvalues --   -0.46371  -0.46221  -0.46117  -0.45997  -0.45756
 Alpha  occ. eigenvalues --   -0.45529  -0.45215  -0.44932  -0.44635  -0.44601
 Alpha  occ. eigenvalues --   -0.44456  -0.44338  -0.44289  -0.44073  -0.43856
 Alpha  occ. eigenvalues --   -0.43833  -0.43744  -0.43611  -0.43466  -0.43393
 Alpha  occ. eigenvalues --   -0.43283  -0.43183  -0.42765  -0.42632  -0.42599
 Alpha  occ. eigenvalues --   -0.42426  -0.42342  -0.42151  -0.42036  -0.41747
 Alpha  occ. eigenvalues --   -0.41670  -0.41360  -0.41234  -0.41094  -0.40800
 Alpha  occ. eigenvalues --   -0.40614  -0.40460  -0.40325  -0.40240  -0.40122
 Alpha  occ. eigenvalues --   -0.40108  -0.39987  -0.39807  -0.39077  -0.38876
 Alpha  occ. eigenvalues --   -0.38472  -0.38195  -0.37693  -0.37228  -0.36914
 Alpha  occ. eigenvalues --   -0.36778  -0.36663  -0.36224  -0.36186  -0.35664
 Alpha  occ. eigenvalues --   -0.35518  -0.34739  -0.33771  -0.33509  -0.33318
 Alpha  occ. eigenvalues --   -0.32638  -0.31306  -0.31112  -0.30867  -0.30831
 Alpha  occ. eigenvalues --   -0.30435  -0.30253  -0.29508  -0.28897  -0.28857
 Alpha  occ. eigenvalues --   -0.28832  -0.28716  -0.26818  -0.23505  -0.22176
 Alpha  occ. eigenvalues --   -0.20536  -0.18335
 Alpha virt. eigenvalues --   -0.08487  -0.08279  -0.02620  -0.01166  -0.00296
 Alpha virt. eigenvalues --    0.00269   0.00535   0.02683   0.03691   0.03989
 Alpha virt. eigenvalues --    0.05137   0.05397   0.05518   0.05536   0.06261

 Mulliken charges:
               1
     1  Mg   0.558939
     2  C    0.001446
     3  C   -0.102172
     4  C   -0.056532
     5  C   -0.025626
     6  N   -0.244528
     7  C   -0.058347
     8  C   -0.014125
     9  C   -0.083236
    10  C    0.041048
    11  C    0.105899
    12  C    0.052983
    13  C   -0.071237
    14  H    0.035576
    15  N   -0.432656
    16  C    0.165779
    17  C   -0.181043
    18  C   -0.013522
    19  C    0.146042
    20  C    0.111774
    21  C    0.005363
    22  O   -0.259340
    23  C    0.063897
    24  N   -0.288300
    25  C   -0.015888
    26  C    0.024397
    27  C   -0.022066
    28  C   -0.029365
    29  C    0.093511
    30  C    0.080751
    31  C   -0.002059
    32  N   -0.277826
    33  C    0.141496
    34  C   -0.285122
    35  C   -0.015078
    36  C    0.080090
    37  C    0.337293
    38  C    0.040613
    39  O   -0.180987
    40  C   -0.010446
    41  C    0.210336
    42  O   -0.243976
    43  O   -0.306740
    44  C    0.157768
    45  H   -0.022641
    46  H   -0.020686
    47  H   -0.038989
    48  H   -0.001160
    49  H   -0.005475
    50  H    0.021993
    51  H    0.015109
    52  H    0.014814
    53  H    0.012645
    54  H    0.046404
    55  H    0.016639
    56  H    0.017570
    57  H    0.004515
    58  H    0.023248
    59  H    0.035498
    60  H    0.037310
    61  H    0.031125
    62  H    0.028411
    63  H    0.011765
    64  H    0.014948
    65  H    0.023782
    66  H    0.018491
    67  H    0.002665
    68  H    0.005048
    69  H    0.010406
    70  H    0.005379
    71  H    0.023184
    72  H    0.117906
    73  H    0.039339
    74  H    0.010325
    75  H    0.026121
    76  H    0.035422
    77  H    0.041862
    78  H    0.046274
    79  H    0.055838
    80  Mg   0.837338
    81  C   -0.020450
    82  C   -0.087581
    83  C   -0.046537
    84  C   -0.066470
    85  N   -0.256348
    86  C   -0.027550
    87  C   -0.039883
    88  C   -0.093699
    89  C    0.049321
    90  C    0.117953
    91  C    0.179493
    92  C   -0.199584
    93  H    0.279459
    94  N   -0.423100
    95  C    0.161975
    96  C   -0.175174
    97  C   -0.009107
    98  C    0.151907
    99  C    0.098643
   100  C    0.014571
   101  O   -0.254655
   102  C    0.061851
   103  N   -0.350257
   104  C    0.037060
   105  C   -0.019378
   106  C   -0.034653
   107  C    0.089223
   108  C    0.074163
   109  C    0.035052
   110  C   -0.007505
   111  N   -0.324044
   112  C    0.079307
   113  C   -0.163022
   114  C    0.002765
   115  C    0.096568
   116  C    0.131144
   117  C    0.045057
   118  O   -0.189664
   119  C    0.006771
   120  C    0.228238
   121  O   -0.242685
   122  O   -0.303590
   123  C    0.149322
   124  H   -0.017595
   125  H   -0.017093
   126  H   -0.041862
   127  H   -0.006115
   128  H    0.005720
   129  H    0.017575
   130  H    0.013018
   131  H    0.016670
   132  H    0.023691
   133  H    0.065031
   134  H   -0.145457
   135  H    0.066172
   136  H    0.012415
   137  H    0.025030
   138  H    0.036359
   139  H    0.038063
   140  H    0.034805
   141  H    0.032520
   142  H    0.013425
   143  H    0.011357
   144  H    0.023990
   145  H    0.011396
   146  H    0.004627
   147  H    0.005072
   148  H    0.003086
   149  H    0.010174
   150  H    0.017029
   151  H    0.031421
   152  H    0.046575
   153  H    0.007817
   154  H    0.045238
   155  H    0.029470
   156  H    0.029357
   157  H   -0.034498
   158  H    0.053406
 Sum of Mulliken charges =  -0.00000

 Dipole moment (field-independent basis, Debye):
    X=             -3.3750    Y=              4.2485    Z=             -0.5789  Tot=              5.4567
 Quadrupole moment (field-independent basis, Debye-Ang):
   XX=           -497.5098   YY=           -543.0798   ZZ=           -468.9992
   XY=            -21.3909   XZ=             -3.5447   YZ=              2.2501

 Normal termination of Gaussian 16 at Wed Sep  8 23:24:16 2021.
