 Gaussian 16, Revision A.03,
 Gaussian 16:  ES64L-G16RevA.03 25-Dec-2016

 -----------------------------------
 #p cam-b3lyp/Def2SVP td=(nstates=5)
 -----------------------------------

 --------------------------------
 TDDFT excited states in gaussian
 --------------------------------
 Symbolic Z-matrix:
 Charge =  0 Multiplicity = 1

                         Standard orientation:
 ---------------------------------------------------------------------
 Center     Atomic      Atomic             Coordinates (Angstroms)
 Number     Number       Type             X           Y           Z
 ---------------------------------------------------------------------
      1         12           0        4.591006    0.413258    1.184831
      2          6           0        5.228169   -2.551266   -0.717230
      3          6           0        6.125243    2.164447   -1.309667
      4          6           0        4.447037    2.977757    3.044734
      5          6           0        4.153030   -1.642161    3.964955
      6          7           0        5.516729   -0.224892   -0.722116
      7          6           0        5.642062   -1.383436   -1.361833
      8          6           0        6.185757   -1.231685   -2.813983
      9          6           0        6.939794    0.164176   -2.655873
     10          6           0        6.124384    0.753243   -1.518317
     11          6           0        8.389065    0.025671   -2.200976
     12          6           0        5.035942   -1.144936   -3.873290
     13          6           0        5.474449   -1.323613   -5.329704
     14          1           0        4.583542   -2.014663   -6.249532
     15          7           0        4.745336    2.331147    0.736796
     16          6           0        5.392882    2.864777   -0.326787
     17          6           0        5.219936    4.329223   -0.216473
     18          6           0        4.581716    4.614247    1.098643
     19          6           0        4.589838    3.304364    1.698242
     20          6           0        5.596026    5.286519   -1.305459
     21          6           0        4.058576    5.870056    1.721058
     22          8           0        3.756226    5.939659    2.961346
     23          6           0        3.991977    7.056953    0.849346
     24          7           0        4.553212    0.664417    3.256817
     25          6           0        4.429260    1.879257    3.802513
     26          6           0        4.141825    1.790983    5.272046
     27          6           0        3.852742    0.249907    5.574153
     28          6           0        4.119929   -0.321959    4.159992
     29          6           0        5.253981    2.293623    6.202891
     30          6           0        2.508968   -0.091039    6.265850
     31          6           0        1.359630    0.205826    5.328838
     32          7           0        4.494265   -1.723502    1.553532
     33          6           0        4.327506   -2.358580    2.792702
     34          6           0        4.434234   -3.809417    2.552393
     35          6           0        4.673735   -3.917484    1.183888
     36          6           0        4.740176   -2.615557    0.610422
     37          6           0        4.368858   -4.825740    3.545996
     38          6           0        4.913474   -4.829075    0.076917
     39          8           0        4.881120   -6.052729   -0.061348
     40          6           0        5.403062   -3.977477   -1.176444
     41          6           0        4.612231   -4.433101   -2.372396
     42          8           0        3.384414   -4.222211   -2.445583
     43          8           0        5.455356   -4.828354   -3.338552
     44          6           0        4.735597   -5.265274   -4.564603
     45          1           0        6.790050    2.786659   -1.912017
     46          1           0        4.283414    3.831412    3.705747
     47          1           0        3.943023   -2.348398    4.770299
     48          1           0        6.892390   -2.004218   -3.117771
     49          1           0        6.845144    0.781307   -3.549133
     50          1           0        8.626631   -1.004414   -1.935632
     51          1           0        8.484103    0.674700   -1.330217
     52          1           0        9.070558    0.428456   -2.950715
     53          1           0        4.663062   -0.121610   -3.916018
     54          1           0        4.245629   -1.860693   -3.644331
     55          1           0        6.483035   -1.732767   -5.394944
     56          1           0        5.552312   -0.336940   -5.786447
     57          1           0        6.191716    4.800981   -2.077438
     58          1           0        6.269399    6.021443   -0.864817
     59          1           0        4.726360    5.790896   -1.726904
     60          1           0        4.989603    7.282907    0.472202
     61          1           0        3.510516    7.836381    1.438869
     62          1           0        3.380874    6.820995   -0.022334
     63          1           0        3.262294    2.377517    5.534401
     64          1           0        4.607158   -0.187072    6.228813
     65          1           0        4.932043    3.081778    6.883974
     66          1           0        6.086262    2.627499    5.583919
     67          1           0        5.729128    1.520624    6.806318
     68          1           0        2.369872    0.529223    7.150652
     69          1           0        2.437319   -1.133332    6.576885
     70          1           0        1.196593    1.273139    5.474079
     71          1           0        0.477023   -0.366595    5.616154
     72          1           0        1.646812    0.058806    4.287493
     73          1           0        3.740720   -5.615358    3.133788
     74          1           0        3.959583   -4.440851    4.479782
     75          1           0        5.421960   -5.093464    3.630598
     76          1           0        6.468677   -4.173300   -1.291511
     77          1           0        5.065543   -6.280350   -4.785943
     78          1           0        4.915161   -4.499060   -5.318976
     79          1           0        3.660115   -5.415716   -4.464381
     80         12           0       -4.149081    0.528722   -0.946961
     81          6           0       -6.731743   -1.596636    0.353742
     82          6           0       -6.520845    2.957864   -1.276487
     83          6           0       -2.005812    2.270548   -2.508971
     84          6           0       -2.290194   -2.350630   -1.579069
     85          7           0       -6.312143    0.556993   -0.485829
     86          6           0       -7.171619   -0.288521    0.062576
     87          6           0       -8.559826    0.325570    0.387139
     88          6           0       -8.543085    1.531615   -0.673066
     89          6           0       -7.033348    1.725047   -0.799403
     90          6           0       -9.090451    1.142265   -2.036198
     91          6           0       -8.648449    0.857333    1.860704
     92          6           0      -10.063373    1.186873    2.341467
     93          1           0      -10.401391    0.929442    3.738587
     94          7           0       -4.105076    2.476875   -1.322870
     95          6           0       -5.159959    3.315318   -1.397100
     96          6           0       -4.600947    4.637863   -1.717332
     97          6           0       -3.146301    4.479126   -1.988472
     98          6           0       -3.030911    3.034666   -1.970593
     99          6           0       -5.413716    5.898899   -1.666209
    100          6           0       -2.044205    5.463916   -2.237051
    101          8           0       -0.901265    5.096307   -2.685813
    102          6           0       -2.372518    6.881723   -2.028416
    103          7           0       -2.492554    0.026256   -2.098391
    104          6           0       -1.698798    0.977977   -2.620014
    105          6           0       -0.424914    0.383752   -3.171827
    106          6           0       -0.420141   -1.142205   -2.693272
    107          6           0       -1.795513   -1.191904   -1.992352
    108          6           0       -0.267845    0.440841   -4.691189
    109          6           0        0.827962   -1.629432   -1.907444
    110          6           0        0.891447   -0.942544   -0.562248
    111          7           0       -4.347159   -1.577786   -0.509407
    112          6           0       -3.466524   -2.614324   -0.889074
    113          6           0       -4.082822   -3.887331   -0.462394
    114          6           0       -5.299647   -3.501746    0.119973
    115          6           0       -5.441595   -2.089890    0.042346
    116          6           0       -3.540873   -5.186290   -0.674820
    117          6           0       -6.501176   -3.968948    0.773220
    118          8           0       -6.897752   -5.057640    1.187006
    119          6           0       -7.539711   -2.767563    0.840283
    120          6           0       -8.089683   -2.706531    2.238969
    121          8           0       -7.350230   -2.419939    3.196926
    122          8           0       -9.432124   -2.781739    2.188267
    123          6           0      -10.024530   -2.714208    3.550734
    124          1           0       -7.225673    3.709745   -1.632552
    125          1           0       -1.186092    2.833195   -2.961701
    126          1           0       -1.728593   -3.284420   -1.652035
    127          1           0       -9.402057   -0.327884    0.193689
    128          1           0       -9.008888    2.424124   -0.263424
    129          1           0       -9.291518    0.083317   -2.102141
    130          1           0       -8.330112    1.428229   -2.751143
    131          1           0       -9.970982    1.745503   -2.275167
    132          1           0       -8.196281    1.856331    1.908661
    133          1           0       -8.186141    0.170013    2.542241
    134          1           0      -10.831415    0.771893    1.677497
    135          1           0      -10.208868    2.267919    2.276824
    136          1           0       -6.487202    5.683144   -1.599336
    137          1           0       -5.296181    6.394611   -2.635903
    138          1           0       -5.084799    6.580382   -0.878756
    139          1           0       -3.201236    7.159494   -2.675352
    140          1           0       -1.434634    7.422586   -2.168802
    141          1           0       -2.720487    7.012246   -0.997636
    142          1           0        0.444191    0.883365   -2.761772
    143          1           0       -0.476042   -1.836401   -3.544621
    144          1           0        0.653221    0.960956   -5.015527
    145          1           0       -1.142937    0.922402   -5.106947
    146          1           0       -0.275527   -0.525302   -5.192881
    147          1           0        1.741814   -1.354412   -2.439791
    148          1           0        0.852650   -2.703847   -1.759043
    149          1           0        1.366893    0.014706   -0.796152
    150          1           0        1.492689   -1.521770    0.135641
    151          1           0       -0.114058   -0.727114   -0.182508
    152          1           0       -3.675506   -5.734562    0.248090
    153          1           0       -2.491996   -5.137733   -0.959917
    154          1           0       -4.174259   -5.529815   -1.497053
    155          1           0       -8.318189   -2.965912    0.102579
    156          1           0      -10.650415   -3.603811    3.671428
    157          1           0      -10.529289   -1.731555    3.608653
    158          1           0       -9.352227   -2.812483    4.395013
 ---------------------------------------------------------------------

 SCF Done:  E(RCAM-B3LYP) =  -4069.81634048     A.U. after   19 cycles

 Excitation energies and oscillator strengths:

 Excited State   1:      Singlet-A      1.6423 eV  754.95 nm  f=0.0042  <S**2>=0.000
     309 -> 315       -0.11167
     310 -> 316        0.12216
     311 -> 313       -0.46153
     312 -> 314        0.51013
 This state for optimization and/or second-order correction.
 Total Energy, E(TD-HF/TD-DFT) =  -4069.75598806
 Copying the excited state density for this state as the 1-particle RhoCI density.

 Excited State   2:      Singlet-A      1.7033 eV  727.89 nm  f=0.6907  <S**2>=0.000
     309 -> 315        0.13510
     310 -> 316        0.12079
     311 -> 313        0.50754
     312 -> 314        0.45900

 Excited State   3:      Singlet-A      2.1810 eV  568.48 nm  f=0.0811  <S**2>=0.000
     309 -> 313        0.17072
     310 -> 314        0.62128
     312 -> 316       -0.25911

 Excited State   4:      Singlet-A      2.1967 eV  564.41 nm  f=0.1130  <S**2>=0.000
     309 -> 313        0.61733
     310 -> 314       -0.16760
     311 -> 315       -0.27068

 Excited State   5:      Singlet-A      2.3718 eV  522.74 nm  f=0.0000  <S**2>=0.000
     312 -> 313        0.70644

 The electronic state is 1-A.
 Alpha  occ. eigenvalues --  -46.87769 -46.87356 -19.26641 -19.26169 -19.19533
 Alpha  occ. eigenvalues --  -19.18967 -19.18697 -19.18563 -19.18232 -19.17805
 Alpha  occ. eigenvalues --  -14.42450 -14.42208 -14.41408 -14.41013 -14.39353
 Alpha  occ. eigenvalues --  -14.39064 -14.38589 -14.38294 -10.39494 -10.38890
 Alpha  occ. eigenvalues --  -10.35323 -10.35248 -10.34470 -10.33981 -10.31981
 Alpha  occ. eigenvalues --  -10.31602 -10.31442 -10.31011 -10.30936 -10.30779
 Alpha  occ. eigenvalues --  -10.30571 -10.30481 -10.30117 -10.30086 -10.30043
 Alpha  occ. eigenvalues --  -10.29897 -10.29747 -10.29598 -10.29529 -10.29189
 Alpha  occ. eigenvalues --  -10.29143 -10.29104 -10.28873 -10.28748 -10.28504
 Alpha  occ. eigenvalues --  -10.28495 -10.28368 -10.28186 -10.28143 -10.27912
 Alpha  occ. eigenvalues --  -10.27757 -10.27718 -10.27708 -10.27527 -10.27447
 Alpha  occ. eigenvalues --  -10.27387 -10.27380 -10.27362 -10.27311 -10.27299
 Alpha  occ. eigenvalues --  -10.27259 -10.27201 -10.27190 -10.26974 -10.26920
 Alpha  occ. eigenvalues --  -10.26830 -10.26815 -10.26504 -10.26336 -10.26277
 Alpha  occ. eigenvalues --  -10.26186 -10.26011 -10.25963 -10.25819 -10.25788
 Alpha  occ. eigenvalues --  -10.25513 -10.25424 -10.25359 -10.25104 -10.24916
 Alpha  occ. eigenvalues --  -10.24828 -10.24757 -10.24595 -10.24464 -10.24387
 Alpha  occ. eigenvalues --  -10.24102  -3.16485  -3.16107  -1.91365  -1.90989
 Alpha  occ. eigenvalues --   -1.90956  -1.90798  -1.90577  -1.90415  -1.16999
 Alpha  occ. eigenvalues --   -1.16459  -1.08721  -1.08415  -1.07094  -1.07078
 Alpha  occ. eigenvalues --   -1.06825  -1.06751  -1.04591  -1.04214  -1.03729
 Alpha  occ. eigenvalues --   -1.03356  -1.03204  -1.02708  -1.02388  -1.01798
 Alpha  occ. eigenvalues --   -0.92022  -0.91706  -0.89456  -0.89273  -0.89047
 Alpha  occ. eigenvalues --   -0.88882  -0.88217  -0.87847  -0.87710  -0.87677
 Alpha  occ. eigenvalues --   -0.87468  -0.87375  -0.87166  -0.86889  -0.85046
 Alpha  occ. eigenvalues --   -0.84749  -0.83874  -0.83388  -0.82852  -0.82686
 Alpha  occ. eigenvalues --   -0.82662  -0.82365  -0.81701  -0.81326  -0.80624
 Alpha  occ. eigenvalues --   -0.80175  -0.78725  -0.78361  -0.77208  -0.76999
 Alpha  occ. eigenvalues --   -0.76859  -0.76573  -0.75980  -0.75578  -0.74859
 Alpha  occ. eigenvalues --   -0.74449  -0.72747  -0.72370  -0.71679  -0.71288
 Alpha  occ. eigenvalues --   -0.69794  -0.69146  -0.68910  -0.68554  -0.67648
 Alpha  occ. eigenvalues --   -0.67318  -0.67269  -0.66989  -0.65369  -0.65019
 Alpha  occ. eigenvalues --   -0.64905  -0.64647  -0.64452  -0.64346  -0.64212
 Alpha  occ. eigenvalues --   -0.63683  -0.62443  -0.61976  -0.60356  -0.60056
 Alpha  occ. eigenvalues --   -0.59852  -0.59540  -0.58994  -0.58670  -0.58522
 Alpha  occ. eigenvalues --   -0.58103  -0.57750  -0.57302  -0.57277  -0.56872
 Alpha  occ. eigenvalues --   -0.56347  -0.56122  -0.55902  -0.55644  -0.55498
 Alpha  occ. eigenvalues --   -0.55370  -0.55229  -0.54886  -0.54603  -0.54094
 Alpha  occ. eigenvalues --   -0.53986  -0.53679  -0.53290  -0.53226  -0.53035
 Alpha  occ. eigenvalues --   -0.52966  -0.52850  -0.52671  -0.52623  -0.52483
 Alpha  occ. eigenvalues --   -0.52315  -0.51911  -0.51711  -0.51638  -0.51502
 Alpha  occ. eigenvalues --   -0.51439  -0.51219  -0.50847  -0.50409  -0.50264
 Alpha  occ. eigenvalues --   -0.49968  -0.49857  -0.49741  -0.49562  -0.49412
 Alpha  occ. eigenvalues --   -0.49272  -0.49217  -0.49146  -0.48964  -0.48835
 Alpha  occ. eigenvalues --   -0.48661  -0.48466  -0.48358  -0.48315  -0.48152
 Alpha  occ. eigenvalues --   -0.48025  -0.47684  -0.47308  -0.47259  -0.46849
 Alpha  occ. eigenvalues --   -0.46790  -0.46631  -0.46387  -0.46371  -0.46265
 Alpha  occ. eigenvalues --   -0.46163  -0.45943  -0.45894  -0.45746  -0.45528
 Alpha  occ. eigenvalues --   -0.45146  -0.44873  -0.44634  -0.44481  -0.44292
 Alpha  occ. eigenvalues --   -0.44165  -0.44160  -0.44069  -0.43989  -0.43899
 Alpha  occ. eigenvalues --   -0.43721  -0.43672  -0.43588  -0.43410  -0.43252
 Alpha  occ. eigenvalues --   -0.43103  -0.43034  -0.42918  -0.42691  -0.42596
 Alpha  occ. eigenvalues --   -0.42572  -0.42132  -0.41991  -0.41737  -0.41572
 Alpha  occ. eigenvalues --   -0.41520  -0.41370  -0.41148  -0.41114  -0.40899
 Alpha  occ. eigenvalues --   -0.40771  -0.40711  -0.40551  -0.40507  -0.40411
 Alpha  occ. eigenvalues --   -0.40324  -0.40041  -0.39846  -0.39313  -0.38852
 Alpha  occ. eigenvalues --   -0.38421  -0.37893  -0.37863  -0.37412  -0.37315
 Alpha  occ. eigenvalues --   -0.37277  -0.36992  -0.36949  -0.36790  -0.36510
 Alpha  occ. eigenvalues --   -0.36245  -0.35813  -0.34299  -0.34144  -0.33937
 Alpha  occ. eigenvalues --   -0.33646  -0.33186  -0.32864  -0.31241  -0.31123
 Alpha  occ. eigenvalues --   -0.31034  -0.30675  -0.30106  -0.29707  -0.29399
 Alpha  occ. eigenvalues --   -0.29291  -0.29067  -0.28923  -0.24077  -0.23728
 Alpha  occ. eigenvalues --   -0.21104  -0.20807
 Alpha virt. eigenvalues --   -0.08740  -0.08504  -0.01719  -0.01379  -0.00009
 Alpha virt. eigenvalues --    0.00191   0.02187   0.02489   0.03126   0.03912
 Alpha virt. eigenvalues --    0.04659   0.04699   0.05011   0.05373   0.06012

 Mulliken charges:
               1
     1  Mg   0.824986
     2  C   -0.004734
     3  C   -0.092555
     4  C   -0.044861
     5  C   -0.062775
     6  N   -0.255112
     7  C   -0.057598
     8  C   -0.011732
     9  C   -0.087221
    10  C    0.045275
    11  C    0.104729
    12  C    0.038141
    13  C   -0.071107
    14  H    0.034992
    15  N   -0.431685
    16  C    0.168296
    17  C   -0.174333
    18  C   -0.002118
    19  C    0.149476
    20  C    0.109361
    21  C    0.014262
    22  O   -0.249909
    23  C    0.060171
    24  N   -0.339638
    25  C    0.042195
    26  C   -0.028284
    27  C   -0.023686
    28  C    0.074202
    29  C    0.076198
    30  C    0.034945
    31  C   -0.005516
    32  N   -0.310410
    33  C    0.080521
    34  C   -0.170529
    35  C    0.008345
    36  C    0.076932
    37  C    0.127484
    38  C    0.043873
    39  O   -0.189111
    40  C   -0.005833
    41  C    0.216547
    42  O   -0.259946
    43  O   -0.303380
    44  C    0.157188
    45  H   -0.017711
    46  H   -0.016520
    47  H   -0.041276
    48  H    0.000310
    49  H   -0.003463
    50  H    0.025476
    51  H    0.017198
    52  H    0.016989
    53  H    0.012466
    54  H    0.053658
    55  H    0.018949
    56  H    0.019532
    57  H    0.005455
    58  H    0.026232
    59  H    0.045325
    60  H    0.036507
    61  H    0.034633
    62  H    0.037817
    63  H    0.017134
    64  H    0.009329
    65  H    0.023320
    66  H    0.012288
    67  H    0.004880
    68  H    0.006351
    69  H    0.005246
    70  H    0.008443
    71  H    0.020593
    72  H    0.029819
    73  H    0.047071
    74  H    0.010175
    75  H    0.045879
    76  H    0.035990
    77  H    0.044540
    78  H    0.047340
    79  H    0.052252
    80  Mg   0.837162
    81  C   -0.017711
    82  C   -0.088499
    83  C   -0.046127
    84  C   -0.065328
    85  N   -0.254656
    86  C   -0.049812
    87  C   -0.015071
    88  C   -0.090383
    89  C    0.045460
    90  C    0.114626
    91  C    0.062618
    92  C   -0.077501
    93  H    0.034142
    94  N   -0.423179
    95  C    0.162463
    96  C   -0.175327
    97  C   -0.008773
    98  C    0.152130
    99  C    0.099531
   100  C    0.015167
   101  O   -0.256589
   102  C    0.061823
   103  N   -0.350101
   104  C    0.037499
   105  C   -0.019623
   106  C   -0.040131
   107  C    0.087585
   108  C    0.075452
   109  C    0.040335
   110  C   -0.040838
   111  N   -0.324284
   112  C    0.078985
   113  C   -0.161889
   114  C    0.001813
   115  C    0.096613
   116  C    0.130207
   117  C    0.042382
   118  O   -0.188194
   119  C    0.000980
   120  C    0.211189
   121  O   -0.251364
   122  O   -0.305645
   123  C    0.152228
   124  H   -0.020775
   125  H   -0.017561
   126  H   -0.033544
   127  H   -0.001087
   128  H   -0.004950
   129  H    0.022128
   130  H    0.014301
   131  H    0.015475
   132  H    0.013946
   133  H    0.037487
   134  H    0.020559
   135  H    0.019326
   136  H    0.008342
   137  H    0.024825
   138  H    0.039036
   139  H    0.038149
   140  H    0.032828
   141  H    0.034842
   142  H    0.013002
   143  H    0.014538
   144  H    0.020742
   145  H    0.009836
   146  H    0.005729
   147  H    0.009084
   148  H    0.022721
   149  H    0.014002
   150  H    0.047856
   151  H    0.024632
   152  H    0.045826
   153  H    0.014433
   154  H    0.046099
   155  H    0.034484
   156  H    0.043563
   157  H    0.049254
   158  H    0.053235
 Sum of Mulliken charges =  -0.00000

 Dipole moment (field-independent basis, Debye):
    X=              1.0076    Y=              6.5972    Z=             -3.5137  Tot=              7.5422
 Quadrupole moment (field-independent basis, Debye-Ang):
   XX=           -449.8848   YY=           -539.4774   ZZ=           -484.0737
   XY=            -26.0337   XZ=            -10.5164   YZ=             -1.9969

 Normal termination of Gaussian 16 at Thu Sep  9 14:23:51 2021.
