 Gaussian 16, Revision A.03,
 Gaussian 16:  ES64L-G16RevA.03 25-Dec-2016

 -----------------------------------
 #p cam-b3lyp/Def2SVP td=(nstates=5)
 -----------------------------------

 --------------------------------
 TDDFT excited states in gaussian
 --------------------------------
 Symbolic Z-matrix:
 Charge =  0 Multiplicity = 1

                         Standard orientation:
 ---------------------------------------------------------------------
 Center     Atomic      Atomic             Coordinates (Angstroms)
 Number     Number       Type             X           Y           Z
 ---------------------------------------------------------------------
      1         12           0        4.190427   -0.177249    0.160949
      2          6           0        4.013397    2.975628   -1.524354
      3          6           0        4.821349    1.559777    3.029353
      4          6           0        4.799744   -2.948815    1.576496
      5          6           0        4.674444   -1.651241   -2.959745
      6          7           0        4.368083    1.990529    0.573046
      7          6           0        4.219256    3.097175   -0.148311
      8          6           0        4.227178    4.398648    0.708123
      9          6           0        5.040143    3.863929    1.971120
     10          6           0        4.695442    2.388180    1.874829
     11          6           0        6.550854    4.025286    1.836137
     12          6           0        2.784014    4.856276    1.107606
     13          6           0        2.679708    6.280869    1.659881
     14          1           0        1.498846    7.069965    1.343273
     15          7           0        4.249627   -0.651078    2.077934
     16          6           0        4.504552    0.186559    3.111696
     17          6           0        4.435363   -0.642209    4.334413
     18          6           0        4.307286   -2.064952    3.913114
     19          6           0        4.475627   -1.946084    2.487312
     20          6           0        4.442932   -0.069166    5.718362
     21          6           0        4.081176   -3.332006    4.675728
     22          8           0        4.233507   -4.483646    4.141786
     23          6           0        3.758553   -3.188656    6.106954
     24          7           0        4.887479   -2.011960   -0.550097
     25          6           0        5.006871   -3.066973    0.263339
     26          6           0        5.247326   -4.328966   -0.510931
     27          6           0        5.024976   -3.954256   -2.047130
     28          6           0        4.760429   -2.437121   -1.884074
     29          6           0        6.632228   -4.967470   -0.336664
     30          6           0        3.995458   -4.801901   -2.835805
     31          6           0        2.603207   -4.542594   -2.305243
     32          7           0        4.149356    0.482498   -1.906439
     33          6           0        4.402156   -0.296086   -3.045110
     34          6           0        4.364474    0.611815   -4.206301
     35          6           0        4.107118    1.866459   -3.657230
     36          6           0        4.017424    1.754033   -2.240329
     37          6           0        4.612379    0.245809   -5.558713
     38          6           0        3.911494    3.279959   -3.935808
     39          8           0        3.787610    3.952877   -4.960176
     40          6           0        3.964058    4.074418   -2.556715
     41          6           0        2.789258    5.013750   -2.528247
     42          8           0        1.621816    4.576521   -2.471019
     43          8           0        3.226912    6.267205   -2.333694
     44          6           0        2.108851    7.245718   -2.265824
     45          1           0        5.256694    1.982139    3.937113
     46          1           0        4.908854   -3.943512    2.013658
     47          1           0        4.732702   -2.053672   -3.972716
     48          1           0        4.754215    5.238133    0.254339
     49          1           0        4.662624    4.281129    2.904471
     50          1           0        6.827752    4.363653    0.837761
     51          1           0        6.967792    3.037316    2.032535
     52          1           0        6.942253    4.676540    2.618091
     53          1           0        2.457854    4.293808    1.982426
     54          1           0        2.097366    4.743992    0.267824
     55          1           0        3.586208    6.853040    1.460412
     56          1           0        2.629766    6.222835    2.747235
     57          1           0        4.713314    0.986018    5.713442
     58          1           0        5.254484   -0.555001    6.259710
     59          1           0        3.500186   -0.239883    6.238379
     60          1           0        4.569462   -2.658966    6.607359
     61          1           0        3.542342   -4.193318    6.468557
     62          1           0        2.873360   -2.560049    6.208126
     63          1           0        4.537038   -5.103989   -0.225877
     64          1           0        5.943694   -4.044358   -2.627228
     65          1           0        6.597671   -5.999682    0.012694
     66          1           0        7.207911   -4.342737    0.345678
     67          1           0        7.259113   -4.949800   -1.227798
     68          1           0        4.196992   -5.864180   -2.702035
     69          1           0        3.998306   -4.596019   -3.906251
     70          1           0        2.540773   -5.212018   -1.448034
     71          1           0        1.855814   -4.799653   -3.056598
     72          1           0        2.503238   -3.523604   -1.930876
     73          1           0        3.851080    0.748410   -6.155192
     74          1           0        4.569295   -0.835086   -5.690674
     75          1           0        5.618098    0.643279   -5.694368
     76          1           0        4.914472    4.606839   -2.537698
     77          1           0        2.302953    8.007744   -3.020726
     78          1           0        2.042099    7.568373   -1.226669
     79          1           0        1.131188    6.883499   -2.585683
     80         12           0       -3.682151   -1.170287    0.084575
     81          6           0       -6.401006    1.171387    0.143319
     82          6           0       -1.572611    1.501815    0.295170
     83          6           0       -1.265866   -3.164608   -0.417124
     84          6           0       -5.902013   -3.502189   -1.249629
     85          7           0       -4.058209    1.006340    0.199191
     86          6           0       -5.133539    1.775826    0.276025
     87          6           0       -4.836377    3.267009    0.588510
     88          6           0       -3.327265    3.330862    0.043179
     89          6           0       -2.941349    1.863682    0.219550
     90          6           0       -3.235277    3.674669   -1.434211
     91          6           0       -4.905976    3.581278    2.124214
     92          6           0       -4.932209    5.070499    2.475332
     93          1           0       -5.727061    5.501346    3.622094
     94          7           0       -1.741758   -0.951779    0.439153
     95          6           0       -1.053505    0.206706    0.513232
     96          6           0        0.344302   -0.171633    0.772430
     97          6           0        0.453886   -1.652993    0.681477
     98          6           0       -0.871686   -1.986306    0.199940
     99          6           0        1.400930    0.826026    1.148772
    100          6           0        1.571393   -2.610040    0.966853
    101          8           0        1.521688   -3.834513    0.591333
    102          6           0        2.765183   -2.049096    1.616233
    103          7           0       -3.539168   -2.989829   -0.910994
    104          6           0       -2.382943   -3.675759   -0.934986
    105          6           0       -2.589109   -5.073927   -1.466961
    106          6           0       -4.173550   -5.265482   -1.569035
    107          6           0       -4.627275   -3.851597   -1.144239
    108          6           0       -1.952460   -5.369675   -2.824763
    109          6           0       -4.783317   -6.489766   -0.832842
    110          6           0       -4.645862   -6.313927    0.662345
    111          7           0       -5.807855   -1.255525   -0.292439
    112          6           0       -6.527719   -2.317907   -0.881695
    113          6           0       -7.925696   -1.865133   -1.033532
    114          6           0       -7.917159   -0.552062   -0.539322
    115          6           0       -6.602159   -0.203540   -0.128468
    116          6           0       -8.985840   -2.618273   -1.612346
    117          6           0       -8.719365    0.622146   -0.281607
    118          8           0       -9.919319    0.885894   -0.347006
    119          6           0       -7.747654    1.834198    0.054674
    120          6           0       -8.272141    2.522446    1.285016
    121          8           0       -8.287126    1.934007    2.380518
    122          8           0       -8.465216    3.825800    1.012319
    123          6           0       -8.974696    4.553198    2.205266
    124          1           0       -0.821684    2.275005    0.130338
    125          1           0       -0.491170   -3.928949   -0.512494
    126          1           0       -6.675617   -4.204832   -1.566656
    127          1           0       -5.455861    3.975734    0.052110
    128          1           0       -2.707241    3.966252    0.670244
    129          1           0       -4.207905    3.703369   -1.902502
    130          1           0       -2.623952    2.900348   -1.878912
    131          1           0       -2.683712    4.609358   -1.570096
    132          1           0       -3.955178    3.294720    2.591795
    133          1           0       -5.744729    3.088591    2.576312
    134          1           0       -5.148356    5.696400    1.600985
    135          1           0       -3.927282    5.373027    2.779673
    136          1           0        1.063013    1.854988    0.974273
    137          1           0        2.232341    0.690744    0.448534
    138          1           0        1.769884    0.684967    2.166931
    139          1           0        3.174642   -1.255571    0.995650
    140          1           0        3.415741   -2.902109    1.818745
    141          1           0        2.463588   -1.585127    2.561955
    142          1           0       -2.189417   -5.811287   -0.781650
    143          1           0       -4.501342   -5.401126   -2.610193
    144          1           0       -1.254131   -6.227516   -2.801827
    145          1           0       -1.446458   -4.476461   -3.166306
    146          1           0       -2.656304   -5.559916   -3.633215
    147          1           0       -4.233954   -7.398664   -1.090263
    148          1           0       -5.826242   -6.664231   -1.075471
    149          1           0       -3.625815   -6.657619    0.858495
    150          1           0       -5.376322   -6.925010    1.188684
    151          1           0       -4.696004   -5.254747    0.940307
    152          1           0       -9.850038   -2.478853   -0.976554
    153          1           0       -8.723133   -3.670245   -1.702429
    154          1           0       -9.062722   -2.129440   -2.587230
    155          1           0       -7.737737    2.496299   -0.811981
    156          1           0       -9.906114    5.044006    1.906516
    157          1           0       -8.144405    5.205974    2.534277
    158          1           0       -9.309051    3.960509    3.048696
 ---------------------------------------------------------------------

 SCF Done:  E(RCAM-B3LYP) =  -4069.55026331     A.U. after   19 cycles

 Excitation energies and oscillator strengths:

 Excited State   1:      Singlet-A      1.3234 eV  936.85 nm  f=0.2097  <S**2>=0.000
     310 -> 313        0.10620
     312 -> 313        0.68455
 This state for optimization and/or second-order correction.
 Total Energy, E(TD-HF/TD-DFT) =  -4069.50162852
 Copying the excited state density for this state as the 1-particle RhoCI density.

 Excited State   2:      Singlet-A      1.6518 eV  750.59 nm  f=0.4776  <S**2>=0.000
     309 -> 316       -0.13421
     311 -> 314        0.67853

 Excited State   3:      Singlet-A      1.8407 eV  673.57 nm  f=0.1382  <S**2>=0.000
     310 -> 313        0.62690
     311 -> 313        0.16729
     312 -> 313       -0.11260
     312 -> 315        0.16920
     312 -> 316        0.12852

 Excited State   4:      Singlet-A      2.0076 eV  617.59 nm  f=0.0024  <S**2>=0.000
     310 -> 313       -0.13175
     311 -> 313        0.63174
     312 -> 314       -0.26739

 Excited State   5:      Singlet-A      2.0160 eV  615.01 nm  f=0.0088  <S**2>=0.000
     310 -> 313       -0.11743
     311 -> 313        0.25253
     312 -> 314        0.62095
     312 -> 318        0.10650

 The electronic state is 1-A.
 Alpha  occ. eigenvalues --  -46.88692 -46.87467 -19.27010 -19.26239 -19.19836
 Alpha  occ. eigenvalues --  -19.19045 -19.19025 -19.18943 -19.18515 -19.17910
 Alpha  occ. eigenvalues --  -14.42792 -14.42273 -14.41184 -14.41055 -14.39152
 Alpha  occ. eigenvalues --  -14.39121 -14.39060 -14.38428 -10.39846 -10.38969
 Alpha  occ. eigenvalues --  -10.35571 -10.35184 -10.34121 -10.34084 -10.32363
 Alpha  occ. eigenvalues --  -10.32318 -10.31672 -10.31644 -10.31259 -10.31043
 Alpha  occ. eigenvalues --  -10.30829 -10.30788 -10.30285 -10.30255 -10.30186
 Alpha  occ. eigenvalues --  -10.30151 -10.29986 -10.29713 -10.29679 -10.29328
 Alpha  occ. eigenvalues --  -10.29279 -10.29247 -10.29247 -10.29176 -10.28840
 Alpha  occ. eigenvalues --  -10.28670 -10.28567 -10.28466 -10.28420 -10.28238
 Alpha  occ. eigenvalues --  -10.28219 -10.28088 -10.27996 -10.27859 -10.27849
 Alpha  occ. eigenvalues --  -10.27768 -10.27580 -10.27535 -10.27427 -10.27395
 Alpha  occ. eigenvalues --  -10.27363 -10.27300 -10.27256 -10.27245 -10.27198
 Alpha  occ. eigenvalues --  -10.26895 -10.26804 -10.26546 -10.26498 -10.26431
 Alpha  occ. eigenvalues --  -10.26400 -10.26064 -10.26032 -10.25775 -10.25741
 Alpha  occ. eigenvalues --  -10.25722 -10.25479 -10.25381 -10.25330 -10.24951
 Alpha  occ. eigenvalues --  -10.24867 -10.24719 -10.24621 -10.24499 -10.24246
 Alpha  occ. eigenvalues --  -10.23218  -3.17673  -3.16216  -1.92608  -1.92111
 Alpha  occ. eigenvalues --   -1.91967  -1.91098  -1.90687  -1.90524  -1.17371
 Alpha  occ. eigenvalues --   -1.16531  -1.09435  -1.08519  -1.07710  -1.07436
 Alpha  occ. eigenvalues --   -1.06934  -1.06830  -1.06153  -1.04817  -1.04274
 Alpha  occ. eigenvalues --   -1.03708  -1.03460  -1.02864  -1.02735  -1.01937
 Alpha  occ. eigenvalues --   -0.93416  -0.92136  -0.91811  -0.89674  -0.89348
 Alpha  occ. eigenvalues --   -0.88856  -0.88803  -0.88504  -0.88090  -0.87968
 Alpha  occ. eigenvalues --   -0.87761  -0.87640  -0.87495  -0.86991  -0.86287
 Alpha  occ. eigenvalues --   -0.84728  -0.84100  -0.83748  -0.83525  -0.83000
 Alpha  occ. eigenvalues --   -0.82564  -0.82347  -0.82094  -0.81445  -0.81170
 Alpha  occ. eigenvalues --   -0.80382  -0.79463  -0.78882  -0.77593  -0.77422
 Alpha  occ. eigenvalues --   -0.77049  -0.76723  -0.76259  -0.75656  -0.74827
 Alpha  occ. eigenvalues --   -0.74695  -0.73494  -0.72548  -0.72448  -0.71367
 Alpha  occ. eigenvalues --   -0.69644  -0.69484  -0.69318  -0.68942  -0.68315
 Alpha  occ. eigenvalues --   -0.67831  -0.67459  -0.67157  -0.66241  -0.65613
 Alpha  occ. eigenvalues --   -0.65329  -0.65063  -0.64635  -0.64527  -0.64326
 Alpha  occ. eigenvalues --   -0.64059  -0.62981  -0.62570  -0.62120  -0.60774
 Alpha  occ. eigenvalues --   -0.60356  -0.59858  -0.59575  -0.59139  -0.58832
 Alpha  occ. eigenvalues --   -0.58321  -0.58279  -0.57697  -0.57639  -0.57392
 Alpha  occ. eigenvalues --   -0.56966  -0.56878  -0.56582  -0.56044  -0.55849
 Alpha  occ. eigenvalues --   -0.55683  -0.55524  -0.55199  -0.55008  -0.54658
 Alpha  occ. eigenvalues --   -0.54443  -0.54343  -0.54058  -0.53710  -0.53552
 Alpha  occ. eigenvalues --   -0.53408  -0.53185  -0.53011  -0.52734  -0.52648
 Alpha  occ. eigenvalues --   -0.52527  -0.52351  -0.52166  -0.52027  -0.51958
 Alpha  occ. eigenvalues --   -0.51820  -0.51685  -0.51309  -0.51104  -0.50984
 Alpha  occ. eigenvalues --   -0.50567  -0.50256  -0.49905  -0.49872  -0.49756
 Alpha  occ. eigenvalues --   -0.49597  -0.49527  -0.49159  -0.49137  -0.49084
 Alpha  occ. eigenvalues --   -0.48982  -0.48760  -0.48587  -0.48497  -0.48291
 Alpha  occ. eigenvalues --   -0.48132  -0.47820  -0.47603  -0.47382  -0.47117
 Alpha  occ. eigenvalues --   -0.46993  -0.46919  -0.46607  -0.46519  -0.46414
 Alpha  occ. eigenvalues --   -0.46325  -0.46140  -0.45993  -0.45773  -0.45659
 Alpha  occ. eigenvalues --   -0.45335  -0.45133  -0.44896  -0.44640  -0.44518
 Alpha  occ. eigenvalues --   -0.44410  -0.44356  -0.44276  -0.44058  -0.43961
 Alpha  occ. eigenvalues --   -0.43875  -0.43817  -0.43715  -0.43585  -0.43421
 Alpha  occ. eigenvalues --   -0.43270  -0.43194  -0.42869  -0.42786  -0.42721
 Alpha  occ. eigenvalues --   -0.42502  -0.42178  -0.42032  -0.41944  -0.41764
 Alpha  occ. eigenvalues --   -0.41702  -0.41403  -0.41356  -0.41210  -0.41107
 Alpha  occ. eigenvalues --   -0.40922  -0.40797  -0.40624  -0.40491  -0.40309
 Alpha  occ. eigenvalues --   -0.40304  -0.40150  -0.39719  -0.39295  -0.38400
 Alpha  occ. eigenvalues --   -0.38208  -0.38180  -0.37933  -0.37518  -0.37326
 Alpha  occ. eigenvalues --   -0.37126  -0.37047  -0.36886  -0.36723  -0.36641
 Alpha  occ. eigenvalues --   -0.36047  -0.35645  -0.34653  -0.34193  -0.34072
 Alpha  occ. eigenvalues --   -0.33730  -0.32988  -0.32787  -0.31566  -0.30977
 Alpha  occ. eigenvalues --   -0.30809  -0.30773  -0.30094  -0.29813  -0.29527
 Alpha  occ. eigenvalues --   -0.29182  -0.29060  -0.27425  -0.23835  -0.23407
 Alpha  occ. eigenvalues --   -0.20942  -0.20683
 Alpha virt. eigenvalues --   -0.09518  -0.08638  -0.01586  -0.01443  -0.00516
 Alpha virt. eigenvalues --    0.00173   0.01483   0.02361   0.03353   0.04101
 Alpha virt. eigenvalues --    0.04257   0.04869   0.04920   0.05276   0.05447

 Mulliken charges:
               1
     1  Mg   0.562430
     2  C    0.001335
     3  C   -0.090019
     4  C    0.089545
     5  C   -0.075985
     6  N   -0.247076
     7  C   -0.054845
     8  C   -0.013620
     9  C   -0.081782
    10  C    0.037234
    11  C    0.104772
    12  C    0.040654
    13  C   -0.068209
    14  H    0.034096
    15  N   -0.477160
    16  C    0.175477
    17  C   -0.179150
    18  C   -0.008445
    19  C    0.054642
    20  C    0.114241
    21  C    0.013568
    22  O   -0.252301
    23  C    0.065673
    24  N   -0.336465
    25  C   -0.005741
    26  C   -0.022645
    27  C   -0.029579
    28  C    0.106121
    29  C    0.084397
    30  C    0.037915
    31  C   -0.009212
    32  N   -0.306145
    33  C    0.099007
    34  C   -0.168247
    35  C    0.012241
    36  C    0.087383
    37  C    0.126897
    38  C    0.047584
    39  O   -0.183324
    40  C   -0.007686
    41  C    0.214257
    42  O   -0.261555
    43  O   -0.303206
    44  C    0.157056
    45  H   -0.018172
    46  H    0.006729
    47  H   -0.041149
    48  H    0.001256
    49  H   -0.005932
    50  H    0.023981
    51  H    0.019414
    52  H    0.016249
    53  H    0.015687
    54  H    0.041369
    55  H    0.020556
    56  H    0.019745
    57  H    0.004219
    58  H    0.025551
    59  H    0.036698
    60  H    0.038058
    61  H    0.037716
    62  H    0.029559
    63  H    0.021931
    64  H    0.007375
    65  H    0.021185
    66  H    0.008909
    67  H    0.000109
    68  H    0.003593
    69  H   -0.002947
    70  H    0.027358
    71  H    0.006389
    72  H    0.035384
    73  H    0.049513
    74  H    0.013786
    75  H    0.048574
    76  H    0.036741
    77  H    0.045425
    78  H    0.046867
    79  H    0.051991
    80  Mg   0.838883
    81  C   -0.017212
    82  C   -0.095187
    83  C   -0.047417
    84  C   -0.065186
    85  N   -0.254870
    86  C   -0.048698
    87  C   -0.015421
    88  C   -0.089425
    89  C    0.044113
    90  C    0.114235
    91  C    0.062909
    92  C   -0.076888
    93  H    0.033124
    94  N   -0.425106
    95  C    0.165227
    96  C   -0.201614
    97  C    0.020897
    98  C    0.149683
    99  C    0.167406
   100  C    0.091986
   101  O   -0.251713
   102  C    0.112850
   103  N   -0.349847
   104  C    0.036548
   105  C   -0.019656
   106  C   -0.034861
   107  C    0.089297
   108  C    0.071929
   109  C    0.034837
   110  C   -0.007619
   111  N   -0.324023
   112  C    0.078647
   113  C   -0.163354
   114  C    0.002238
   115  C    0.096319
   116  C    0.131501
   117  C    0.042161
   118  O   -0.188392
   119  C    0.001088
   120  C    0.211223
   121  O   -0.251536
   122  O   -0.305374
   123  C    0.152271
   124  H   -0.005077
   125  H   -0.011986
   126  H   -0.040943
   127  H   -0.000821
   128  H   -0.005502
   129  H    0.019512
   130  H    0.022161
   131  H    0.020815
   132  H    0.012713
   133  H    0.036917
   134  H    0.021092
   135  H    0.018354
   136  H    0.011909
   137  H    0.057454
   138  H    0.071071
   139  H   -0.000540
   140  H    0.020310
   141  H    0.038359
   142  H    0.014300
   143  H    0.012167
   144  H    0.024193
   145  H    0.014123
   146  H    0.005109
   147  H    0.005698
   148  H    0.003418
   149  H    0.011213
   150  H    0.017535
   151  H    0.030247
   152  H    0.045592
   153  H    0.008204
   154  H    0.047037
   155  H    0.035528
   156  H    0.043631
   157  H    0.049254
   158  H    0.053140
 Sum of Mulliken charges =  -0.00000

 Dipole moment (field-independent basis, Debye):
    X=              5.2393    Y=              3.0548    Z=              2.5485  Tot=              6.5785
 Quadrupole moment (field-independent basis, Debye-Ang):
   XX=           -556.3530   YY=           -474.6824   ZZ=           -505.9143
   XY=             16.1046   XZ=             17.9126   YZ=             46.1932

 Normal termination of Gaussian 16 at Thu Sep  9 11:11:29 2021.
