 Gaussian 16, Revision A.03,
 Gaussian 16:  ES64L-G16RevA.03 25-Dec-2016

 -----------------------------------
 #p cam-b3lyp/Def2SVP td=(nstates=5)
 -----------------------------------

 --------------------------------
 TDDFT excited states in gaussian
 --------------------------------
 Symbolic Z-matrix:
 Charge =  0 Multiplicity = 1

                         Standard orientation:
 ---------------------------------------------------------------------
 Center     Atomic      Atomic             Coordinates (Angstroms)
 Number     Number       Type             X           Y           Z
 ---------------------------------------------------------------------
      1         12           0       -6.536357   -0.718707   -0.112266
      2          6           0       -6.752379    2.683132    0.979997
      3          6           0       -7.315193    0.393037   -3.242842
      4          6           0       -6.798173   -3.750195   -1.005660
      5          6           0       -6.899428   -1.658276    3.224057
      6          7           0       -6.955878    1.305044   -0.905412
      7          6           0       -6.947777    2.532340   -0.394676
      8          6           0       -7.091368    3.650152   -1.470432
      9          6           0       -7.815953    2.807640   -2.613738
     10          6           0       -7.305034    1.423116   -2.255997
     11          6           0       -9.337242    2.813449   -2.503517
     12          6           0       -5.704111    4.194040   -1.951509
     13          6           0       -5.755537    5.499496   -2.750567
     14          1           0       -4.679026    6.464488   -2.585450
     15          7           0       -6.508367   -1.530661   -1.913043
     16          6           0       -6.840816   -0.926442   -3.079098
     17          6           0       -6.656022   -1.946328   -4.133785
     18          6           0       -6.371813   -3.246288   -3.464889
     19          6           0       -6.576624   -2.895300   -2.082775
     20          6           0       -6.706415   -1.634315   -5.597977
     21          6           0       -5.988341   -4.594006   -3.989043
     22          8           0       -6.015782   -5.641643   -3.256733
     23          6           0       -5.660447   -4.671801   -5.424130
     24          7           0       -7.029006   -2.465555    0.918972
     25          6           0       -7.012282   -3.655408    0.308272
     26          6           0       -7.118552   -4.778236    1.297162
     27          6           0       -6.966688   -4.112082    2.740397
     28          6           0       -6.876162   -2.628086    2.306999
     29          6           0       -8.417465   -5.594455    1.245950
     30          6           0       -5.859660   -4.679613    3.663877
     31          6           0       -4.497900   -4.358813    3.089597
     32          7           0       -6.606314    0.299624    1.803237
     33          6           0       -6.786700   -0.287304    3.064050
     34          6           0       -6.873445    0.811363    4.043578
     35          6           0       -6.753319    1.969170    3.277486
     36          6           0       -6.627511    1.616905    1.903305
     37          6           0       -7.100131    0.666252    5.440715
     38          6           0       -6.726702    3.422700    3.297430
     39          8           0       -6.698439    4.277401    4.184098
     40          6           0       -6.847398    3.946670    1.798525
     41          6           0       -5.788447    4.996157    1.597258
     42          8           0       -4.577578    4.694714    1.614409
     43          8           0       -6.364404    6.135133    1.183071
     44          6           0       -5.365663    7.209262    0.936258
     45          1           0       -7.781055    0.592995   -4.209760
     46          1           0       -6.784501   -4.812769   -1.257032
     47          1           0       -6.927867   -1.877467    4.292981
     48          1           0       -7.719232    4.489963   -1.172223
     49          1           0       -7.473466    3.092651   -3.608320
     50          1           0       -9.668015    3.289974   -1.580785
     51          1           0       -9.634115    1.764568   -2.517938
     52          1           0       -9.787964    3.264613   -3.387869
     53          1           0       -5.300640    3.526350   -2.712733
     54          1           0       -5.023274    4.314171   -1.108089
     55          1           0       -6.725187    5.988555   -2.653057
     56          1           0       -5.681009    5.254557   -3.810119
     57          1           0       -7.096720   -0.633977   -5.781093
     58          1           0       -7.447335   -2.300111   -6.040088
     59          1           0       -5.741685   -1.784127   -6.082935
     60          1           0       -6.518524   -4.338018   -6.007948
     61          1           0       -5.323790   -5.692741   -5.600746
     62          1           0       -4.852079   -3.972603   -5.640026
     63          1           0       -6.318949   -5.503612    1.152629
     64          1           0       -7.878483   -4.203577    3.331102
     65          1           0       -8.258252   -6.661280    1.087080
     66          1           0       -9.049827   -5.172887    0.465123
     67          1           0       -9.057059   -5.491159    2.122115
     68          1           0       -5.935077   -5.764835    3.723482
     69          1           0       -5.904180   -4.287755    4.680103
     70          1           0       -4.344320   -5.158571    2.365972
     71          1           0       -3.738554   -4.388839    3.871712
     72          1           0       -4.509843   -3.418398    2.538270
     73          1           0       -6.411981    1.352416    5.934271
     74          1           0       -6.934907   -0.361247    5.764056
     75          1           0       -8.147109    0.961681    5.507167
     76          1           0       -7.852416    4.352786    1.688394
     77          1           0       -5.658976    8.065903    1.543191
     78          1           0       -5.319148    7.346827   -0.144167
     79          1           0       -4.358253    7.026301    1.311743
     80         12           0        6.694768   -0.788732    0.263729
     81          6           0        6.527754    2.726648   -0.438631
     82          6           0        5.909357   -1.328493   -3.011382
     83          6           0        6.391154   -3.872130    0.947741
     84          6           0        6.333853    0.009344    3.636940
     85          7           0        6.294753    0.600470   -1.410298
     86          6           0        6.320404    1.914680   -1.573157
     87          6           0        6.192045    2.382688   -3.047627
     88          6           0        5.442367    1.094064   -3.644535
     89          6           0        5.935824    0.042863   -2.652501
     90          6           0        3.928562    1.176251   -3.539807
     91          6           0        7.588421    2.601736   -3.728924
     92          6           0        7.542921    3.351339   -5.062260
     93          1           0        8.639289    4.259243   -5.388089
     94          7           0        6.704675   -2.375622   -0.928013
     95          6           0        6.379483   -2.412045   -2.237286
     96          6           0        6.528643   -3.816183   -2.649973
     97          6           0        6.809064   -4.633873   -1.438582
     98          6           0        6.621130   -3.640260   -0.400546
     99          6           0        6.482160   -4.251639   -4.085804
    100          6           0        7.172150   -6.075075   -1.245444
    101          8           0        7.136580   -6.629462   -0.090364
    102          6           0        7.480204   -6.842146   -2.461257
    103          7           0        6.193258   -1.803384    2.007673
    104          6           0        6.185158   -3.147352    2.047555
    105          6           0        6.066915   -3.650261    3.466527
    106          6           0        6.241396   -2.360237    4.395488
    107          6           0        6.345826   -1.273764    3.302764
    108          6           0        4.756164   -4.354893    3.815529
    109          6           0        7.347000   -2.421694    5.484764
    110          6           0        8.711330   -2.451038    4.834267
    111          7           0        6.655011    1.024858    1.437358
    112          6           0        6.467410    1.133949    2.832705
    113          6           0        6.401658    2.574877    3.151805
    114          6           0        6.533547    3.208780    1.907112
    115          6           0        6.651492    2.231561    0.882102
    116          6           0        6.191939    3.131832    4.444836
    117          6           0        6.589158    4.482249    1.226030
    118          8           0        6.627037    5.658445    1.585022
    119          6           0        6.460926    4.225272   -0.337273
    120          6           0        7.532695    5.022742   -1.028542
    121          8           0        8.733893    4.752838   -0.852811
    122          8           0        6.962423    5.825398   -1.945546
    123          6           0        7.986238    6.628710   -2.665478
    124          1           0        5.446573   -1.608156   -3.958215
    125          1           0        6.388688   -4.921366    1.252020
    126          1           0        6.321047    0.341542    4.677206
    127          1           0        5.583260    3.267154   -3.192121
    128          1           0        5.790455    0.864256   -4.648220
    129          1           0        3.610172    2.038048   -2.972308
    130          1           0        3.617726    0.263656   -3.048285
    131          1           0        3.479711    1.149480   -4.536877
    132          1           0        7.975818    1.633388   -4.070923
    133          1           0        8.265630    3.095716   -3.059593
    134          1           0        6.575878    3.842086   -5.226437
    135          1           0        7.614487    2.622161   -5.872920
    136          1           0        6.096997   -3.455836   -4.735228
    137          1           0        5.731082   -5.045968   -4.154899
    138          1           0        7.439925   -4.639135   -4.439660
    139          1           0        6.624521   -6.815234   -3.131739
    140          1           0        7.802778   -7.825165   -2.112699
    141          1           0        8.306591   -6.349546   -2.985709
    142          1           0        6.856304   -4.356227    3.693658
    143          1           0        5.327371   -2.143561    4.967726
    144          1           0        4.901636   -5.382577    4.198624
    145          1           0        4.127857   -4.362782    2.934785
    146          1           0        4.131458   -3.835628    4.540317
    147          1           0        7.258638   -3.345112    6.062387
    148          1           0        7.306660   -1.596725    6.188173
    149          1           0        8.844334   -3.508617    4.587447
    150          1           0        9.474876   -2.109058    5.530033
    151          1           0        8.710381   -1.890306    3.892349
    152          1           0        6.884971    3.956592    4.544724
    153          1           0        6.340743    2.389620    5.226339
    154          1           0        5.144653    3.433845    4.359599
    155          1           0        5.460127    4.536254   -0.639377
    156          1           0        7.704698    7.680225   -2.552549
    157          1           0        8.015422    6.222744   -3.694107
    158          1           0        8.992462    6.634802   -2.263085
 ---------------------------------------------------------------------

 SCF Done:  E(RCAM-B3LYP) =  -4069.81164090     A.U. after   19 cycles

 Excitation energies and oscillator strengths:

 Excited State   1:      Singlet-A      1.6667 eV  743.91 nm  f=0.0567  <S**2>=0.000
     309 -> 315       -0.10975
     310 -> 316        0.13200
     311 -> 313       -0.43754
     312 -> 314        0.52901
 This state for optimization and/or second-order correction.
 Total Energy, E(TD-HF/TD-DFT) =  -4069.75039213
 Copying the excited state density for this state as the 1-particle RhoCI density.

 Excited State   2:      Singlet-A      1.6878 eV  734.61 nm  f=0.6827  <S**2>=0.000
     309 -> 315        0.13676
     310 -> 316        0.11273
     311 -> 313        0.52796
     312 -> 314        0.43678

 Excited State   3:      Singlet-A      2.1852 eV  567.39 nm  f=0.0514  <S**2>=0.000
     309 -> 313       -0.18993
     310 -> 314        0.61418
     312 -> 316       -0.26048

 Excited State   4:      Singlet-A      2.1926 eV  565.46 nm  f=0.1403  <S**2>=0.000
     309 -> 313        0.61211
     310 -> 314        0.18844
     311 -> 315       -0.26608

 Excited State   5:      Singlet-A      2.6500 eV  467.87 nm  f=0.0000  <S**2>=0.000
     312 -> 313        0.70710

 The electronic state is 1-A.
 Alpha  occ. eigenvalues --  -46.87850 -46.87553 -19.26285 -19.26275 -19.19079
 Alpha  occ. eigenvalues --  -19.19028 -19.18886 -19.18621 -19.18204 -19.17935
 Alpha  occ. eigenvalues --  -14.42503 -14.42395 -14.41501 -14.41251 -14.39459
 Alpha  occ. eigenvalues --  -14.39247 -14.38638 -14.38488 -10.39090 -10.39006
 Alpha  occ. eigenvalues --  -10.35522 -10.35300 -10.34423 -10.34113 -10.31699
 Alpha  occ. eigenvalues --  -10.31660 -10.31453 -10.31205 -10.30963 -10.30929
 Alpha  occ. eigenvalues --  -10.30620 -10.30559 -10.30286 -10.30263 -10.30250
 Alpha  occ. eigenvalues --  -10.30037 -10.29967 -10.29781 -10.29685 -10.29331
 Alpha  occ. eigenvalues --  -10.29312 -10.29292 -10.28796 -10.28642 -10.28617
 Alpha  occ. eigenvalues --  -10.28581 -10.28417 -10.28299 -10.28165 -10.28061
 Alpha  occ. eigenvalues --  -10.27889 -10.27845 -10.27781 -10.27643 -10.27570
 Alpha  occ. eigenvalues --  -10.27563 -10.27547 -10.27494 -10.27452 -10.27410
 Alpha  occ. eigenvalues --  -10.27388 -10.27379 -10.27361 -10.27270 -10.27188
 Alpha  occ. eigenvalues --  -10.26942 -10.26755 -10.26633 -10.26508 -10.26338
 Alpha  occ. eigenvalues --  -10.26278 -10.26228 -10.26071 -10.26040 -10.25945
 Alpha  occ. eigenvalues --  -10.25884 -10.25823 -10.25695 -10.25476 -10.25290
 Alpha  occ. eigenvalues --  -10.24882 -10.24839 -10.24758 -10.24733 -10.24641
 Alpha  occ. eigenvalues --  -10.24583  -3.16593  -3.16303  -1.91474  -1.91185
 Alpha  occ. eigenvalues --   -1.91061  -1.90903  -1.90774  -1.90611  -1.16635
 Alpha  occ. eigenvalues --   -1.16567  -1.08659  -1.08543  -1.07288  -1.06874
 Alpha  occ. eigenvalues --   -1.06863  -1.06650  -1.04633  -1.04393  -1.03812
 Alpha  occ. eigenvalues --   -1.03558  -1.03287  -1.02930  -1.02463  -1.02003
 Alpha  occ. eigenvalues --   -0.92017  -0.91880  -0.89568  -0.89389  -0.89236
 Alpha  occ. eigenvalues --   -0.89070  -0.88334  -0.88117  -0.87918  -0.87725
 Alpha  occ. eigenvalues --   -0.87670  -0.87584  -0.87342  -0.87025  -0.85031
 Alpha  occ. eigenvalues --   -0.84915  -0.83980  -0.83775  -0.83039  -0.82841
 Alpha  occ. eigenvalues --   -0.82697  -0.82567  -0.81614  -0.81504  -0.80640
 Alpha  occ. eigenvalues --   -0.80348  -0.78858  -0.78532  -0.77268  -0.77051
 Alpha  occ. eigenvalues --   -0.76973  -0.76811  -0.75962  -0.75748  -0.74941
 Alpha  occ. eigenvalues --   -0.74702  -0.72824  -0.72590  -0.71718  -0.71481
 Alpha  occ. eigenvalues --   -0.69953  -0.69658  -0.68923  -0.68740  -0.67691
 Alpha  occ. eigenvalues --   -0.67501  -0.67275  -0.67122  -0.65332  -0.65185
 Alpha  occ. eigenvalues --   -0.64896  -0.64670  -0.64662  -0.64562  -0.64316
 Alpha  occ. eigenvalues --   -0.64102  -0.62320  -0.62188  -0.60503  -0.60240
 Alpha  occ. eigenvalues --   -0.59854  -0.59706  -0.59034  -0.58889  -0.58549
 Alpha  occ. eigenvalues --   -0.58324  -0.57616  -0.57451  -0.57354  -0.57134
 Alpha  occ. eigenvalues --   -0.56361  -0.56100  -0.56000  -0.55804  -0.55576
 Alpha  occ. eigenvalues --   -0.55376  -0.55359  -0.55147  -0.54553  -0.54394
 Alpha  occ. eigenvalues --   -0.53943  -0.53832  -0.53354  -0.53274  -0.53127
 Alpha  occ. eigenvalues --   -0.53052  -0.52953  -0.52820  -0.52813  -0.52584
 Alpha  occ. eigenvalues --   -0.52483  -0.52303  -0.51958  -0.51748  -0.51669
 Alpha  occ. eigenvalues --   -0.51576  -0.51237  -0.51099  -0.50652  -0.50390
 Alpha  occ. eigenvalues --   -0.50082  -0.49981  -0.49891  -0.49767  -0.49568
 Alpha  occ. eigenvalues --   -0.49398  -0.49262  -0.49140  -0.49107  -0.49008
 Alpha  occ. eigenvalues --   -0.48630  -0.48519  -0.48489  -0.48463  -0.48272
 Alpha  occ. eigenvalues --   -0.48246  -0.47745  -0.47504  -0.47348  -0.47023
 Alpha  occ. eigenvalues --   -0.46845  -0.46611  -0.46603  -0.46472  -0.46407
 Alpha  occ. eigenvalues --   -0.46202  -0.46168  -0.45978  -0.45854  -0.45718
 Alpha  occ. eigenvalues --   -0.45247  -0.45107  -0.44617  -0.44565  -0.44420
 Alpha  occ. eigenvalues --   -0.44383  -0.44195  -0.44137  -0.44065  -0.44033
 Alpha  occ. eigenvalues --   -0.43982  -0.43846  -0.43524  -0.43464  -0.43434
 Alpha  occ. eigenvalues --   -0.43291  -0.43072  -0.42843  -0.42799  -0.42732
 Alpha  occ. eigenvalues --   -0.42678  -0.42454  -0.42053  -0.41872  -0.41748
 Alpha  occ. eigenvalues --   -0.41582  -0.41565  -0.41374  -0.41188  -0.40920
 Alpha  occ. eigenvalues --   -0.40893  -0.40889  -0.40639  -0.40617  -0.40614
 Alpha  occ. eigenvalues --   -0.40394  -0.40286  -0.40159  -0.39487  -0.39326
 Alpha  occ. eigenvalues --   -0.38516  -0.38252  -0.37795  -0.37580  -0.37369
 Alpha  occ. eigenvalues --   -0.37312  -0.37165  -0.37108  -0.36733  -0.36687
 Alpha  occ. eigenvalues --   -0.36226  -0.36121  -0.34336  -0.34148  -0.33787
 Alpha  occ. eigenvalues --   -0.33775  -0.33234  -0.33069  -0.31415  -0.31180
 Alpha  occ. eigenvalues --   -0.31085  -0.30869  -0.30062  -0.29840  -0.29508
 Alpha  occ. eigenvalues --   -0.29372  -0.29222  -0.29095  -0.24131  -0.23928
 Alpha  occ. eigenvalues --   -0.21180  -0.21010
 Alpha virt. eigenvalues --   -0.08828  -0.08684  -0.01804  -0.01579  -0.00119
 Alpha virt. eigenvalues --    0.00070   0.02156   0.02322   0.03057   0.03322
 Alpha virt. eigenvalues --    0.04669   0.04823   0.05084   0.05252   0.06136

 Mulliken charges:
               1
     1  Mg   0.838477
     2  C   -0.002939
     3  C   -0.094366
     4  C   -0.045864
     5  C   -0.063975
     6  N   -0.256747
     7  C   -0.052439
     8  C   -0.013955
     9  C   -0.086948
    10  C    0.046221
    11  C    0.104811
    12  C    0.053553
    13  C   -0.071897
    14  H    0.036533
    15  N   -0.433086
    16  C    0.168257
    17  C   -0.177430
    18  C   -0.004199
    19  C    0.148627
    20  C    0.110235
    21  C    0.012083
    22  O   -0.249522
    23  C    0.062641
    24  N   -0.341140
    25  C    0.041192
    26  C   -0.028171
    27  C   -0.024043
    28  C    0.074951
    29  C    0.076128
    30  C    0.035101
    31  C   -0.004480
    32  N   -0.310533
    33  C    0.080544
    34  C   -0.169633
    35  C    0.008509
    36  C    0.083051
    37  C    0.127282
    38  C    0.046274
    39  O   -0.187924
    40  C   -0.005354
    41  C    0.212958
    42  O   -0.256945
    43  O   -0.304894
    44  C    0.157421
    45  H   -0.017682
    46  H   -0.016821
    47  H   -0.041382
    48  H    0.001166
    49  H   -0.004236
    50  H    0.025606
    51  H    0.016445
    52  H    0.016668
    53  H    0.010657
    54  H    0.044315
    55  H    0.018076
    56  H    0.017565
    57  H    0.005830
    58  H    0.026866
    59  H    0.038743
    60  H    0.037459
    61  H    0.035472
    62  H    0.030726
    63  H    0.016597
    64  H    0.009580
    65  H    0.023291
    66  H    0.012540
    67  H    0.004842
    68  H    0.006541
    69  H    0.004736
    70  H    0.008945
    71  H    0.018034
    72  H    0.028859
    73  H    0.047767
    74  H    0.009106
    75  H    0.046183
    76  H    0.035262
    77  H    0.043300
    78  H    0.046263
    79  H    0.054310
    80  Mg   0.838048
    81  C   -0.016750
    82  C   -0.087895
    83  C   -0.045381
    84  C   -0.064323
    85  N   -0.254494
    86  C   -0.049618
    87  C   -0.015094
    88  C   -0.090589
    89  C    0.045819
    90  C    0.114432
    91  C    0.062599
    92  C   -0.077621
    93  H    0.034585
    94  N   -0.423445
    95  C    0.162850
    96  C   -0.174780
    97  C   -0.007888
    98  C    0.152004
    99  C    0.099449
   100  C    0.015498
   101  O   -0.253317
   102  C    0.061251
   103  N   -0.349911
   104  C    0.037514
   105  C   -0.019858
   106  C   -0.034902
   107  C    0.088989
   108  C    0.073630
   109  C    0.034693
   110  C   -0.007612
   111  N   -0.324246
   112  C    0.078586
   113  C   -0.162525
   114  C    0.002590
   115  C    0.096281
   116  C    0.131308
   117  C    0.042887
   118  O   -0.187648
   119  C    0.000703
   120  C    0.211150
   121  O   -0.251182
   122  O   -0.305571
   123  C    0.152138
   124  H   -0.020237
   125  H   -0.015696
   126  H   -0.040111
   127  H   -0.000718
   128  H   -0.004893
   129  H    0.023203
   130  H    0.014800
   131  H    0.015130
   132  H    0.013839
   133  H    0.037699
   134  H    0.020503
   135  H    0.019277
   136  H    0.008301
   137  H    0.025986
   138  H    0.039447
   139  H    0.038212
   140  H    0.036190
   141  H    0.033680
   142  H    0.014160
   143  H    0.012912
   144  H    0.024748
   145  H    0.011920
   146  H    0.005844
   147  H    0.006082
   148  H    0.003816
   149  H    0.010773
   150  H    0.017786
   151  H    0.030094
   152  H    0.045778
   153  H    0.008427
   154  H    0.048636
   155  H    0.035638
   156  H    0.043754
   157  H    0.049177
   158  H    0.053491
 Sum of Mulliken charges =  -0.00000

 Dipole moment (field-independent basis, Debye):
    X=             -3.8512    Y=             -2.1931    Z=             -7.4360  Tot=              8.6566
 Quadrupole moment (field-independent basis, Debye-Ang):
   XX=           -518.0863   YY=           -545.0558   ZZ=           -454.0120
   XY=            -16.5386   XZ=              2.4316   YZ=            -42.3025

 Normal termination of Gaussian 16 at Sat Sep  4 10:28:13 2021.
