 Gaussian 16, Revision A.03,
 Gaussian 16:  ES64L-G16RevA.03 25-Dec-2016

 -----------------------------------
 #p cam-b3lyp/Def2SVP td=(nstates=5)
 -----------------------------------

 --------------------------------
 TDDFT excited states in gaussian
 --------------------------------
 Symbolic Z-matrix:
 Charge =  0 Multiplicity = 1

                         Standard orientation:
 ---------------------------------------------------------------------
 Center     Atomic      Atomic             Coordinates (Angstroms)
 Number     Number       Type             X           Y           Z
 ---------------------------------------------------------------------
      1         12           0       15.790749   -0.665446   -0.403589
      2          6           0       16.008217    2.691121    0.820496
      3          6           0       16.735203   -1.702827    2.706864
      4          6           0       16.046898   -3.599716   -1.578776
      5          6           0       15.979689    0.653504   -3.623889
      6          7           0       16.279460    0.448281    1.446119
      7          6           0       16.266434    1.729596    1.800005
      8          6           0       16.478711    1.950844    3.327540
      9          6           0       17.243511    0.595546    3.674307
     10          6           0       16.694340   -0.283953    2.564885
     11          6           0       18.757729    0.693629    3.519307
     12          6           0       15.124692    2.059966    4.106292
     13          6           0       15.234710    2.597810    5.535968
     14          1           0       14.166932    3.441693    6.050808
     15          7           0       15.835705   -2.413982    0.514808
     16          6           0       16.232791   -2.649841    1.788377
     17          6           0       16.082337   -4.105723    1.999213
     18          6           0       15.746113   -4.723268    0.686322
     19          6           0       15.890408   -3.592652   -0.194736
     20          6           0       16.207302   -4.760085    3.340833
     21          6           0       15.366795   -6.114344    0.287375
     22          8           0       15.342794   -6.488768   -0.934838
     23          6           0       15.106408   -7.064356    1.384060
     24          7           0       16.206098   -1.399048   -2.313287
     25          6           0       16.199680   -2.712795   -2.564308
     26          6           0       16.241006   -2.987237   -4.038389
     27          6           0       16.031142   -1.576666   -4.756720
     28          6           0       15.984798   -0.675492   -3.498147
     29          6           0       17.527833   -3.640031   -4.561788
     30          6           0       14.872579   -1.474253   -5.780275
     31          6           0       13.544941   -1.597857   -5.066695
     32          7           0       15.785505    1.317032   -1.287216
     33          6           0       15.896370    1.633488   -2.648920
     34          6           0       15.953721    3.103542   -2.747508
     35          6           0       15.888502    3.542428   -1.426534
     36          6           0       15.822712    2.417020   -0.556235
     37          6           0       16.111315    3.852837   -3.946739
     38          6           0       15.883922    4.699667   -0.546401
     39          8           0       15.826978    5.918383   -0.716644
     40          6           0       16.084100    4.192155    0.949656
     41          6           0       15.052637    4.877440    1.803926
     42          8           0       13.837716    4.630016    1.662105
     43          8           0       15.665573    5.529802    2.803563
     44          6           0       14.696802    6.207492    3.705989
     45          1           0       17.249670   -2.132449    3.568658
     46          1           0       16.028432   -4.591977   -2.034315
     47          1           0       15.953741    1.139089   -4.601123
     48          1           0       17.104849    2.806752    3.580119
     49          1           0       16.953306    0.202280    4.648394
     50          1           0       19.051681    1.642587    3.070984
     51          1           0       19.038352   -0.136777    2.871102
     52          1           0       19.257111    0.512519    4.471459
     53          1           0       14.747426    1.058533    4.313329
     54          1           0       14.406456    2.662194    3.548813
     55          1           0       16.206221    3.059572    5.714439
     56          1           0       15.206852    1.751470    6.222360
     57          1           0       16.621629   -4.077902    4.082118
     58          1           0       16.957823   -5.544326    3.243913
     59          1           0       15.264508   -5.192872    3.675748
     60          1           0       15.996470   -7.146137    2.008280
     61          1           0       14.762461   -7.983254    0.910585
     62          1           0       14.320376   -6.659881    2.022419
     63          1           0       15.437835   -3.661292   -4.333335
     64          1           0       16.912222   -1.269850   -5.320844
     65          1           0       17.359538   -4.581172   -5.085845
     66          1           0       18.203229   -3.777687   -3.717879
     67          1           0       18.126540   -3.008632   -5.217761
     68          1           0       14.927927   -2.291477   -6.498625
     69          1           0       14.874851   -0.539307   -6.340741
     70          1           0       13.413376   -2.676006   -4.982325
     71          1           0       12.748841   -1.153008   -5.664646
     72          1           0       13.597966   -1.195883   -4.054722
     73          1           0       15.411369    4.685678   -3.880251
     74          1           0       15.914679    3.239345   -4.825696
     75          1           0       17.158476    4.144205   -3.866655
     76          1           0       17.099510    4.461369    1.238773
     77          1           0       14.974378    7.261010    3.741836
     78          1           0       14.703955    5.650201    4.642889
     79          1           0       13.669895    6.277393    3.345553
     80         12           0      -15.959725   -0.763345    0.272240
     81          6           0      -15.798512    2.425546   -1.366060
     82          6           0      -15.027046    0.830352    3.140139
     83          6           0      -15.654435   -3.611070    1.637779
     84          6           0      -15.754139   -2.237074   -2.879204
     85          7           0      -15.501578    1.356839    0.704868
     86          6           0      -15.533652    2.488816    0.017883
     87          6           0      -15.346087    3.768055    0.876900
     88          6           0      -14.557922    3.113779    2.113675
     89          6           0      -15.083221    1.683463    2.009141
     90          6           0      -13.051029    3.084574    1.919352
     91          6           0      -16.713680    4.388903    1.331040
     92          6           0      -16.617931    5.802959    1.908148
     93          1           0      -17.708369    6.737716    1.644293
     94          7           0      -15.901429   -1.268088    2.190677
     95          6           0      -15.519238   -0.490561    3.225409
     96          6           0      -15.635837   -1.332677    4.425996
     97          6           0      -15.960267   -2.720016    3.996149
     98          6           0      -15.827904   -2.588468    2.559044
     99          6           0      -15.522452   -0.784237    5.818755
    100          6           0      -16.316547   -3.962971    4.753988
    101          8           0      -16.325562   -5.114916    4.192037
    102          6           0      -16.563505   -3.804329    6.194585
    103          7           0      -15.524140   -2.650302   -0.484082
    104          6           0      -15.503955   -3.728978    0.318388
    105          6           0      -15.442387   -5.005831   -0.485508
    106          6           0      -15.670377   -4.567334   -2.006465
    107          6           0      -15.738349   -3.035575   -1.820762
    108          6           0      -14.140868   -5.799639   -0.374613
    109          6           0      -16.821643   -5.270341   -2.776571
    110          6           0      -18.156008   -4.863965   -2.193697
    111          7           0      -15.989732   -0.070180   -1.773901
    112          6           0      -15.864150   -0.853829   -2.941893
    113          6           0      -15.827180    0.076768   -4.088653
    114          6           0      -15.911314    1.348467   -3.501975
    115          6           0      -15.974478    1.220374   -2.088077
    116          6           0      -15.679655   -0.292672   -5.455355
    117          6           0      -15.950345    2.770542   -3.756649
    118          8           0      -16.015915    3.470777   -4.766162
    119          6           0      -15.751580    3.536442   -2.378147
    120          6           0      -16.800411    4.610875   -2.288301
    121          8           0      -18.005281    4.312973   -2.209772
    122          8           0      -16.199074    5.798303   -2.091399
    123          6           0      -17.198820    6.894176   -1.984671
    124          1           0      -14.520652    1.189698    4.036421
    125          1           0      -15.654403   -4.622564    2.050525
    126          1           0      -15.790020   -2.622195   -3.900506
    127          1           0      -14.740729    4.539658    0.416524
    128          1           0      -14.859629    3.562839    3.056376
    129          1           0      -12.766521    3.402202    0.927233
    130          1           0      -12.752495    2.058212    2.088182
    131          1           0      -12.558972    3.673636    2.698596
    132          1           0      -17.075833    3.849136    2.215483
    133          1           0      -17.424406    4.373813    0.527763
    134          1           0      -15.649764    6.271278    1.693013
    135          1           0      -16.646650    5.735486    2.998399
    136          1           0      -15.117602    0.235323    5.817867
    137          1           0      -14.760931   -1.378416    6.335377
    138          1           0      -16.459873   -0.850408    6.375111
    139          1           0      -15.679794   -3.383482    6.668282
    140          1           0      -16.890811   -4.785216    6.544731
    141          1           0      -17.371322   -3.077088    6.333061
    142          1           0      -16.233597   -5.685313   -0.193300
    143          1           0      -14.784395   -4.769762   -2.626059
    144          1           0      -14.292283   -6.840340   -0.030976
    145          1           0      -13.474796   -5.271341    0.294549
    146          1           0      -13.553674   -5.853960   -1.289741
    147          1           0      -16.748996   -6.354389   -2.659437
    148          1           0      -16.820442   -5.060641   -3.840999
    149          1           0      -18.267256   -5.537555   -1.338720
    150          1           0      -18.952586   -5.012996   -2.919855
    151          1           0      -18.119856   -3.839986   -1.804094
    152          1           0      -16.384838    0.305165   -6.017336
    153          1           0      -15.854667   -1.356628   -5.600729
    154          1           0      -14.632830   -0.022825   -5.618433
    155          1           0      -14.741841    3.948751   -2.375094
    156          1           0      -16.933301    7.643255   -2.737045
    157          1           0      -17.179037    7.214546   -0.926032
    158          1           0      -18.221613    6.668372   -2.262803
 ---------------------------------------------------------------------

 SCF Done:  E(RCAM-B3LYP) =  -4069.81176763     A.U. after   19 cycles

 Excitation energies and oscillator strengths:

 Excited State   1:      Singlet-A      1.6754 eV  740.01 nm  f=0.2995  <S**2>=0.000
     310 -> 316        0.17102
     311 -> 314       -0.11672
     312 -> 313        0.67605
     310 <- 316        0.10309
 This state for optimization and/or second-order correction.
 Total Energy, E(TD-HF/TD-DFT) =  -4069.75019612
 Copying the excited state density for this state as the 1-particle RhoCI density.

 Excited State   2:      Singlet-A      1.6800 eV  738.01 nm  f=0.4773  <S**2>=0.000
     309 -> 315        0.17303
     311 -> 314        0.67569
     312 -> 313        0.11667
     309 <- 315        0.10361

 Excited State   3:      Singlet-A      2.1861 eV  567.16 nm  f=0.0987  <S**2>=0.000
     310 -> 313        0.64227
     312 -> 316       -0.27299

 Excited State   4:      Singlet-A      2.1926 eV  565.48 nm  f=0.1019  <S**2>=0.000
     309 -> 314        0.64049
     311 -> 315       -0.27823

 Excited State   5:      Singlet-A      3.0660 eV  404.39 nm  f=0.0000  <S**2>=0.000
     311 -> 313        0.70711

 The electronic state is 1-A.
 Alpha  occ. eigenvalues --  -46.87796 -46.87660 -19.26344 -19.26288 -19.19157
 Alpha  occ. eigenvalues --  -19.19023 -19.18814 -19.18716 -19.18170 -19.18049
 Alpha  occ. eigenvalues --  -14.42496 -14.42450 -14.41449 -14.41359 -14.39403
 Alpha  occ. eigenvalues --  -14.39352 -14.38599 -14.38587 -10.39087 -10.39083
 Alpha  occ. eigenvalues --  -10.35447 -10.35393 -10.34390 -10.34226 -10.31750
 Alpha  occ. eigenvalues --  -10.31685 -10.31405 -10.31307 -10.31022 -10.30909
 Alpha  occ. eigenvalues --  -10.30570 -10.30507 -10.30398 -10.30360 -10.30206
 Alpha  occ. eigenvalues --  -10.30141 -10.29920 -10.29895 -10.29630 -10.29437
 Alpha  occ. eigenvalues --  -10.29401 -10.29254 -10.28751 -10.28715 -10.28649
 Alpha  occ. eigenvalues --  -10.28543 -10.28404 -10.28365 -10.28136 -10.28118
 Alpha  occ. eigenvalues --  -10.28000 -10.27793 -10.27727 -10.27668 -10.27584
 Alpha  occ. eigenvalues --  -10.27519 -10.27499 -10.27483 -10.27481 -10.27468
 Alpha  occ. eigenvalues --  -10.27465 -10.27447 -10.27404 -10.27377 -10.27160
 Alpha  occ. eigenvalues --  -10.27047 -10.26708 -10.26689 -10.26418 -10.26409
 Alpha  occ. eigenvalues --  -10.26236 -10.26180 -10.26140 -10.26019 -10.26019
 Alpha  occ. eigenvalues --  -10.25934 -10.25850 -10.25842 -10.25433 -10.25400
 Alpha  occ. eigenvalues --  -10.24872 -10.24833 -10.24787 -10.24734 -10.24690
 Alpha  occ. eigenvalues --  -10.24684  -3.16539  -3.16410  -1.91421  -1.91292
 Alpha  occ. eigenvalues --   -1.91007  -1.90881  -1.90849  -1.90718  -1.16639
 Alpha  occ. eigenvalues --   -1.16637  -1.08656  -1.08628  -1.07215  -1.06968
 Alpha  occ. eigenvalues --   -1.06941  -1.06646  -1.04581  -1.04494  -1.03760
 Alpha  occ. eigenvalues --   -1.03663  -1.03233  -1.03039  -1.02411  -1.02111
 Alpha  occ. eigenvalues --   -0.91986  -0.91973  -0.89518  -0.89495  -0.89189
 Alpha  occ. eigenvalues --   -0.89148  -0.88285  -0.88221  -0.87870  -0.87793
 Alpha  occ. eigenvalues --   -0.87683  -0.87673  -0.87273  -0.87121  -0.84997
 Alpha  occ. eigenvalues --   -0.84983  -0.83935  -0.83877  -0.82966  -0.82933
 Alpha  occ. eigenvalues --   -0.82651  -0.82649  -0.81594  -0.81587  -0.80597
 Alpha  occ. eigenvalues --   -0.80441  -0.78797  -0.78636  -0.77218  -0.77143
 Alpha  occ. eigenvalues --   -0.76935  -0.76896  -0.75924  -0.75836  -0.74897
 Alpha  occ. eigenvalues --   -0.74803  -0.72774  -0.72698  -0.71672  -0.71580
 Alpha  occ. eigenvalues --   -0.69905  -0.69759  -0.68874  -0.68825  -0.67641
 Alpha  occ. eigenvalues --   -0.67601  -0.67221  -0.67198  -0.65288  -0.65269
 Alpha  occ. eigenvalues --   -0.64854  -0.64769  -0.64652  -0.64621  -0.64268
 Alpha  occ. eigenvalues --   -0.64204  -0.62299  -0.62276  -0.60441  -0.60340
 Alpha  occ. eigenvalues --   -0.59805  -0.59794  -0.58992  -0.58987  -0.58504
 Alpha  occ. eigenvalues --   -0.58425  -0.57586  -0.57552  -0.57308  -0.57237
 Alpha  occ. eigenvalues --   -0.56310  -0.56203  -0.55981  -0.55883  -0.55520
 Alpha  occ. eigenvalues --   -0.55451  -0.55339  -0.55247  -0.54524  -0.54487
 Alpha  occ. eigenvalues --   -0.53909  -0.53896  -0.53299  -0.53227  -0.53223
 Alpha  occ. eigenvalues --   -0.53140  -0.52916  -0.52900  -0.52756  -0.52668
 Alpha  occ. eigenvalues --   -0.52436  -0.52403  -0.51914  -0.51884  -0.51657
 Alpha  occ. eigenvalues --   -0.51618  -0.51200  -0.51196  -0.50572  -0.50476
 Alpha  occ. eigenvalues --   -0.50030  -0.49979  -0.49918  -0.49868  -0.49515
 Alpha  occ. eigenvalues --   -0.49487  -0.49215  -0.49201  -0.49102  -0.49097
 Alpha  occ. eigenvalues --   -0.48594  -0.48556  -0.48460  -0.48446  -0.48376
 Alpha  occ. eigenvalues --   -0.48339  -0.47695  -0.47594  -0.47297  -0.47118
 Alpha  occ. eigenvalues --   -0.46797  -0.46708  -0.46557  -0.46552  -0.46359
 Alpha  occ. eigenvalues --   -0.46270  -0.46162  -0.46085  -0.45823  -0.45820
 Alpha  occ. eigenvalues --   -0.45209  -0.45200  -0.44578  -0.44512  -0.44507
 Alpha  occ. eigenvalues --   -0.44474  -0.44144  -0.44126  -0.44089  -0.44078
 Alpha  occ. eigenvalues --   -0.44020  -0.43938  -0.43551  -0.43496  -0.43386
 Alpha  occ. eigenvalues --   -0.43384  -0.43027  -0.42928  -0.42899  -0.42700
 Alpha  occ. eigenvalues --   -0.42655  -0.42554  -0.42009  -0.41964  -0.41704
 Alpha  occ. eigenvalues --   -0.41668  -0.41535  -0.41457  -0.41141  -0.40988
 Alpha  occ. eigenvalues --   -0.40870  -0.40823  -0.40722  -0.40697  -0.40570
 Alpha  occ. eigenvalues --   -0.40494  -0.40236  -0.40224  -0.39439  -0.39427
 Alpha  occ. eigenvalues --   -0.38468  -0.38351  -0.37750  -0.37651  -0.37319
 Alpha  occ. eigenvalues --   -0.37266  -0.37265  -0.37198  -0.36768  -0.36715
 Alpha  occ. eigenvalues --   -0.36216  -0.36193  -0.34286  -0.34253  -0.33859
 Alpha  occ. eigenvalues --   -0.33773  -0.33186  -0.33175  -0.31344  -0.31275
 Alpha  occ. eigenvalues --   -0.31035  -0.30972  -0.30030  -0.29953  -0.29449
 Alpha  occ. eigenvalues --   -0.29327  -0.29322  -0.29211  -0.24080  -0.24036
 Alpha  occ. eigenvalues --   -0.21127  -0.21116
 Alpha virt. eigenvalues --   -0.08792  -0.08774  -0.01749  -0.01684  -0.00058
 Alpha virt. eigenvalues --   -0.00029   0.02200   0.02208   0.03124   0.03227
 Alpha virt. eigenvalues --    0.04717   0.04732   0.05095   0.05169   0.06175

 Mulliken charges:
               1
     1  Mg   0.838786
     2  C   -0.002978
     3  C   -0.094123
     4  C   -0.045869
     5  C   -0.063946
     6  N   -0.256780
     7  C   -0.052472
     8  C   -0.014005
     9  C   -0.086994
    10  C    0.046304
    11  C    0.104810
    12  C    0.053457
    13  C   -0.071776
    14  H    0.036067
    15  N   -0.433147
    16  C    0.168431
    17  C   -0.177170
    18  C   -0.003998
    19  C    0.148718
    20  C    0.110183
    21  C    0.012290
    22  O   -0.249605
    23  C    0.062475
    24  N   -0.341154
    25  C    0.041246
    26  C   -0.028167
    27  C   -0.023989
    28  C    0.074849
    29  C    0.076168
    30  C    0.035116
    31  C   -0.004504
    32  N   -0.310480
    33  C    0.080411
    34  C   -0.169707
    35  C    0.008354
    36  C    0.082975
    37  C    0.127313
    38  C    0.046117
    39  O   -0.188456
    40  C   -0.005331
    41  C    0.212858
    42  O   -0.257113
    43  O   -0.304787
    44  C    0.157707
    45  H   -0.017608
    46  H   -0.016820
    47  H   -0.041471
    48  H    0.000926
    49  H   -0.004048
    50  H    0.025474
    51  H    0.016459
    52  H    0.016652
    53  H    0.011205
    54  H    0.044111
    55  H    0.017873
    56  H    0.017946
    57  H    0.005864
    58  H    0.026833
    59  H    0.039549
    60  H    0.037347
    61  H    0.035669
    62  H    0.031497
    63  H    0.016567
    64  H    0.009470
    65  H    0.023228
    66  H    0.012539
    67  H    0.004764
    68  H    0.006390
    69  H    0.004746
    70  H    0.008788
    71  H    0.018170
    72  H    0.028958
    73  H    0.047569
    74  H    0.009132
    75  H    0.046009
    76  H    0.035147
    77  H    0.042932
    78  H    0.046388
    79  H    0.053661
    80  Mg   0.837908
    81  C   -0.016820
    82  C   -0.087786
    83  C   -0.045535
    84  C   -0.064877
    85  N   -0.254580
    86  C   -0.049817
    87  C   -0.015102
    88  C   -0.090525
    89  C    0.045774
    90  C    0.114369
    91  C    0.062533
    92  C   -0.077923
    93  H    0.034915
    94  N   -0.423522
    95  C    0.162922
    96  C   -0.174613
    97  C   -0.007822
    98  C    0.152120
    99  C    0.099362
   100  C    0.015562
   101  O   -0.253212
   102  C    0.061202
   103  N   -0.350069
   104  C    0.037538
   105  C   -0.019843
   106  C   -0.034819
   107  C    0.088934
   108  C    0.073654
   109  C    0.034737
   110  C   -0.007678
   111  N   -0.324121
   112  C    0.078453
   113  C   -0.163133
   114  C    0.002275
   115  C    0.096189
   116  C    0.131487
   117  C    0.042390
   118  O   -0.187829
   119  C    0.000930
   120  C    0.211266
   121  O   -0.251051
   122  O   -0.305603
   123  C    0.152024
   124  H   -0.019631
   125  H   -0.015588
   126  H   -0.040454
   127  H   -0.000588
   128  H   -0.004311
   129  H    0.022512
   130  H    0.014424
   131  H    0.016342
   132  H    0.013903
   133  H    0.037666
   134  H    0.020843
   135  H    0.019595
   136  H    0.008785
   137  H    0.026137
   138  H    0.039787
   139  H    0.038249
   140  H    0.036372
   141  H    0.033902
   142  H    0.014383
   143  H    0.012438
   144  H    0.025118
   145  H    0.011654
   146  H    0.005693
   147  H    0.006252
   148  H    0.003657
   149  H    0.010923
   150  H    0.017929
   151  H    0.030108
   152  H    0.046016
   153  H    0.008501
   154  H    0.046993
   155  H    0.035095
   156  H    0.043955
   157  H    0.049506
   158  H    0.053568
 Sum of Mulliken charges =  -0.00000

 Dipole moment (field-independent basis, Debye):
    X=              4.1570    Y=             -2.2625    Z=              6.9704  Tot=              8.4254
 Quadrupole moment (field-independent basis, Debye-Ang):
   XX=           -516.4854   YY=           -534.9737   ZZ=           -463.9922
   XY=            -45.7194   XZ=            -13.3333   YZ=             33.1863

 Normal termination of Gaussian 16 at Sun Sep 12 20:49:46 2021.
