 Gaussian 16, Revision A.03,
 Gaussian 16:  ES64L-G16RevA.03 25-Dec-2016

 -----------------------------------
 #p cam-b3lyp/Def2SVP td=(nstates=5)
 -----------------------------------

 --------------------------------
 TDDFT excited states in gaussian
 --------------------------------
 Symbolic Z-matrix:
 Charge =  0 Multiplicity = 1

                         Standard orientation:
 ---------------------------------------------------------------------
 Center     Atomic      Atomic             Coordinates (Angstroms)
 Number     Number       Type             X           Y           Z
 ---------------------------------------------------------------------
      1         12           0       -5.288614   -0.467251    0.073684
      2          6           0       -5.278682    3.107126    0.263287
      3          6           0       -6.138787   -0.141945   -3.214849
      4          6           0       -5.747383   -3.604105   -0.005657
      5          6           0       -5.560000   -0.503544    3.547974
      6          7           0       -5.633786    1.310308   -1.199810
      7          6           0       -5.539452    2.624197   -1.021011
      8          6           0       -5.669018    3.438482   -2.342952
      9          6           0       -6.484527    2.379424   -3.212056
     10          6           0       -6.032765    1.102501   -2.525540
     11          6           0       -7.997401    2.507013   -3.065646
     12          6           0       -4.276477    3.755449   -2.984896
     13          6           0       -4.292542    4.815490   -4.090070
     14          1           0       -3.160622    5.722359   -4.207085
     15          7           0       -5.379325   -1.710433   -1.458999
     16          6           0       -5.728218   -1.403146   -2.731452
     17          6           0       -5.642049   -2.667040   -3.494228
     18          6           0       -5.398922   -3.769243   -2.522563
     19          6           0       -5.526572   -3.066480   -1.271480
     20          6           0       -5.737495   -2.734994   -4.987553
     21          6           0       -5.109494   -5.226957   -2.694126
     22          8           0       -5.161324   -6.050254   -1.717361
     23          6           0       -4.846858   -5.687109   -4.069743
     24          7           0       -5.828900   -1.860684    1.531103
     25          6           0       -5.900698   -3.165379    1.245446
     26          6           0       -6.024344   -3.991154    2.491539
     27          6           0       -5.776931   -2.990693    3.711218
     28          6           0       -5.626556   -1.674144    2.909746
     29          6           0       -7.365516   -4.711739    2.686544
     30          6           0       -4.663500   -3.372077    4.718808
     31          6           0       -3.312093   -3.292546    4.044664
     32          7           0       -5.224057    1.006879    1.665482
     33          6           0       -5.381929    0.772045    3.039018
     34          6           0       -5.369279    2.086814    3.706319
     35          6           0       -5.220585    3.002132    2.666160
     36          6           0       -5.171491    2.305032    1.425220
     37          6           0       -5.544297    2.315925    5.099628
     38          6           0       -5.116499    4.408468    2.312267
     39          8           0       -5.005883    5.457059    2.949225
     40          6           0       -5.272365    4.540608    0.733004
     41          6           0       -4.168928    5.436976    0.240805
     42          8           0       -2.976003    5.075601    0.301666
     43          8           0       -4.700910    6.466570   -0.435562
     44          6           0       -3.658163    7.378862   -0.976445
     45          1           0       -6.633736   -0.165976   -4.187674
     46          1           0       -5.800387   -4.694420    0.023351
     47          1           0       -5.554947   -0.441614    4.637741
     48          1           0       -6.238589    4.363634   -2.252912
     49          1           0       -6.169646    2.380522   -4.255402
     50          1           0       -8.263438    3.221940   -2.287171
     51          1           0       -8.349544    1.509330   -2.802746
     52          1           0       -8.460515    2.745491   -4.023472
     53          1           0       -3.941196    2.892580   -3.560313
     54          1           0       -3.555354    4.043751   -2.219266
     55          1           0       -5.230073    5.372196   -4.094778
     56          1           0       -4.275705    4.305128   -5.053111
     57          1           0       -6.081838   -1.791936   -5.410181
     58          1           0       -6.530463   -3.444230   -5.223975
     59          1           0       -4.803282   -3.062457   -5.444002
     60          1           0       -5.709940   -5.460364   -4.696022
     61          1           0       -4.572268   -6.738186   -3.987961
     62          1           0       -4.012529   -5.117073   -4.479503
     63          1           0       -5.270920   -4.777398    2.515990
     64          1           0       -6.666611   -2.872521    4.330233
     65          1           0       -7.269641   -5.791632    2.802059
     66          1           0       -8.007059   -4.464289    1.841273
     67          1           0       -7.961322   -4.349805    3.524061
     68          1           0       -4.793495   -4.399695    5.056519
     69          1           0       -4.644470   -2.732780    5.601524
     70          1           0       -3.231518   -4.257891    3.546217
     71          1           0       -2.523142   -3.169606    4.787397
     72          1           0       -3.297596   -2.524297    3.271315
     73          1           0       -4.800738    3.061157    5.381975
     74          1           0       -5.420052    1.396201    5.670831
     75          1           0       -6.570503    2.682625    5.116629
     76          1           0       -6.258300    4.966660    0.549882
     77          1           0       -3.880063    8.378075   -0.601522
     78          1           0       -3.649973    7.234107   -2.056901
     79          1           0       -2.646899    7.235502   -0.594173
     80         12           0        5.284288   -1.095856    0.090200
     81          6           0        5.618268    2.472486    0.275889
     82          6           0        4.741991   -0.721291   -3.256471
     83          6           0        4.540369   -4.177859   -0.033370
     84          6           0        4.716839   -1.082519    3.528739
     85          7           0        5.214355    0.694947   -1.206092
     86          6           0        5.417109    1.992642   -1.035115
     87          6           0        5.483413    2.812238   -2.351704
     88          6           0        4.638148    1.823434   -3.293331
     89          6           0        4.904753    0.506705   -2.566809
     90          6           0        3.142935    2.092864   -3.260422
     91          6           0        6.952736    2.986434   -2.873984
     92          6           0        7.122767    4.031082   -3.979222
     93          1           0        8.348196    4.824919   -4.004078
     94          7           0        5.207242   -2.337406   -1.456144
     95          6           0        5.001551   -2.013776   -2.750071
     96          6           0        5.013221   -3.285427   -3.489603
     97          6           0        5.078075   -4.399833   -2.505422
     98          6           0        4.919967   -3.666201   -1.265709
     99          6           0        5.045199   -3.354612   -4.988809
    100          6           0        5.240949   -5.882074   -2.655935
    101          8           0        5.031294   -6.685131   -1.679218
    102          6           0        5.562057   -6.372761   -4.004121
    103          7           0        4.503315   -2.415208    1.494384
    104          6           0        4.325512   -3.714644    1.198132
    105          6           0        4.016321   -4.519433    2.437930
    106          6           0        4.262957   -3.526620    3.667189
    107          6           0        4.600705   -2.237101    2.887157
    108          6           0        2.602063   -5.093015    2.523174
    109          6           0        5.247855   -4.002882    4.769837
    110          6           0        6.651970   -4.070087    4.213663
    111          7           0        5.361508    0.372036    1.673676
    112          6           0        5.061616    0.170676    3.038812
    113          6           0        5.145489    1.488127    3.701918
    114          6           0        5.468376    2.375229    2.664000
    115          6           0        5.558150    1.664209    1.436853
    116          6           0        4.888490    1.744560    5.078254
    117          6           0        5.743237    3.753136    2.325597
    118          8           0        5.893124    4.792011    2.967484
    119          6           0        5.728194    3.897454    0.742773
    120          6           0        6.949191    4.675896    0.335714
    121          8           0        8.086589    4.203723    0.508906
    122          8           0        6.569078    5.746892   -0.384609
    123          6           0        7.746050    6.544600   -0.820744
    124          1           0        4.337026   -0.698201   -4.268578
    125          1           0        4.380300   -5.258034   -0.000368
    126          1           0        4.649800   -1.009727    4.616339
    127          1           0        5.004487    3.783013   -2.307082
    128          1           0        5.045759    1.792548   -4.300434
    129          1           0        2.882796    2.830688   -2.516041
    130          1           0        2.677885    1.143183   -3.030471
    131          1           0        2.787607    2.368894   -4.257358
    132          1           0        7.247177    2.082636   -3.422802
    133          1           0        7.621520    3.204913   -2.064280
    134          1           0        6.242990    4.679320   -4.072585
    135          1           0        7.177724    3.513792   -4.940164
    136          1           0        4.822581   -2.380385   -5.441278
    137          1           0        4.211210   -3.994286   -5.297252
    138          1           0        5.976110   -3.778766   -5.371131
    139          1           0        4.781422   -6.065164   -4.695820
    140          1           0        5.727289   -7.446157   -3.892764
    141          1           0        6.487602   -5.892064   -4.340145
    142          1           0        4.688191   -5.364153    2.528194
    143          1           0        3.334115   -3.324892    4.220708
    144          1           0        2.583615   -6.192351    2.646429
    145          1           0        2.061086   -4.801058    1.632865
    146          1           0        1.982504   -4.678164    3.316426
    147          1           0        4.993397   -5.015171    5.093374
    148          1           0        5.245441   -3.372436    5.652751
    149          1           0        6.675299   -5.046092    3.719746
    150          1           0        7.384856   -4.016224    5.016172
    151          1           0        6.806776   -3.306591    3.442461
    152          1           0        5.666046    2.414378    5.420650
    153          1           0        4.872062    0.823943    5.657894
    154          1           0        3.898846    2.204073    5.009552
    155          1           0        4.805488    4.410722    0.469367
    156          1           0        7.587493    7.567855   -0.466498
    157          1           0        7.819066    6.395841   -1.914496
    158          1           0        8.704115    6.311229   -0.371193
 ---------------------------------------------------------------------

 SCF Done:  E(RCAM-B3LYP) =  -4069.81142081     A.U. after   19 cycles

 Excitation energies and oscillator strengths:

 Excited State   1:      Singlet-A      1.6570 eV  748.26 nm  f=0.0026  <S**2>=0.000
     309 -> 315        0.11325
     310 -> 316       -0.12562
     311 -> 313        0.45829
     312 -> 314        0.51199
 This state for optimization and/or second-order correction.
 Total Energy, E(TD-HF/TD-DFT) =  -4069.75052866
 Copying the excited state density for this state as the 1-particle RhoCI density.

 Excited State   2:      Singlet-A      1.6969 eV  730.67 nm  f=0.7182  <S**2>=0.000
     309 -> 315        0.13426
     310 -> 316        0.11931
     311 -> 313        0.51007
     312 -> 314       -0.45664

 Excited State   3:      Singlet-A      2.1827 eV  568.02 nm  f=0.0229  <S**2>=0.000
     309 -> 313       -0.27337
     310 -> 314        0.58308
     311 -> 315        0.11403
     312 -> 316        0.24495

 Excited State   4:      Singlet-A      2.1947 eV  564.92 nm  f=0.1583  <S**2>=0.000
     309 -> 313        0.57943
     310 -> 314        0.27015
     311 -> 315       -0.25419
     312 -> 316        0.11964

 Excited State   5:      Singlet-A      2.4906 eV  497.82 nm  f=0.0000  <S**2>=0.000
     312 -> 313        0.70710

 The electronic state is 1-A.
 Alpha  occ. eigenvalues --  -46.87862 -46.87490 -19.26329 -19.26179 -19.19066
 Alpha  occ. eigenvalues --  -19.18989 -19.18862 -19.18578 -19.18208 -19.17845
 Alpha  occ. eigenvalues --  -14.42520 -14.42329 -14.41515 -14.41191 -14.39467
 Alpha  occ. eigenvalues --  -14.39186 -14.38648 -14.38421 -10.39127 -10.38914
 Alpha  occ. eigenvalues --  -10.35496 -10.35260 -10.34429 -10.34020 -10.31721
 Alpha  occ. eigenvalues --  -10.31609 -10.31474 -10.31131 -10.30982 -10.30863
 Alpha  occ. eigenvalues --  -10.30634 -10.30565 -10.30274 -10.30222 -10.30183
 Alpha  occ. eigenvalues --  -10.29991 -10.29979 -10.29718 -10.29690 -10.29318
 Alpha  occ. eigenvalues --  -10.29278 -10.29232 -10.28842 -10.28681 -10.28558
 Alpha  occ. eigenvalues --  -10.28551 -10.28427 -10.28231 -10.28203 -10.27976
 Alpha  occ. eigenvalues --  -10.27850 -10.27826 -10.27797 -10.27645 -10.27570
 Alpha  occ. eigenvalues --  -10.27569 -10.27510 -10.27509 -10.27467 -10.27379
 Alpha  occ. eigenvalues --  -10.27373 -10.27309 -10.27305 -10.27224 -10.27208
 Alpha  occ. eigenvalues --  -10.26836 -10.26831 -10.26563 -10.26464 -10.26321
 Alpha  occ. eigenvalues --  -10.26309 -10.26270 -10.26085 -10.26021 -10.25880
 Alpha  occ. eigenvalues --  -10.25828 -10.25771 -10.25633 -10.25485 -10.25238
 Alpha  occ. eigenvalues --  -10.24887 -10.24848 -10.24796 -10.24688 -10.24618
 Alpha  occ. eigenvalues --  -10.24520  -3.16605  -3.16240  -1.91486  -1.91122
 Alpha  occ. eigenvalues --   -1.91073  -1.90915  -1.90711  -1.90548  -1.16678
 Alpha  occ. eigenvalues --   -1.16472  -1.08664  -1.08447  -1.07262  -1.06833
 Alpha  occ. eigenvalues --   -1.06772  -1.06687  -1.04650  -1.04325  -1.03826
 Alpha  occ. eigenvalues --   -1.03495  -1.03296  -1.02870  -1.02474  -1.01939
 Alpha  occ. eigenvalues --   -0.92031  -0.91804  -0.89589  -0.89339  -0.89276
 Alpha  occ. eigenvalues --   -0.88990  -0.88354  -0.88068  -0.87924  -0.87747
 Alpha  occ. eigenvalues --   -0.87605  -0.87523  -0.87339  -0.86984  -0.85066
 Alpha  occ. eigenvalues --   -0.84844  -0.84005  -0.83726  -0.83030  -0.82806
 Alpha  occ. eigenvalues --   -0.82723  -0.82501  -0.81643  -0.81428  -0.80659
 Alpha  occ. eigenvalues --   -0.80280  -0.78861  -0.78482  -0.77293  -0.77011
 Alpha  occ. eigenvalues --   -0.76990  -0.76742  -0.75991  -0.75671  -0.74961
 Alpha  occ. eigenvalues --   -0.74644  -0.72837  -0.72528  -0.71736  -0.71412
 Alpha  occ. eigenvalues --   -0.69985  -0.69619  -0.68951  -0.68673  -0.67702
 Alpha  occ. eigenvalues --   -0.67439  -0.67310  -0.67062  -0.65367  -0.65110
 Alpha  occ. eigenvalues --   -0.64917  -0.64690  -0.64606  -0.64493  -0.64337
 Alpha  occ. eigenvalues --   -0.64050  -0.62352  -0.62112  -0.60505  -0.60193
 Alpha  occ. eigenvalues --   -0.59882  -0.59631  -0.59051  -0.58825  -0.58565
 Alpha  occ. eigenvalues --   -0.58257  -0.57636  -0.57369  -0.57363  -0.57076
 Alpha  occ. eigenvalues --   -0.56371  -0.56041  -0.56038  -0.55728  -0.55581
 Alpha  occ. eigenvalues --   -0.55400  -0.55300  -0.55087  -0.54583  -0.54331
 Alpha  occ. eigenvalues --   -0.53982  -0.53756  -0.53361  -0.53294  -0.53073
 Alpha  occ. eigenvalues --   -0.52987  -0.52978  -0.52829  -0.52746  -0.52540
 Alpha  occ. eigenvalues --   -0.52517  -0.52267  -0.51961  -0.51697  -0.51681
 Alpha  occ. eigenvalues --   -0.51511  -0.51258  -0.51031  -0.50643  -0.50359
 Alpha  occ. eigenvalues --   -0.50106  -0.49986  -0.49831  -0.49720  -0.49585
 Alpha  occ. eigenvalues --   -0.49339  -0.49274  -0.49169  -0.49036  -0.48929
 Alpha  occ. eigenvalues --   -0.48652  -0.48520  -0.48498  -0.48389  -0.48219
 Alpha  occ. eigenvalues --   -0.48190  -0.47765  -0.47446  -0.47360  -0.46973
 Alpha  occ. eigenvalues --   -0.46868  -0.46639  -0.46552  -0.46423  -0.46404
 Alpha  occ. eigenvalues --   -0.46220  -0.46114  -0.45913  -0.45876  -0.45642
 Alpha  occ. eigenvalues --   -0.45265  -0.45049  -0.44633  -0.44583  -0.44349
 Alpha  occ. eigenvalues --   -0.44319  -0.44214  -0.44166  -0.44076  -0.43962
 Alpha  occ. eigenvalues --   -0.43932  -0.43783  -0.43550  -0.43460  -0.43391
 Alpha  occ. eigenvalues --   -0.43222  -0.43089  -0.42766  -0.42759  -0.42725
 Alpha  occ. eigenvalues --   -0.42717  -0.42408  -0.42086  -0.41817  -0.41765
 Alpha  occ. eigenvalues --   -0.41620  -0.41490  -0.41309  -0.41208  -0.40954
 Alpha  occ. eigenvalues --   -0.40888  -0.40822  -0.40642  -0.40588  -0.40555
 Alpha  occ. eigenvalues --   -0.40340  -0.40340  -0.40093  -0.39524  -0.39290
 Alpha  occ. eigenvalues --   -0.38542  -0.38200  -0.37848  -0.37513  -0.37390
 Alpha  occ. eigenvalues --   -0.37345  -0.37111  -0.37040  -0.36767  -0.36606
 Alpha  occ. eigenvalues --   -0.36255  -0.36058  -0.34350  -0.34083  -0.33819
 Alpha  occ. eigenvalues --   -0.33690  -0.33248  -0.33007  -0.31392  -0.31136
 Alpha  occ. eigenvalues --   -0.31098  -0.30804  -0.30067  -0.29747  -0.29508
 Alpha  occ. eigenvalues --   -0.29376  -0.29167  -0.29024  -0.24145  -0.23862
 Alpha  occ. eigenvalues --   -0.21192  -0.20949
 Alpha virt. eigenvalues --   -0.08835  -0.08622  -0.01813  -0.01519  -0.00117
 Alpha virt. eigenvalues --    0.00126   0.02150   0.02397   0.03038   0.03384
 Alpha virt. eigenvalues --    0.04636   0.04892   0.05050   0.05343   0.06070

 Mulliken charges:
               1
     1  Mg   0.838663
     2  C   -0.003052
     3  C   -0.094661
     4  C   -0.045637
     5  C   -0.063968
     6  N   -0.256706
     7  C   -0.052648
     8  C   -0.013914
     9  C   -0.086919
    10  C    0.046144
    11  C    0.104807
    12  C    0.053711
    13  C   -0.071438
    14  H    0.035193
    15  N   -0.433150
    16  C    0.168299
    17  C   -0.177470
    18  C   -0.003897
    19  C    0.148728
    20  C    0.110276
    21  C    0.012606
    22  O   -0.249121
    23  C    0.062493
    24  N   -0.341067
    25  C    0.041102
    26  C   -0.028248
    27  C   -0.023995
    28  C    0.074777
    29  C    0.076093
    30  C    0.035174
    31  C   -0.004616
    32  N   -0.310550
    33  C    0.080462
    34  C   -0.169536
    35  C    0.008641
    36  C    0.083055
    37  C    0.127229
    38  C    0.046428
    39  O   -0.187646
    40  C   -0.005470
    41  C    0.213091
    42  O   -0.257107
    43  O   -0.304820
    44  C    0.157459
    45  H   -0.017746
    46  H   -0.016589
    47  H   -0.041412
    48  H    0.001183
    49  H   -0.004524
    50  H    0.025666
    51  H    0.016609
    52  H    0.016605
    53  H    0.010323
    54  H    0.043975
    55  H    0.018430
    56  H    0.017390
    57  H    0.005551
    58  H    0.027006
    59  H    0.038749
    60  H    0.037171
    61  H    0.036198
    62  H    0.030940
    63  H    0.016696
    64  H    0.009664
    65  H    0.023419
    66  H    0.012629
    67  H    0.004835
    68  H    0.006482
    69  H    0.004753
    70  H    0.009073
    71  H    0.016799
    72  H    0.029354
    73  H    0.048113
    74  H    0.009005
    75  H    0.046195
    76  H    0.035258
    77  H    0.043522
    78  H    0.045785
    79  H    0.054106
    80  Mg   0.838139
    81  C   -0.016358
    82  C   -0.088044
    83  C   -0.045519
    84  C   -0.064610
    85  N   -0.254522
    86  C   -0.048971
    87  C   -0.015134
    88  C   -0.090758
    89  C    0.046031
    90  C    0.114285
    91  C    0.062622
    92  C   -0.077507
    93  H    0.034397
    94  N   -0.423377
    95  C    0.162824
    96  C   -0.175350
    97  C   -0.008068
    98  C    0.151860
    99  C    0.099753
   100  C    0.015302
   101  O   -0.253280
   102  C    0.061373
   103  N   -0.349928
   104  C    0.037405
   105  C   -0.019770
   106  C   -0.034744
   107  C    0.089195
   108  C    0.073669
   109  C    0.034751
   110  C   -0.007576
   111  N   -0.324392
   112  C    0.079002
   113  C   -0.162347
   114  C    0.003260
   115  C    0.096256
   116  C    0.131055
   117  C    0.043529
   118  O   -0.187096
   119  C    0.000425
   120  C    0.211000
   121  O   -0.251511
   122  O   -0.305231
   123  C    0.152204
   124  H   -0.020814
   125  H   -0.015711
   126  H   -0.040573
   127  H   -0.000077
   128  H   -0.005336
   129  H    0.025494
   130  H    0.014379
   131  H    0.014419
   132  H    0.013600
   133  H    0.037652
   134  H    0.020671
   135  H    0.019022
   136  H    0.008034
   137  H    0.024917
   138  H    0.039282
   139  H    0.037596
   140  H    0.036065
   141  H    0.033649
   142  H    0.014040
   143  H    0.012176
   144  H    0.024895
   145  H    0.012498
   146  H    0.005229
   147  H    0.005835
   148  H    0.003467
   149  H    0.010802
   150  H    0.017629
   151  H    0.030284
   152  H    0.045745
   153  H    0.007815
   154  H    0.049393
   155  H    0.037493
   156  H    0.043890
   157  H    0.049004
   158  H    0.053276
 Sum of Mulliken charges =  -0.00000

 Dipole moment (field-independent basis, Debye):
    X=             -3.9925    Y=             -1.8642    Z=             -7.6138  Tot=              8.7969
 Quadrupole moment (field-independent basis, Debye-Ang):
   XX=           -516.1705   YY=           -551.3108   ZZ=           -447.7585
   XY=             -5.0474   XZ=             -8.3469   YZ=            -47.1214

 Normal termination of Gaussian 16 at Sat Sep 11 01:48:42 2021.
