 Gaussian 16, Revision A.03,
 Gaussian 16:  ES64L-G16RevA.03 25-Dec-2016

 -----------------------------------
 #p cam-b3lyp/Def2SVP td=(nstates=5)
 -----------------------------------

 --------------------------------
 TDDFT excited states in gaussian
 --------------------------------
 Symbolic Z-matrix:
 Charge =  0 Multiplicity = 1

                         Standard orientation:
 ---------------------------------------------------------------------
 Center     Atomic      Atomic             Coordinates (Angstroms)
 Number     Number       Type             X           Y           Z
 ---------------------------------------------------------------------
      1         12           0       -7.885509   -0.682426    0.092767
      2          6           0       -8.042863    2.887351    0.302872
      3          6           0       -8.762089   -0.379104   -3.190930
      4          6           0       -8.196648   -3.836889   -0.003038
      5          6           0       -8.142140   -0.750826    3.567695
      6          7           0       -8.318503    1.084018   -1.169309
      7          6           0       -8.285362    2.399870   -0.983285
      8          6           0       -8.457899    3.214528   -2.300076
      9          6           0       -9.225922    2.123168   -3.172472
     10          6           0       -8.712136    0.865085   -2.494847
     11          6           0      -10.742573    2.178672   -3.020185
     12          6           0       -7.084157    3.600190   -2.944923
     13          6           0       -7.154073    4.664453   -4.043926
     14          1           0       -6.066457    5.624174   -4.159578
     15          7           0       -7.923321   -1.919927   -1.446718
     16          6           0       -8.290935   -1.622286   -2.716189
     17          6           0       -8.148267   -2.876456   -3.486504
     18          6           0       -7.850049   -3.971414   -2.522022
     19          6           0       -8.005992   -3.282422   -1.266494
     20          6           0       -8.245892   -2.940488   -4.979862
     21          6           0       -7.493069   -5.412929   -2.702943
     22          8           0       -7.502569   -6.243191   -1.730754
     23          6           0       -7.214148   -5.852542   -4.082067
     24          7           0       -8.354366   -2.107831    1.543984
     25          6           0       -8.365820   -3.412844    1.251081
     26          6           0       -8.445950   -4.250460    2.492821
     27          6           0       -8.241352   -3.246295    3.717380
     28          6           0       -8.155954   -1.919680    2.922980
     29          6           0       -9.751054   -5.034377    2.688244
     30          6           0       -7.107540   -3.580528    4.718967
     31          6           0       -5.763845   -3.433791    4.040697
     32          7           0       -7.884457    0.784203    1.692780
     33          6           0       -8.026079    0.534545    3.065474
     34          6           0       -8.072779    1.844711    3.740272
     35          6           0       -7.971081    2.771797    2.704891
     36          6           0       -7.893836    2.084712    1.459805
     37          6           0       -8.253257    2.057562    5.135462
     38          6           0       -7.934497    4.183425    2.358733
     39          8           0       -7.870943    5.232486    3.001326
     40          6           0       -8.102193    4.316901    0.780795
     41          6           0       -7.043912    5.266887    0.290004
     42          8           0       -5.835107    4.961660    0.344726
     43          8           0       -7.626169    6.274090   -0.378622
     44          6           0       -6.629437    7.237401   -0.917799
     45          1           0       -9.258928   -0.420949   -4.162188
     46          1           0       -8.198249   -4.928635    0.019885
     47          1           0       -8.136004   -0.694809    4.657776
     48          1           0       -9.069982    4.111362   -2.202784
     49          1           0       -8.915271    2.144891   -4.216860
     50          1           0      -11.039055    2.875946   -2.236713
     51          1           0      -11.046476    1.164085   -2.761825
     52          1           0      -11.219893    2.400455   -3.975043
     53          1           0       -6.710811    2.757262   -3.526426
     54          1           0       -6.374574    3.917798   -2.180107
     55          1           0       -8.116741    5.176485   -4.042245
     56          1           0       -7.116805    4.160830   -5.009936
     57          1           0       -8.635720   -2.012317   -5.395890
     58          1           0       -9.005517   -3.684889   -5.217656
     59          1           0       -7.299003   -3.221116   -5.441361
     60          1           0       -8.089224   -5.663132   -4.704092
     61          1           0       -6.890171   -6.889987   -4.007261
     62          1           0       -6.409038   -5.241634   -4.491381
     63          1           0       -7.656326   -5.000538    2.510190
     64          1           0       -9.133325   -3.173537    4.340088
     65          1           0       -9.604113   -6.109197    2.797225
     66          1           0      -10.406613   -4.812649    1.846597
     67          1           0      -10.360133   -4.705534    3.529850
     68          1           0       -7.187860   -4.614990    5.051208
     69          1           0       -7.115334   -2.945979    5.605272
     70          1           0       -5.639824   -4.391484    3.536439
     71          1           0       -4.978824   -3.278041    4.781436
     72          1           0       -5.788305   -2.661406    3.271730
     73          1           0       -7.544510    2.835339    5.419556
     74          1           0       -8.083834    1.141522    5.700945
     75          1           0       -9.295493    2.375510    5.158063
     76          1           0       -9.107726    4.697145    0.603480
     77          1           0       -6.896670    8.222969   -0.536387
     78          1           0       -6.618417    7.099223   -1.999090
     79          1           0       -5.611157    7.139611   -0.539800
     80         12           0        7.996197   -0.879434    0.061114
     81          6           0        7.999010    2.703517    0.264798
     82          6           0        7.269733   -0.541346   -3.254378
     83          6           0        7.542485   -4.017507   -0.057691
     84          6           0        7.586487   -0.937236    3.521537
     85          7           0        7.698388    0.903084   -1.214103
     86          6           0        7.784950    2.213301   -1.040309
     87          6           0        7.713633    3.042060   -2.350896
     88          6           0        6.923927    1.982160   -3.262961
     89          6           0        7.346626    0.693096   -2.561310
     90          6           0        5.412964    2.108210   -3.160818
     91          6           0        9.134675    3.357611   -2.936632
     92          6           0        9.154790    4.419199   -4.038624
     93          1           0       10.297191    5.325943   -4.110807
     94          7           0        7.966982   -2.114941   -1.491696
     95          6           0        7.673145   -1.805859   -2.772088
     96          6           0        7.771583   -3.066941   -3.523164
     97          6           0        7.986165   -4.175059   -2.553239
     98          6           0        7.815692   -3.465962   -1.300950
     99          6           0        7.741973   -3.125273   -5.022879
    100          6           0        8.281610   -5.634354   -2.724618
    101          8           0        8.193398   -6.458564   -1.747003
    102          6           0        8.586277   -6.085590   -4.090286
    103          7           0        7.408070   -2.273997    1.486477
    104          6           0        7.340809   -3.582951    1.186415
    105          6           0        7.165696   -4.419649    2.431279
    106          6           0        7.372730   -3.414060    3.657447
    107          6           0        7.551200   -2.094401    2.875102
    108          6           0        5.817398   -5.125370    2.574263
    109          6           0        8.447242   -3.800127    4.710547
    110          6           0        9.824757   -3.730906    4.091640
    111          7           0        8.005838    0.581226    1.653102
    112          6           0        7.788542    0.345469    3.028343
    113          6           0        7.777328    1.661604    3.699233
    114          6           0        7.967411    2.580539    2.656200
    115          6           0        8.068356    1.887400    1.419731
    116          6           0        7.559857    1.885588    5.087996
    117          6           0        8.094994    3.980000    2.318661
    118          8           0        8.174827    5.025184    2.962827
    119          6           0        7.994620    4.130145    0.739498
    120          6           0        9.116752    5.023047    0.285552
    121          8           0       10.300410    4.660162    0.403396
    122          8           0        8.604709    6.056677   -0.407106
    123          6           0        9.679907    6.964737   -0.887944
    124          1           0        6.818940   -0.551768   -4.247142
    125          1           0        7.487034   -5.108149   -0.027592
    126          1           0        7.562247   -0.876565    4.611679
    127          1           0        7.147489    3.962720   -2.275929
    128          1           0        7.286561    1.995168   -4.287513
    129          1           0        5.118182    2.814265   -2.398760
    130          1           0        5.050794    1.117510   -2.919153
    131          1           0        4.988281    2.354219   -4.138290
    132          1           0        9.488155    2.488615   -3.506398
    133          1           0        9.815791    3.634563   -2.155600
    134          1           0        8.214281    4.981410   -4.086580
    135          1           0        9.214840    3.914275   -5.005813
    136          1           0        7.407864   -2.174357   -5.455905
    137          1           0        6.959144   -3.839722   -5.299700
    138          1           0        8.690550   -3.457191   -5.450312
    139          1           0        7.749481   -5.850067   -4.743557
    140          1           0        8.857235   -7.138984   -3.996382
    141          1           0        9.445982   -5.517494   -4.462826
    142          1           0        7.917893   -5.197184    2.483601
    143          1           0        6.455005   -3.304217    4.253746
    144          1           0        5.908686   -6.222087    2.688008
    145          1           0        5.211411   -4.881661    1.711751
    146          1           0        5.197954   -4.775205    3.398197
    147          1           0        8.304667   -4.833613    5.035724
    148          1           0        8.425194   -3.177181    5.598497
    149          1           0        9.917950   -4.697800    3.588134
    150          1           0       10.584880   -3.611692    4.861080
    151          1           0        9.871483   -2.952314    3.321401
    152          1           0        8.285254    2.624510    5.401519
    153          1           0        7.656935    0.964691    5.659222
    154          1           0        6.529075    2.249380    5.067821
    155          1           0        7.016036    4.554820    0.512340
    156          1           0        9.441438    7.966526   -0.517499
    157          1           0        9.717030    6.829049   -1.985196
    158          1           0       10.675156    6.821157   -0.483808
 ---------------------------------------------------------------------

 SCF Done:  E(RCAM-B3LYP) =  -4069.81167952     A.U. after   19 cycles

 Excitation energies and oscillator strengths:

 Excited State   1:      Singlet-A      1.6698 eV  742.50 nm  f=0.0156  <S**2>=0.000
     309 -> 315       -0.10406
     310 -> 316        0.13749
     311 -> 313       -0.41275
     312 -> 314        0.54839
 This state for optimization and/or second-order correction.
 Total Energy, E(TD-HF/TD-DFT) =  -4069.75031507
 Copying the excited state density for this state as the 1-particle RhoCI density.

 Excited State   2:      Singlet-A      1.6853 eV  735.70 nm  f=0.7412  <S**2>=0.000
     309 -> 315        0.14140
     310 -> 316        0.10583
     311 -> 313        0.54756
     312 -> 314        0.41221

 Excited State   3:      Singlet-A      2.1854 eV  567.34 nm  f=0.0571  <S**2>=0.000
     309 -> 313       -0.14120
     310 -> 314        0.62706
     312 -> 316       -0.26597

 Excited State   4:      Singlet-A      2.1929 eV  565.39 nm  f=0.1361  <S**2>=0.000
     309 -> 313        0.62506
     310 -> 314        0.14010
     311 -> 315       -0.27179

 Excited State   5:      Singlet-A      2.7665 eV  448.16 nm  f=0.0000  <S**2>=0.000
     312 -> 313        0.70710

 The electronic state is 1-A.
 Alpha  occ. eigenvalues --  -46.87830 -46.87588 -19.26310 -19.26276 -19.19089
 Alpha  occ. eigenvalues --  -19.19047 -19.18849 -19.18657 -19.18193 -19.17969
 Alpha  occ. eigenvalues --  -14.42485 -14.42426 -14.41482 -14.41287 -14.39437
 Alpha  occ. eigenvalues --  -14.39281 -14.38619 -14.38525 -10.39107 -10.39017
 Alpha  occ. eigenvalues --  -10.35483 -10.35336 -10.34414 -10.34145 -10.31704
 Alpha  occ. eigenvalues --  -10.31689 -10.31439 -10.31234 -10.30955 -10.30946
 Alpha  occ. eigenvalues --  -10.30602 -10.30538 -10.30324 -10.30286 -10.30240
 Alpha  occ. eigenvalues --  -10.30073 -10.29950 -10.29819 -10.29663 -10.29368
 Alpha  occ. eigenvalues --  -10.29330 -10.29288 -10.28791 -10.28650 -10.28605
 Alpha  occ. eigenvalues --  -10.28597 -10.28398 -10.28332 -10.28156 -10.28069
 Alpha  occ. eigenvalues --  -10.27927 -10.27824 -10.27762 -10.27618 -10.27600
 Alpha  occ. eigenvalues --  -10.27529 -10.27526 -10.27477 -10.27450 -10.27437
 Alpha  occ. eigenvalues --  -10.27420 -10.27411 -10.27398 -10.27306 -10.27186
 Alpha  occ. eigenvalues --  -10.26967 -10.26757 -10.26635 -10.26452 -10.26374
 Alpha  occ. eigenvalues --  -10.26270 -10.26211 -10.26077 -10.26051 -10.25941
 Alpha  occ. eigenvalues --  -10.25862 -10.25862 -10.25760 -10.25459 -10.25324
 Alpha  occ. eigenvalues --  -10.24863 -10.24819 -10.24797 -10.24718 -10.24674
 Alpha  occ. eigenvalues --  -10.24618  -3.16573  -3.16338  -1.91455  -1.91220
 Alpha  occ. eigenvalues --   -1.91042  -1.90884  -1.90809  -1.90646  -1.16659
 Alpha  occ. eigenvalues --   -1.16570  -1.08650  -1.08575  -1.07251  -1.06910
 Alpha  occ. eigenvalues --   -1.06872  -1.06669  -1.04616  -1.04423  -1.03793
 Alpha  occ. eigenvalues --   -1.03591  -1.03266  -1.02966  -1.02444  -1.02038
 Alpha  occ. eigenvalues --   -0.92003  -0.91912  -0.89550  -0.89425  -0.89228
 Alpha  occ. eigenvalues --   -0.89081  -0.88317  -0.88151  -0.87898  -0.87715
 Alpha  occ. eigenvalues --   -0.87709  -0.87614  -0.87311  -0.87061  -0.85021
 Alpha  occ. eigenvalues --   -0.84932  -0.83965  -0.83808  -0.83003  -0.82876
 Alpha  occ. eigenvalues --   -0.82685  -0.82587  -0.81616  -0.81524  -0.80629
 Alpha  occ. eigenvalues --   -0.80373  -0.78832  -0.78569  -0.77253  -0.77077
 Alpha  occ. eigenvalues --   -0.76969  -0.76829  -0.75957  -0.75767  -0.74927
 Alpha  occ. eigenvalues --   -0.74732  -0.72806  -0.72626  -0.71704  -0.71508
 Alpha  occ. eigenvalues --   -0.69937  -0.69692  -0.68911  -0.68760  -0.67674
 Alpha  occ. eigenvalues --   -0.67532  -0.67263  -0.67140  -0.65324  -0.65202
 Alpha  occ. eigenvalues --   -0.64885  -0.64699  -0.64654  -0.64584  -0.64300
 Alpha  occ. eigenvalues --   -0.64135  -0.62326  -0.62207  -0.60476  -0.60276
 Alpha  occ. eigenvalues --   -0.59841  -0.59726  -0.59019  -0.58921  -0.58535
 Alpha  occ. eigenvalues --   -0.58354  -0.57612  -0.57476  -0.57339  -0.57167
 Alpha  occ. eigenvalues --   -0.56342  -0.56134  -0.56009  -0.55818  -0.55554
 Alpha  occ. eigenvalues --   -0.55387  -0.55367  -0.55176  -0.54552  -0.54418
 Alpha  occ. eigenvalues --   -0.53935  -0.53844  -0.53332  -0.53259  -0.53160
 Alpha  occ. eigenvalues --   -0.53075  -0.52946  -0.52834  -0.52795  -0.52611
 Alpha  occ. eigenvalues --   -0.52467  -0.52338  -0.51939  -0.51800  -0.51656
 Alpha  occ. eigenvalues --   -0.51595  -0.51226  -0.51128  -0.50613  -0.50422
 Alpha  occ. eigenvalues --   -0.50063  -0.49955  -0.49914  -0.49801  -0.49551
 Alpha  occ. eigenvalues --   -0.49424  -0.49246  -0.49132  -0.49131  -0.49030
 Alpha  occ. eigenvalues --   -0.48623  -0.48492  -0.48486  -0.48476  -0.48305
 Alpha  occ. eigenvalues --   -0.48277  -0.47730  -0.47529  -0.47330  -0.47054
 Alpha  occ. eigenvalues --   -0.46830  -0.46640  -0.46595  -0.46488  -0.46391
 Alpha  occ. eigenvalues --   -0.46202  -0.46191  -0.46011  -0.45849  -0.45746
 Alpha  occ. eigenvalues --   -0.45231  -0.45138  -0.44607  -0.44544  -0.44442
 Alpha  occ. eigenvalues --   -0.44409  -0.44177  -0.44125  -0.44056  -0.44051
 Alpha  occ. eigenvalues --   -0.44013  -0.43874  -0.43523  -0.43482  -0.43421
 Alpha  occ. eigenvalues --   -0.43315  -0.43058  -0.42860  -0.42827  -0.42727
 Alpha  occ. eigenvalues --   -0.42683  -0.42488  -0.42042  -0.41898  -0.41735
 Alpha  occ. eigenvalues --   -0.41594  -0.41573  -0.41393  -0.41174  -0.40917
 Alpha  occ. eigenvalues --   -0.40907  -0.40861  -0.40663  -0.40635  -0.40602
 Alpha  occ. eigenvalues --   -0.40424  -0.40281  -0.40168  -0.39471  -0.39361
 Alpha  occ. eigenvalues --   -0.38501  -0.38282  -0.37792  -0.37592  -0.37352
 Alpha  occ. eigenvalues --   -0.37302  -0.37197  -0.37131  -0.36741  -0.36700
 Alpha  occ. eigenvalues --   -0.36223  -0.36147  -0.34318  -0.34181  -0.33798
 Alpha  occ. eigenvalues --   -0.33790  -0.33218  -0.33103  -0.31379  -0.31216
 Alpha  occ. eigenvalues --   -0.31068  -0.30901  -0.30053  -0.29872  -0.29482
 Alpha  occ. eigenvalues --   -0.29352  -0.29259  -0.29135  -0.24113  -0.23963
 Alpha  occ. eigenvalues --   -0.21160  -0.21045
 Alpha virt. eigenvalues --   -0.08807  -0.08720  -0.01783  -0.01613  -0.00093
 Alpha virt. eigenvalues --    0.00037   0.02172   0.02285   0.03082   0.03290
 Alpha virt. eigenvalues --    0.04680   0.04800   0.05071   0.05239   0.06131

 Mulliken charges:
               1
     1  Mg   0.838644
     2  C   -0.003017
     3  C   -0.094290
     4  C   -0.045838
     5  C   -0.063920
     6  N   -0.256762
     7  C   -0.052497
     8  C   -0.013991
     9  C   -0.086973
    10  C    0.046257
    11  C    0.104810
    12  C    0.053540
    13  C   -0.071671
    14  H    0.035847
    15  N   -0.433137
    16  C    0.168349
    17  C   -0.177285
    18  C   -0.004031
    19  C    0.148665
    20  C    0.110209
    21  C    0.012250
    22  O   -0.249523
    23  C    0.062519
    24  N   -0.341155
    25  C    0.041220
    26  C   -0.028182
    27  C   -0.024015
    28  C    0.074877
    29  C    0.076138
    30  C    0.035109
    31  C   -0.004503
    32  N   -0.310505
    33  C    0.080442
    34  C   -0.169585
    35  C    0.008452
    36  C    0.082986
    37  C    0.127277
    38  C    0.046230
    39  O   -0.188131
    40  C   -0.005355
    41  C    0.212929
    42  O   -0.257126
    43  O   -0.304791
    44  C    0.157634
    45  H   -0.017669
    46  H   -0.016784
    47  H   -0.041370
    48  H    0.001033
    49  H   -0.004216
    50  H    0.025554
    51  H    0.016505
    52  H    0.016630
    53  H    0.010926
    54  H    0.044108
    55  H    0.018045
    56  H    0.017732
    57  H    0.005770
    58  H    0.026869
    59  H    0.039220
    60  H    0.037346
    61  H    0.035721
    62  H    0.031231
    63  H    0.016574
    64  H    0.009552
    65  H    0.023272
    66  H    0.012556
    67  H    0.004818
    68  H    0.006429
    69  H    0.004809
    70  H    0.008796
    71  H    0.018088
    72  H    0.028930
    73  H    0.047800
    74  H    0.009164
    75  H    0.046101
    76  H    0.035213
    77  H    0.043162
    78  H    0.046196
    79  H    0.053789
    80  Mg   0.837980
    81  C   -0.016795
    82  C   -0.087846
    83  C   -0.045517
    84  C   -0.064687
    85  N   -0.254562
    86  C   -0.049616
    87  C   -0.015138
    88  C   -0.090566
    89  C    0.045830
    90  C    0.114384
    91  C    0.062580
    92  C   -0.077762
    93  H    0.034695
    94  N   -0.423476
    95  C    0.162876
    96  C   -0.174786
    97  C   -0.007908
    98  C    0.152093
    99  C    0.099463
   100  C    0.015464
   101  O   -0.253271
   102  C    0.061253
   103  N   -0.350011
   104  C    0.037541
   105  C   -0.019828
   106  C   -0.034867
   107  C    0.088991
   108  C    0.073636
   109  C    0.034747
   110  C   -0.007648
   111  N   -0.324193
   112  C    0.078569
   113  C   -0.162923
   114  C    0.002483
   115  C    0.096226
   116  C    0.131420
   117  C    0.042640
   118  O   -0.187567
   119  C    0.000829
   120  C    0.211188
   121  O   -0.251185
   122  O   -0.305469
   123  C    0.152084
   124  H   -0.019958
   125  H   -0.015668
   126  H   -0.040369
   127  H   -0.000439
   128  H   -0.004664
   129  H    0.023131
   130  H    0.014570
   131  H    0.015883
   132  H    0.013783
   133  H    0.037659
   134  H    0.020833
   135  H    0.019362
   136  H    0.008534
   137  H    0.025835
   138  H    0.039552
   139  H    0.038077
   140  H    0.036227
   141  H    0.033791
   142  H    0.014237
   143  H    0.012607
   144  H    0.024976
   145  H    0.011832
   146  H    0.005790
   147  H    0.006159
   148  H    0.003674
   149  H    0.010845
   150  H    0.017823
   151  H    0.030124
   152  H    0.045949
   153  H    0.008396
   154  H    0.047691
   155  H    0.035629
   156  H    0.043987
   157  H    0.049325
   158  H    0.053461
 Sum of Mulliken charges =  -0.00000

 Dipole moment (field-independent basis, Debye):
    X=             -3.9760    Y=             -2.2403    Z=             -7.7124  Tot=              8.9615
 Quadrupole moment (field-independent basis, Debye-Ang):
   XX=           -516.0048   YY=           -551.5926   ZZ=           -447.2552
   XY=             -4.0649   XZ=             -3.1523   YZ=            -48.4506

 Normal termination of Gaussian 16 at Sun Sep 12 06:29:06 2021.
