 Gaussian 16, Revision A.03,
 Gaussian 16:  ES64L-G16RevA.03 25-Dec-2016

 -----------------------------------
 #p cam-b3lyp/Def2SVP td=(nstates=5)
 -----------------------------------

 --------------------------------
 TDDFT excited states in gaussian
 --------------------------------
 Symbolic Z-matrix:
 Charge =  0 Multiplicity = 1

                         Standard orientation:
 ---------------------------------------------------------------------
 Center     Atomic      Atomic             Coordinates (Angstroms)
 Number     Number       Type             X           Y           Z
 ---------------------------------------------------------------------
      1         12           0       -3.499348    1.036642   -0.103343
      2          6           0       -4.189816   -2.026406    1.615146
      3          6           0       -4.160159    2.656055    2.826486
      4          6           0       -3.340095    3.769554   -1.704108
      5          6           0       -4.005042   -0.694335   -3.085566
      6          7           0       -4.088153    0.298345    1.898874
      7          6           0       -4.260957   -0.902791    2.441628
      8          6           0       -4.450220   -0.860789    3.987523
      9          6           0       -4.983170    0.634574    4.135344
     10          6           0       -4.344481    1.243352    2.899468
     11          6           0       -6.498882    0.755842    4.015287
     12          6           0       -3.102462   -1.067365    4.757332
     13          6           0       -3.243258   -1.365055    6.252963
     14          1           0       -2.301250   -2.282484    6.876096
     15          7           0       -3.240315    2.885934    0.541538
     16          6           0       -3.550367    3.366209    1.769744
     17          6           0       -3.168971    4.794864    1.756928
     18          6           0       -2.788334    5.151706    0.361982
     19          6           0       -3.137249    3.941201   -0.336812
     20          6           0       -3.143155    5.650663    2.986030
     21          6           0       -2.212790    6.391257   -0.246618
     22          8           0       -2.174801    6.573486   -1.511499
     23          6           0       -1.769507    7.438714    0.691132
     24          7           0       -3.864099    1.538151   -2.096601
     25          6           0       -3.663405    2.782986   -2.542797
     26          6           0       -3.714383    2.840939   -4.040790
     27          6           0       -3.751150    1.324907   -4.540838
     28          6           0       -3.799911    0.622565   -3.161487
     29          6           0       -4.902539    3.605223   -4.640928
     30          6           0       -2.659705    0.891061   -5.551256
     31          6           0       -1.304303    0.906320   -4.880623
     32          7           0       -3.832553   -1.029672   -0.678116
     33          6           0       -4.039625   -1.521145   -1.975132
     34          6           0       -4.327284   -2.961891   -1.850352
     35          6           0       -4.283635   -3.206681   -0.479215
     36          6           0       -4.013419   -1.990409    0.210683
     37          6           0       -4.641678   -3.844714   -2.920967
     38          6           0       -4.426777   -4.208024    0.565142
     39          8           0       -4.565253   -5.431993    0.579825
     40          6           0       -4.492432   -3.461008    1.969949
     41          6           0       -3.549609   -4.167967    2.905151
     42          8           0       -2.316883   -4.139626    2.712926
     43          8           0       -4.220022   -4.561000    3.999049
     44          6           0       -3.336199   -5.243540    4.981470
     45          1           0       -4.570823    3.283615    3.619875
     46          1           0       -3.184566    4.668541   -2.304168
     47          1           0       -4.089482   -1.316128   -3.978704
     48          1           0       -5.191853   -1.560222    4.373785
     49          1           0       -4.600992    1.115696    5.035446
     50          1           0       -6.951982   -0.190019    3.718695
     51          1           0       -6.670576    1.515858    3.252798
     52          1           0       -6.929885    1.151643    4.935263
     53          1           0       -2.567602   -0.118909    4.806493
     54          1           0       -2.506460   -1.851021    4.288299
     55          1           0       -4.267526   -1.635839    6.510763
     56          1           0       -3.060251   -0.442273    6.803583
     57          1           0       -3.631325    5.159104    3.826628
     58          1           0       -3.766237    6.521008    2.781149
     59          1           0       -2.133387    5.973123    3.240430
     60          1           0       -2.613317    7.751226    1.306657
     61          1           0       -1.304624    8.211887    0.080447
     62          1           0       -1.033252    7.013085    1.373566
     63          1           0       -2.827623    3.328551   -4.443675
     64          1           0       -4.688679    1.081997   -5.041545
     65          1           0       -4.609442    4.420502   -5.302834
     66          1           0       -5.517914    3.970569   -3.819267
     67          1           0       -5.614796    2.987181   -5.186942
     68          1           0       -2.613530    1.592224   -6.383833
     69          1           0       -2.826665   -0.103788   -5.964356
     70          1           0       -1.004533    1.950572   -4.961296
     71          1           0       -0.608515    0.258051   -5.414325
     72          1           0       -1.382721    0.670901   -3.819060
     73          1           0       -4.077138   -4.758974   -2.738230
     74          1           0       -4.383986   -3.405974   -3.884660
     75          1           0       -5.717779   -3.951599   -2.785183
     76          1           0       -5.526289   -3.520581    2.308640
     77          1           0       -3.772020   -6.222959    5.179040
     78          1           0       -3.223547   -4.560636    5.823703
     79          1           0       -2.346021   -5.527373    4.623246
     80         12           0        4.337849   -0.167317   -0.031506
     81          6           0        1.571880   -1.934841   -1.482139
     82          6           0        2.628490    2.717681   -0.655588
     83          6           0        6.936323    1.440262    0.823484
     84          6           0        6.263325   -3.022537   -0.566229
     85          7           0        2.363649    0.212894   -0.953598
     86          6           0        1.374678   -0.540032   -1.411167
     87          6           0        0.072819    0.238628   -1.740447
     88          6           0        0.716093    1.689237   -1.987045
     89          6           0        1.965408    1.553367   -1.119044
     90          6           0        1.155253    1.916453   -3.423999
     91          6           0       -0.934855    0.254029   -0.537798
     92          6           0       -2.347339    0.727085   -0.888309
     93          1           0       -3.478894    0.105888   -0.205527
     94          7           0        4.552383    1.726526    0.521571
     95          6           0        3.753658    2.764637    0.196539
     96          6           0        4.352102    3.947702    0.834023
     97          6           0        5.659278    3.551442    1.424763
     98          6           0        5.778959    2.199398    0.917081
     99          6           0        3.651341    5.273061    0.910015
    100          6           0        6.645308    4.274654    2.291316
    101          8           0        7.827024    3.820067    2.490645
    102          6           0        6.218623    5.576903    2.823849
    103          7           0        6.363713   -0.631555   -0.083168
    104          6           0        7.281709    0.224871    0.398235
    105          6           0        8.636413   -0.433081    0.509011
    106          6           0        8.383532   -1.987063    0.228318
    107          6           0        6.874651   -1.942945   -0.098337
    108          6           0        9.709370    0.088399   -0.446617
    109          6           0        8.876753   -2.986945    1.309819
    110          6           0        8.063578   -2.822851    2.573629
    111          7           0        3.969198   -2.190114   -0.695164
    112          6           0        4.922341   -3.216941   -0.871797
    113          6           0        4.211165   -4.376785   -1.447487
    114          6           0        2.887671   -3.932935   -1.588381
    115          6           0        2.785693   -2.584518   -1.151485
    116          6           0        4.803219   -5.619428   -1.810058
    117          6           0        1.555890   -4.295018   -2.017259
    118          8           0        1.018649   -5.333859   -2.399243
    119          6           0        0.671024   -2.976402   -2.085647
    120          6           0       -0.635603   -3.257538   -1.395575
    121          8           0       -0.668336   -3.488696   -0.174054
    122          8           0       -1.647040   -2.994018   -2.242868
    123          6           0       -2.964195   -3.247179   -1.600349
    124          1           0        2.281442    3.688429   -1.010687
    125          1           0        7.842419    1.912357    1.210283
    126          1           0        6.772888   -3.982806   -0.670640
    127          1           0       -0.443220   -0.095787   -2.632431
    128          1           0        0.071267    2.477126   -1.606531
    129          1           0        1.070095    1.018683   -4.018052
    130          1           0        2.187303    2.237211   -3.368962
    131          1           0        0.602237    2.753725   -3.859275
    132          1           0       -0.641182    1.044073    0.165302
    133          1           0       -0.982490   -0.709258   -0.068281
    134          1           0       -2.517483    0.749764   -1.971580
    135          1           0       -2.450825    1.769940   -0.578859
    136          1           0        2.779628    5.305899    0.244839
    137          1           0        4.336541    6.021212    0.496932
    138          1           0        3.394571    5.555717    1.933163
    139          1           0        5.970875    6.240739    1.998981
    140          1           0        7.021575    5.897279    3.490546
    141          1           0        5.297912    5.434366    3.400552
    142          1           0        9.041995   -0.317635    1.506640
    143          1           0        8.893318   -2.324161   -0.686190
    144          1           0       10.615113    0.455068    0.072282
    145          1           0        9.274839    0.872192   -1.052742
    146          1           0       10.045266   -0.624852   -1.197374
    147          1           0        9.914206   -2.773076    1.578329
    148          1           0        8.833485   -4.023273    0.991787
    149          1           0        8.553209   -1.982474    3.074752
    150          1           0        8.110805   -3.725501    3.179455
    151          1           0        7.036464   -2.516485    2.343746
    152          1           0        4.135508   -6.395964   -1.461261
    153          1           0        5.797280   -5.726441   -1.380928
    154          1           0        4.835099   -5.510376   -2.897423
    155          1           0        0.532818   -2.728882   -3.138840
    156          1           0       -3.501959   -3.952708   -2.241222
    157          1           0       -3.421465   -2.250625   -1.453592
    158          1           0       -2.967046   -3.776123   -0.654491
 ---------------------------------------------------------------------

 SCF Done:  E(RCAM-B3LYP) =  -4068.39316074     A.U. after   23 cycles

 Excitation energies and oscillator strengths:

 Excited State   1:      Singlet-A      1.0312 eV 1202.35 nm  f=0.0796  <S**2>=0.000
     312 -> 314        0.66695
     312 -> 315       -0.19621
 This state for optimization and/or second-order correction.
 Total Energy, E(TD-HF/TD-DFT) =  -4068.35526556
 Copying the excited state density for this state as the 1-particle RhoCI density.

 Excited State   2:      Singlet-A      1.6204 eV  765.17 nm  f=0.0034  <S**2>=0.000
     312 -> 313        0.70366

 Excited State   3:      Singlet-A      1.6516 eV  750.68 nm  f=0.2980  <S**2>=0.000
     310 -> 316        0.16073
     311 -> 313        0.67954

 Excited State   4:      Singlet-A      1.9740 eV  628.08 nm  f=0.0843  <S**2>=0.000
     307 -> 314        0.11161
     308 -> 314        0.21452
     309 -> 314        0.38446
     312 -> 314        0.15192
     312 -> 315        0.49743

 Excited State   5:      Singlet-A      2.1583 eV  574.47 nm  f=0.1711  <S**2>=0.000
     307 -> 314       -0.28882
     308 -> 314       -0.24975
     309 -> 314       -0.27581
     310 -> 313        0.27504
     311 -> 314        0.15238
     311 -> 316       -0.11259
     312 -> 314        0.11320
     312 -> 315        0.34273

 The electronic state is 1-A.
 Alpha  occ. eigenvalues --  -46.86940 -46.86791 -19.26775 -19.26018 -19.19565
 Alpha  occ. eigenvalues --  -19.18590 -19.18189 -19.17968 -19.17773 -19.17542
 Alpha  occ. eigenvalues --  -14.46853 -14.42111 -14.41545 -14.41098 -14.40720
 Alpha  occ. eigenvalues --  -14.38668 -14.37966 -14.37952 -10.40044 -10.39638
 Alpha  occ. eigenvalues --  -10.38776 -10.36422 -10.34968 -10.34870 -10.34376
 Alpha  occ. eigenvalues --  -10.34195 -10.33965 -10.33550 -10.32730 -10.31660
 Alpha  occ. eigenvalues --  -10.31398 -10.30847 -10.30436 -10.30300 -10.30017
 Alpha  occ. eigenvalues --  -10.29820 -10.29778 -10.29685 -10.29511 -10.29305
 Alpha  occ. eigenvalues --  -10.29011 -10.28788 -10.28780 -10.28599 -10.28575
 Alpha  occ. eigenvalues --  -10.28467 -10.28363 -10.28216 -10.28173 -10.27794
 Alpha  occ. eigenvalues --  -10.27542 -10.27506 -10.27461 -10.27434 -10.27027
 Alpha  occ. eigenvalues --  -10.27006 -10.26891 -10.26859 -10.26798 -10.26791
 Alpha  occ. eigenvalues --  -10.26788 -10.26787 -10.26733 -10.26724 -10.26667
 Alpha  occ. eigenvalues --  -10.26502 -10.26337 -10.25944 -10.25755 -10.25714
 Alpha  occ. eigenvalues --  -10.25699 -10.25697 -10.25538 -10.25453 -10.25442
 Alpha  occ. eigenvalues --  -10.25377 -10.25319 -10.25259 -10.24974 -10.24847
 Alpha  occ. eigenvalues --  -10.24736 -10.24333 -10.24315 -10.24072 -10.23918
 Alpha  occ. eigenvalues --  -10.16020  -3.23484  -3.15691  -2.00240  -1.97647
 Alpha  occ. eigenvalues --   -1.95525  -1.90574  -1.90158  -1.90001  -1.25863
 Alpha  occ. eigenvalues --   -1.17070  -1.16347  -1.09277  -1.08914  -1.08341
 Alpha  occ. eigenvalues --   -1.07049  -1.06447  -1.06238  -1.06021  -1.05171
 Alpha  occ. eigenvalues --   -1.03674  -1.03644  -1.02899  -1.02407  -1.01801
 Alpha  occ. eigenvalues --   -1.01451  -0.96068  -0.95307  -0.91466  -0.90870
 Alpha  occ. eigenvalues --   -0.89493  -0.88959  -0.88705  -0.88252  -0.87897
 Alpha  occ. eigenvalues --   -0.87646  -0.87214  -0.86748  -0.86513  -0.85981
 Alpha  occ. eigenvalues --   -0.85712  -0.84725  -0.84251  -0.83857  -0.83467
 Alpha  occ. eigenvalues --   -0.82716  -0.82351  -0.81982  -0.81928  -0.81578
 Alpha  occ. eigenvalues --   -0.80855  -0.80101  -0.78763  -0.78315  -0.78043
 Alpha  occ. eigenvalues --   -0.77812  -0.76746  -0.76540  -0.76346  -0.75743
 Alpha  occ. eigenvalues --   -0.74641  -0.74430  -0.73584  -0.72251  -0.72038
 Alpha  occ. eigenvalues --   -0.71552  -0.70956  -0.70409  -0.69363  -0.69071
 Alpha  occ. eigenvalues --   -0.68656  -0.68180  -0.68055  -0.67146  -0.66985
 Alpha  occ. eigenvalues --   -0.66396  -0.65980  -0.65902  -0.65225  -0.64485
 Alpha  occ. eigenvalues --   -0.64398  -0.63993  -0.63617  -0.63210  -0.62618
 Alpha  occ. eigenvalues --   -0.62238  -0.61473  -0.59994  -0.59758  -0.59215
 Alpha  occ. eigenvalues --   -0.59023  -0.58539  -0.58340  -0.58228  -0.57998
 Alpha  occ. eigenvalues --   -0.57819  -0.57325  -0.57136  -0.57007  -0.56701
 Alpha  occ. eigenvalues --   -0.56290  -0.55947  -0.55781  -0.55502  -0.54907
 Alpha  occ. eigenvalues --   -0.54716  -0.54648  -0.54450  -0.54008  -0.53802
 Alpha  occ. eigenvalues --   -0.53707  -0.53507  -0.53260  -0.52978  -0.52741
 Alpha  occ. eigenvalues --   -0.52600  -0.52437  -0.52174  -0.52077  -0.51955
 Alpha  occ. eigenvalues --   -0.51642  -0.51583  -0.51414  -0.51324  -0.51055
 Alpha  occ. eigenvalues --   -0.50595  -0.50418  -0.50250  -0.49977  -0.49911
 Alpha  occ. eigenvalues --   -0.49464  -0.49428  -0.49346  -0.49102  -0.48993
 Alpha  occ. eigenvalues --   -0.48699  -0.48616  -0.48488  -0.48373  -0.48228
 Alpha  occ. eigenvalues --   -0.48007  -0.47785  -0.47598  -0.47571  -0.47492
 Alpha  occ. eigenvalues --   -0.47260  -0.47143  -0.46952  -0.46635  -0.46533
 Alpha  occ. eigenvalues --   -0.46342  -0.46137  -0.45918  -0.45764  -0.45712
 Alpha  occ. eigenvalues --   -0.45551  -0.45049  -0.44834  -0.44787  -0.44751
 Alpha  occ. eigenvalues --   -0.44474  -0.44168  -0.44059  -0.43956  -0.43738
 Alpha  occ. eigenvalues --   -0.43719  -0.43636  -0.43374  -0.43266  -0.43182
 Alpha  occ. eigenvalues --   -0.43001  -0.42811  -0.42659  -0.42553  -0.42453
 Alpha  occ. eigenvalues --   -0.41985  -0.41907  -0.41667  -0.41601  -0.41363
 Alpha  occ. eigenvalues --   -0.41298  -0.41192  -0.41101  -0.40644  -0.40549
 Alpha  occ. eigenvalues --   -0.40373  -0.40254  -0.40067  -0.40013  -0.39918
 Alpha  occ. eigenvalues --   -0.39607  -0.39585  -0.39274  -0.38931  -0.38565
 Alpha  occ. eigenvalues --   -0.38352  -0.37841  -0.37483  -0.37152  -0.36973
 Alpha  occ. eigenvalues --   -0.36647  -0.36423  -0.36115  -0.36080  -0.35721
 Alpha  occ. eigenvalues --   -0.34945  -0.34564  -0.34107  -0.33505  -0.33374
 Alpha  occ. eigenvalues --   -0.32517  -0.32239  -0.31229  -0.31049  -0.30747
 Alpha  occ. eigenvalues --   -0.30298  -0.30168  -0.29701  -0.28753  -0.28637
 Alpha  occ. eigenvalues --   -0.27874  -0.26560  -0.24806  -0.23799  -0.23365
 Alpha  occ. eigenvalues --   -0.20382  -0.18074
 Alpha virt. eigenvalues --   -0.08163  -0.07325  -0.02403  -0.01014   0.00481
 Alpha virt. eigenvalues --    0.00635   0.01573   0.02667   0.03595   0.03944
 Alpha virt. eigenvalues --    0.04195   0.04663   0.05491   0.05780   0.06050

 Mulliken charges:
               1
     1  Mg   0.890707
     2  C   -0.008240
     3  C   -0.118313
     4  C   -0.014049
     5  C   -0.013253
     6  N   -0.316278
     7  C   -0.025308
     8  C   -0.018978
     9  C   -0.080730
    10  C    0.056411
    11  C    0.107153
    12  C    0.053076
    13  C   -0.071787
    14  H    0.036750
    15  N   -0.439018
    16  C    0.170215
    17  C   -0.198886
    18  C   -0.008382
    19  C    0.132740
    20  C    0.115468
    21  C    0.000775
    22  O   -0.262924
    23  C    0.066095
    24  N   -0.273519
    25  C    0.022607
    26  C   -0.012175
    27  C    0.002040
    28  C    0.030171
    29  C    0.080013
    30  C    0.071612
    31  C   -0.035320
    32  N   -0.149567
    33  C    0.045500
    34  C    0.076835
    35  C   -0.159756
    36  C    0.028504
    37  C    0.219465
    38  C   -0.035005
    39  O   -0.200035
    40  C    0.008838
    41  C    0.206171
    42  O   -0.238728
    43  O   -0.308027
    44  C    0.158153
    45  H   -0.029336
    46  H   -0.018368
    47  H   -0.057051
    48  H    0.000225
    49  H   -0.003843
    50  H    0.017526
    51  H    0.018164
    52  H    0.014641
    53  H    0.017286
    54  H    0.049866
    55  H    0.016403
    56  H    0.019133
    57  H   -0.000856
    58  H    0.015988
    59  H    0.027590
    60  H    0.037232
    61  H    0.028254
    62  H    0.027766
    63  H    0.008709
    64  H   -0.000826
    65  H    0.021719
    66  H    0.014338
    67  H   -0.001171
    68  H    0.007107
    69  H   -0.007694
    70  H    0.013874
    71  H    0.024535
    72  H    0.039399
    73  H    0.099887
    74  H    0.065505
    75  H    0.066824
    76  H    0.033847
    77  H    0.041360
    78  H    0.046431
    79  H    0.056882
    80  Mg   0.837271
    81  C   -0.018664
    82  C   -0.087707
    83  C   -0.046921
    84  C   -0.066440
    85  N   -0.259554
    86  C   -0.033366
    87  C   -0.021486
    88  C   -0.100816
    89  C    0.054741
    90  C    0.121549
    91  C    0.261367
    92  C   -0.578019
    93  H   -0.109500
    94  N   -0.423385
    95  C    0.163428
    96  C   -0.174171
    97  C   -0.008784
    98  C    0.152526
    99  C    0.098107
   100  C    0.014794
   101  O   -0.254643
   102  C    0.061688
   103  N   -0.350172
   104  C    0.037458
   105  C   -0.019510
   106  C   -0.034277
   107  C    0.088335
   108  C    0.074246
   109  C    0.035242
   110  C   -0.007441
   111  N   -0.323520
   112  C    0.077899
   113  C   -0.164162
   114  C    0.001323
   115  C    0.096788
   116  C    0.131399
   117  C    0.043903
   118  O   -0.195227
   119  C    0.006618
   120  C    0.249403
   121  O   -0.226155
   122  O   -0.296103
   123  C    0.234525
   124  H   -0.014380
   125  H   -0.017204
   126  H   -0.042851
   127  H   -0.033965
   128  H    0.020225
   129  H    0.021661
   130  H    0.004356
   131  H    0.018816
   132  H    0.011855
   133  H    0.030073
   134  H    0.087499
   135  H    0.069580
   136  H    0.014443
   137  H    0.025285
   138  H    0.037573
   139  H    0.038304
   140  H    0.034702
   141  H    0.033360
   142  H    0.013320
   143  H    0.010815
   144  H    0.023851
   145  H    0.011500
   146  H    0.004391
   147  H    0.004758
   148  H    0.002552
   149  H    0.010226
   150  H    0.016522
   151  H    0.031448
   152  H    0.044789
   153  H    0.007801
   154  H    0.044137
   155  H    0.027964
   156  H   -0.034797
   157  H    0.002741
   158  H    0.093693
 Sum of Mulliken charges =  -0.00000

 Dipole moment (field-independent basis, Debye):
    X=             -4.9746    Y=              0.3313    Z=             -2.1357  Tot=              5.4238
 Quadrupole moment (field-independent basis, Debye-Ang):
   XX=           -490.1255   YY=           -544.0462   ZZ=           -470.2909
   XY=             -5.8410   XZ=              2.6500   YZ=             18.0582

 Normal termination of Gaussian 16 at Thu Sep  9 00:33:10 2021.
