 Gaussian 16, Revision A.03,
 Gaussian 16:  ES64L-G16RevA.03 25-Dec-2016

 -----------------------------------
 #p cam-b3lyp/Def2SVP td=(nstates=5)
 -----------------------------------

 --------------------------------
 TDDFT excited states in gaussian
 --------------------------------
 Symbolic Z-matrix:
 Charge =  0 Multiplicity = 1

                         Standard orientation:
 ---------------------------------------------------------------------
 Center     Atomic      Atomic             Coordinates (Angstroms)
 Number     Number       Type             X           Y           Z
 ---------------------------------------------------------------------
      1         12           0       16.039765   -0.634598    0.207227
      2          6           0       16.236792    2.539782   -1.434938
      3          6           0       16.891779    0.973042    3.093857
      4          6           0       16.316563   -3.479047    1.581676
      5          6           0       16.324966   -2.112556   -2.936013
      6          7           0       16.480831    1.489777    0.646705
      7          6           0       16.463239    2.616276   -0.058887
      8          6           0       16.633302    3.895124    0.814611
      9          6           0       17.382301    3.248352    2.064685
     10          6           0       16.860919    1.826653    1.951304
     11          6           0       18.900687    3.227582    1.921245
     12          6           0       15.258341    4.518398    1.230235
     13          6           0       15.330281    5.937282    1.802025
     14          1           0       14.251983    6.867825    1.504182
     15          7           0       16.051440   -1.138862    2.117314
     16          6           0       16.411470   -0.352765    3.160250
     17          6           0       16.248994   -1.184082    4.372353
     18          6           0       15.947312   -2.574841    3.933181
     19          6           0       16.121152   -2.457296    2.507930
     20          6           0       16.333330   -0.635571    5.763674
     21          6           0       15.573528   -3.815758    4.680537
     22          8           0       15.582411   -4.969791    4.130351
     23          6           0       15.278326   -3.654444    6.115764
     24          7           0       16.505684   -2.530056   -0.532902
     25          6           0       16.500805   -3.603031    0.265648
     26          6           0       16.582509   -4.873899   -0.526916
     27          6           0       16.398928   -4.453596   -2.056425
     28          6           0       16.320925   -2.918026   -1.871462
     29          6           0       17.880815   -5.677673   -0.370838
     30          6           0       15.270121   -5.159320   -2.848995
     31          6           0       13.922385   -4.740884   -2.305288
     32          7           0       16.067791    0.054109   -1.850913
     33          6           0       16.218330   -0.733349   -3.001531
     34          6           0       16.284636    0.188584   -4.150318
     35          6           0       16.184057    1.457352   -3.582905
     36          6           0       16.089016    1.336808   -2.167020
     37          6           0       16.479131   -0.185787   -5.509160
     38          6           0       16.159549    2.887892   -3.841381
     39          8           0       16.112566    3.585111   -4.855862
     40          6           0       16.315333    3.650793   -2.452302
     41          6           0       15.263098    4.724895   -2.403164
     42          8           0       14.051625    4.431396   -2.343529
     43          8           0       15.850357    5.913335   -2.195125
     44          6           0       14.859399    7.018910   -2.106469
     45          1           0       17.379933    1.326886    4.004045
     46          1           0       16.306762   -4.485652    2.004865
     47          1           0       16.328624   -2.504877   -3.954602
     48          1           0       17.255675    4.670924    0.368282
     49          1           0       17.063097    3.695080    3.006101
     50          1           0       19.211159    3.543880    0.925512
     51          1           0       19.195967    2.193770    2.101624
     52          1           0       19.372263    3.815690    2.708977
     53          1           0       14.871170    3.987357    2.099807
     54          1           0       14.558651    4.501783    0.393884
     55          1           0       16.298313    6.398284    1.603782
     56          1           0       15.279517    5.870523    2.888840
     57          1           0       16.729470    0.379105    5.770814
     58          1           0       17.082971   -1.223563    6.292836
     59          1           0       15.379653   -0.698204    6.287993
     60          1           0       16.150085   -3.233824    6.617425
     61          1           0       14.943991   -4.630516    6.465554
     62          1           0       14.476325   -2.924816    6.231455
     63          1           0       15.785137   -5.561183   -0.247159
     64          1           0       17.296846   -4.646092   -2.644100
     65          1           0       17.723392   -6.702899   -0.034931
     66          1           0       18.531568   -5.136796    0.315649
     67          1           0       18.500433   -5.723536   -1.266040
     68          1           0       15.342250   -6.239945   -2.730707
     69          1           0       15.292133   -4.940350   -3.916618
     70          1           0       13.783949   -5.409750   -1.456592
     71          1           0       13.145341   -4.895081   -3.054711
     72          1           0       13.948558   -3.722618   -1.916782
     73          1           0       15.781107    0.413534   -6.093578
     74          1           0       16.304765   -1.251574   -5.655101
     75          1           0       17.524838    0.088916   -5.646604
     76          1           0       17.323316    4.063973   -2.432917
     77          1           0       15.140294    7.762325   -2.852569
     78          1           0       14.837789    7.332711   -1.062694
     79          1           0       13.843364    6.782168   -2.424219
     80         12           0      -15.708241   -0.775370    0.042296
     81          6           0      -18.077589    1.919803    0.006379
     82          6           0      -13.265762    1.575047    0.422356
     83          6           0      -13.565560   -3.078447   -0.372681
     84          6           0      -18.150327   -2.757972   -1.458097
     85          7           0      -15.786662    1.430573    0.183447
     86          6           0      -16.748326    2.340656    0.219395
     87          6           0      -16.266455    3.771704    0.579231
     88          6           0      -14.734912    3.633162    0.116581
     89          6           0      -14.565230    2.124312    0.281700
     90          6           0      -14.514217    3.981387   -1.346074
     91          6           0      -16.377595    4.071200    2.115447
     92          6           0      -16.217962    5.544638    2.496585
     93          1           0      -17.008557    6.065593    3.608349
     94          7           0      -13.779069   -0.833113    0.504376
     95          6           0      -12.942979    0.217540    0.639902
     96          6           0      -11.627278   -0.354624    0.965015
     97          6           0      -11.717911   -1.835457    0.848219
     98          6           0      -13.047826   -1.974920    0.289688
     99          6           0      -10.465914    0.481463    1.418475
    100          6           0      -10.760566   -2.942155    1.172113
    101          8           0      -10.957464   -4.142548    0.768258
    102          6           0       -9.538947   -2.561336    1.896086
    103          7           0      -15.762011   -2.583131   -0.983114
    104          6           0      -14.711781   -3.422431   -0.960191
    105          6           0      -15.078610   -4.770945   -1.532317
    106          6           0      -16.666161   -4.739398   -1.722762
    107          6           0      -16.943746   -3.282281   -1.292466
    108          6           0      -14.414089   -5.133246   -2.860298
    109          6           0      -17.478857   -5.877367   -1.046575
    110          6           0      -17.402049   -5.743112    0.457243
    111          7           0      -17.801075   -0.559632   -0.449199
    112          6           0      -18.626438   -1.503577   -1.098672
    113          6           0      -19.938066   -0.859165   -1.315022
    114          6           0      -19.776276    0.433020   -0.792949
    115          6           0      -18.450765    0.589995   -0.305214
    116          6           0      -21.057915   -1.449830   -1.965536
    117          6           0      -20.422185    1.703458   -0.553183
    118          8           0      -21.568835    2.132018   -0.676751
    119          6           0      -19.313026    2.764192   -0.139635
    120          6           0      -19.805463    3.501371    1.075514
    121          8           0      -19.962415    2.905529    2.155766
    122          8           0      -19.801640    4.822571    0.820976
    123          6           0      -20.271765    5.596960    2.000440
    124          1           0      -12.407468    2.238795    0.314424
    125          1           0      -12.899446   -3.941478   -0.443032
    126          1           0      -18.994454   -3.342028   -1.830927
    127          1           0      -16.751525    4.566905    0.025939
    128          1           0      -14.069198    4.167607    0.789306
    129          1           0      -15.445988    4.151255   -1.864813
    130          1           0      -13.991557    3.136005   -1.774109
    131          1           0      -13.832445    4.832316   -1.432267
    132          1           0      -15.502905    3.649039    2.626754
    133          1           0      -17.300105    3.693409    2.511510
    134          1           0      -16.296739    6.206559    1.625604
    135          1           0      -15.199484    5.700562    2.860461
    136          1           0      -10.648599    1.549682    1.248375
    137          1           0       -9.623337    0.241899    0.760788
    138          1           0      -10.177247    0.276449    2.451576
    139          1           0       -8.990128   -1.823737    1.315397
    140          1           0       -9.024423   -3.499087    2.114599
    141          1           0       -9.826000   -2.073212    2.834150
    142          1           0      -14.823145   -5.566079   -0.842680
    143          1           0      -16.950957   -4.813771   -2.782574
    144          1           0      -13.842974   -6.079897   -2.818630
    145          1           0      -13.771607   -4.314201   -3.155126
    146          1           0      -15.091257   -5.212739   -3.709018
    147          1           0      -17.046446   -6.850021   -1.293827
    148          1           0      -18.520705   -5.902070   -1.348123
    149          1           0      -16.451612   -6.227677    0.700038
    150          1           0      -18.237928   -6.254202    0.930656
    151          1           0      -17.321213   -4.691183    0.754836
    152          1           0      -21.928748   -1.200722   -1.373849
    153          1           0      -20.938032   -2.526714   -2.064085
    154          1           0      -21.012260   -0.941550   -2.932408
    155          1           0      -19.163697    3.430509   -0.990104
    156          1           0      -21.108569    6.216349    1.663091
    157          1           0      -19.379101    6.123597    2.387178
    158          1           0      -20.731074    5.044707    2.811922
 ---------------------------------------------------------------------

 SCF Done:  E(RCAM-B3LYP) =  -4069.81178562     A.U. after   19 cycles

 Excitation energies and oscillator strengths:

 Excited State   1:      Singlet-A      1.6756 eV  739.94 nm  f=0.3855  <S**2>=0.000
     310 -> 316       -0.17342
     312 -> 314        0.68521
     310 <- 316       -0.10453
 This state for optimization and/or second-order correction.
 Total Energy, E(TD-HF/TD-DFT) =  -4069.75020861
 Copying the excited state density for this state as the 1-particle RhoCI density.

 Excited State   2:      Singlet-A      1.6799 eV  738.06 nm  f=0.3963  <S**2>=0.000
     309 -> 315        0.17536
     311 -> 313        0.68487
     309 <- 315        0.10502

 Excited State   3:      Singlet-A      2.1862 eV  567.13 nm  f=0.0951  <S**2>=0.000
     310 -> 314        0.64209
     312 -> 316        0.27300

 Excited State   4:      Singlet-A      2.1926 eV  565.47 nm  f=0.1050  <S**2>=0.000
     309 -> 313        0.64032
     311 -> 315       -0.27817

 Excited State   5:      Singlet-A      3.0621 eV  404.91 nm  f=0.0000  <S**2>=0.000
     312 -> 313        0.70710

 The electronic state is 1-A.
 Alpha  occ. eigenvalues --  -46.87815 -46.87660 -19.26352 -19.26309 -19.19163
 Alpha  occ. eigenvalues --  -19.19044 -19.18831 -19.18710 -19.18189 -19.18052
 Alpha  occ. eigenvalues --  -14.42497 -14.42468 -14.41467 -14.41359 -14.39421
 Alpha  occ. eigenvalues --  -14.39351 -14.38605 -14.38600 -10.39103 -10.39093
 Alpha  occ. eigenvalues --  -10.35464 -10.35387 -10.34409 -10.34230 -10.31759
 Alpha  occ. eigenvalues --  -10.31706 -10.31424 -10.31308 -10.31022 -10.30928
 Alpha  occ. eigenvalues --  -10.30588 -10.30525 -10.30397 -10.30360 -10.30224
 Alpha  occ. eigenvalues --  -10.30140 -10.29938 -10.29894 -10.29649 -10.29435
 Alpha  occ. eigenvalues --  -10.29400 -10.29272 -10.28770 -10.28718 -10.28655
 Alpha  occ. eigenvalues --  -10.28563 -10.28404 -10.28383 -10.28139 -10.28136
 Alpha  occ. eigenvalues --  -10.28000 -10.27811 -10.27745 -10.27668 -10.27602
 Alpha  occ. eigenvalues --  -10.27518 -10.27516 -10.27499 -10.27483 -10.27465
 Alpha  occ. eigenvalues --  -10.27465 -10.27460 -10.27422 -10.27375 -10.27179
 Alpha  occ. eigenvalues --  -10.27051 -10.26728 -10.26693 -10.26425 -10.26407
 Alpha  occ. eigenvalues --  -10.26253 -10.26199 -10.26139 -10.26037 -10.26022
 Alpha  occ. eigenvalues --  -10.25934 -10.25862 -10.25853 -10.25449 -10.25395
 Alpha  occ. eigenvalues --  -10.24873 -10.24851 -10.24805 -10.24732 -10.24703
 Alpha  occ. eigenvalues --  -10.24689  -3.16558  -3.16410  -1.91439  -1.91292
 Alpha  occ. eigenvalues --   -1.91026  -1.90881  -1.90868  -1.90717  -1.16657
 Alpha  occ. eigenvalues --   -1.16646  -1.08659  -1.08647  -1.07232  -1.06962
 Alpha  occ. eigenvalues --   -1.06948  -1.06666  -1.04600  -1.04494  -1.03778
 Alpha  occ. eigenvalues --   -1.03662  -1.03252  -1.03038  -1.02429  -1.02111
 Alpha  occ. eigenvalues --   -0.91991  -0.91987  -0.89537  -0.89494  -0.89208
 Alpha  occ. eigenvalues --   -0.89150  -0.88303  -0.88220  -0.87889  -0.87794
 Alpha  occ. eigenvalues --   -0.87692  -0.87683  -0.87291  -0.87117  -0.85002
 Alpha  occ. eigenvalues --   -0.84999  -0.83953  -0.83876  -0.82984  -0.82928
 Alpha  occ. eigenvalues --   -0.82668  -0.82651  -0.81607  -0.81597  -0.80616
 Alpha  occ. eigenvalues --   -0.80442  -0.78815  -0.78634  -0.77237  -0.77144
 Alpha  occ. eigenvalues --   -0.76954  -0.76898  -0.75943  -0.75838  -0.74915
 Alpha  occ. eigenvalues --   -0.74802  -0.72792  -0.72699  -0.71690  -0.71580
 Alpha  occ. eigenvalues --   -0.69923  -0.69758  -0.68892  -0.68826  -0.67660
 Alpha  occ. eigenvalues --   -0.67601  -0.67240  -0.67198  -0.65306  -0.65271
 Alpha  occ. eigenvalues --   -0.64873  -0.64770  -0.64654  -0.64640  -0.64286
 Alpha  occ. eigenvalues --   -0.64204  -0.62319  -0.62279  -0.60459  -0.60337
 Alpha  occ. eigenvalues --   -0.59824  -0.59796  -0.59006  -0.58992  -0.58522
 Alpha  occ. eigenvalues --   -0.58425  -0.57605  -0.57555  -0.57327  -0.57236
 Alpha  occ. eigenvalues --   -0.56328  -0.56203  -0.56001  -0.55887  -0.55538
 Alpha  occ. eigenvalues --   -0.55450  -0.55358  -0.55248  -0.54543  -0.54489
 Alpha  occ. eigenvalues --   -0.53915  -0.53912  -0.53317  -0.53241  -0.53227
 Alpha  occ. eigenvalues --   -0.53140  -0.52935  -0.52902  -0.52774  -0.52664
 Alpha  occ. eigenvalues --   -0.52455  -0.52402  -0.51933  -0.51886  -0.51657
 Alpha  occ. eigenvalues --   -0.51636  -0.51215  -0.51201  -0.50589  -0.50471
 Alpha  occ. eigenvalues --   -0.50048  -0.49978  -0.49936  -0.49866  -0.49533
 Alpha  occ. eigenvalues --   -0.49485  -0.49233  -0.49201  -0.49116  -0.49104
 Alpha  occ. eigenvalues --   -0.48612  -0.48558  -0.48478  -0.48464  -0.48376
 Alpha  occ. eigenvalues --   -0.48336  -0.47713  -0.47593  -0.47315  -0.47116
 Alpha  occ. eigenvalues --   -0.46815  -0.46709  -0.46575  -0.46553  -0.46377
 Alpha  occ. eigenvalues --   -0.46270  -0.46181  -0.46086  -0.45842  -0.45823
 Alpha  occ. eigenvalues --   -0.45218  -0.45208  -0.44597  -0.44525  -0.44514
 Alpha  occ. eigenvalues --   -0.44475  -0.44162  -0.44127  -0.44107  -0.44077
 Alpha  occ. eigenvalues --   -0.44038  -0.43937  -0.43554  -0.43515  -0.43404
 Alpha  occ. eigenvalues --   -0.43385  -0.43045  -0.42931  -0.42902  -0.42720
 Alpha  occ. eigenvalues --   -0.42673  -0.42553  -0.42028  -0.41964  -0.41723
 Alpha  occ. eigenvalues --   -0.41669  -0.41553  -0.41458  -0.41159  -0.40988
 Alpha  occ. eigenvalues --   -0.40888  -0.40840  -0.40720  -0.40697  -0.40588
 Alpha  occ. eigenvalues --   -0.40493  -0.40255  -0.40226  -0.39457  -0.39426
 Alpha  occ. eigenvalues --   -0.38486  -0.38350  -0.37769  -0.37654  -0.37337
 Alpha  occ. eigenvalues --   -0.37283  -0.37266  -0.37199  -0.36773  -0.36735
 Alpha  occ. eigenvalues --   -0.36217  -0.36212  -0.34304  -0.34253  -0.33864
 Alpha  occ. eigenvalues --   -0.33793  -0.33205  -0.33175  -0.31361  -0.31269
 Alpha  occ. eigenvalues --   -0.31054  -0.30972  -0.30049  -0.29957  -0.29467
 Alpha  occ. eigenvalues --   -0.29340  -0.29326  -0.29211  -0.24099  -0.24036
 Alpha  occ. eigenvalues --   -0.21146  -0.21116
 Alpha virt. eigenvalues --   -0.08792  -0.08791  -0.01767  -0.01683  -0.00076
 Alpha virt. eigenvalues --   -0.00026   0.02182   0.02207   0.03103   0.03226
 Alpha virt. eigenvalues --    0.04699   0.04730   0.05075   0.05163   0.06156

 Mulliken charges:
               1
     1  Mg   0.838776
     2  C   -0.002984
     3  C   -0.094151
     4  C   -0.045877
     5  C   -0.063937
     6  N   -0.256787
     7  C   -0.052489
     8  C   -0.014013
     9  C   -0.087018
    10  C    0.046338
    11  C    0.104810
    12  C    0.053484
    13  C   -0.071784
    14  H    0.036029
    15  N   -0.433174
    16  C    0.168426
    17  C   -0.177141
    18  C   -0.003990
    19  C    0.148709
    20  C    0.110173
    21  C    0.012288
    22  O   -0.249581
    23  C    0.062474
    24  N   -0.341154
    25  C    0.041277
    26  C   -0.028200
    27  C   -0.023967
    28  C    0.074826
    29  C    0.076155
    30  C    0.035124
    31  C   -0.004509
    32  N   -0.310471
    33  C    0.080400
    34  C   -0.169730
    35  C    0.008347
    36  C    0.082970
    37  C    0.127318
    38  C    0.046097
    39  O   -0.188478
    40  C   -0.005324
    41  C    0.212881
    42  O   -0.257164
    43  O   -0.304774
    44  C    0.157715
    45  H   -0.017587
    46  H   -0.016797
    47  H   -0.041477
    48  H    0.000939
    49  H   -0.004044
    50  H    0.025479
    51  H    0.016473
    52  H    0.016673
    53  H    0.011191
    54  H    0.044080
    55  H    0.017901
    56  H    0.017955
    57  H    0.005871
    58  H    0.026864
    59  H    0.039544
    60  H    0.037365
    61  H    0.035696
    62  H    0.031476
    63  H    0.016578
    64  H    0.009482
    65  H    0.023254
    66  H    0.012553
    67  H    0.004776
    68  H    0.006409
    69  H    0.004732
    70  H    0.008805
    71  H    0.018144
    72  H    0.028941
    73  H    0.047536
    74  H    0.009124
    75  H    0.046024
    76  H    0.035163
    77  H    0.042939
    78  H    0.046395
    79  H    0.053622
    80  Mg   0.837836
    81  C   -0.016846
    82  C   -0.087773
    83  C   -0.045488
    84  C   -0.064886
    85  N   -0.254563
    86  C   -0.049839
    87  C   -0.015102
    88  C   -0.090508
    89  C    0.045749
    90  C    0.114362
    91  C    0.062530
    92  C   -0.077894
    93  H    0.034865
    94  N   -0.423523
    95  C    0.162926
    96  C   -0.174562
    97  C   -0.007768
    98  C    0.152121
    99  C    0.099329
   100  C    0.015588
   101  O   -0.253138
   102  C    0.061193
   103  N   -0.350047
   104  C    0.037546
   105  C   -0.019850
   106  C   -0.034818
   107  C    0.088894
   108  C    0.073643
   109  C    0.034735
   110  C   -0.007674
   111  N   -0.324107
   112  C    0.078432
   113  C   -0.163155
   114  C    0.002238
   115  C    0.096177
   116  C    0.131495
   117  C    0.042359
   118  O   -0.187915
   119  C    0.000930
   120  C    0.211248
   121  O   -0.251029
   122  O   -0.305626
   123  C    0.152033
   124  H   -0.019583
   125  H   -0.015526
   126  H   -0.040478
   127  H   -0.000653
   128  H   -0.004303
   129  H    0.022450
   130  H    0.014469
   131  H    0.016342
   132  H    0.013917
   133  H    0.037657
   134  H    0.020802
   135  H    0.019608
   136  H    0.008796
   137  H    0.026282
   138  H    0.039808
   139  H    0.038347
   140  H    0.036451
   141  H    0.033861
   142  H    0.014410
   143  H    0.012420
   144  H    0.025178
   145  H    0.011687
   146  H    0.005678
   147  H    0.006275
   148  H    0.003632
   149  H    0.010945
   150  H    0.017911
   151  H    0.030096
   152  H    0.045979
   153  H    0.008500
   154  H    0.046930
   155  H    0.035026
   156  H    0.043900
   157  H    0.049502
   158  H    0.053565
 Sum of Mulliken charges =  -0.00000

 Dipole moment (field-independent basis, Debye):
    X=              6.0577    Y=              2.2506    Z=              3.6162  Tot=              7.4053
 Quadrupole moment (field-independent basis, Debye-Ang):
   XX=           -594.9276   YY=           -484.2421   ZZ=           -504.2054
   XY=              7.3319   XZ=             81.4822   YZ=             48.3374

 Normal termination of Gaussian 16 at Sun Sep 12 21:45:18 2021.
