 Gaussian 16, Revision A.03,
 Gaussian 16:  ES64L-G16RevA.03 25-Dec-2016

 -----------------------------------
 #p cam-b3lyp/Def2SVP td=(nstates=5)
 -----------------------------------

 --------------------------------
 TDDFT excited states in gaussian
 --------------------------------
 Symbolic Z-matrix:
 Charge =  0 Multiplicity = 1

                         Standard orientation:
 ---------------------------------------------------------------------
 Center     Atomic      Atomic             Coordinates (Angstroms)
 Number     Number       Type             X           Y           Z
 ---------------------------------------------------------------------
      1         12           0        3.538356   -1.678791   -0.004687
      2          6           0        4.720031    1.085196   -1.947942
      3          6           0        5.383963   -0.451736    2.589756
      4          6           0        2.875535   -4.342106    1.584036
      5          6           0        2.735378   -3.255871   -3.006970
      6          7           0        4.843340    0.100284    0.175746
      7          6           0        5.164704    1.112172   -0.624241
      8          6           0        5.956412    2.243210    0.097787
      9          6           0        6.569961    1.393495    1.299262
     10          6           0        5.519137    0.300661    1.385323
     11          6           0        7.915812    0.755925    0.969579
     12          6           0        5.019724    3.383149    0.622082
     13          6           0        5.731902    4.671190    1.045295
     14          1           0        5.076794    5.946943    0.799053
     15          7           0        3.640419   -2.077032    1.927627
     16          6           0        4.435548   -1.467172    2.839289
     17          6           0        4.144562   -2.118617    4.134522
     18          6           0        3.255477   -3.283439    3.868413
     19          6           0        3.242622   -3.296532    2.427912
     20          6           0        4.649087   -1.602233    5.446982
     21          6           0        2.540666   -4.240297    4.769301
     22          8           0        2.009546   -5.318144    4.332572
     23          6           0        2.555132   -3.922924    6.208782
     24          7           0        3.099848   -3.625712   -0.616932
     25          6           0        2.793387   -4.576317    0.272684
     26          6           0        2.245274   -5.798934   -0.401644
     27          6           0        2.012185   -5.394547   -1.928698
     28          6           0        2.575714   -3.952915   -1.879714
     29          6           0        3.128212   -7.052713   -0.334795
     30          6           0        0.590242   -5.611473   -2.504405
     31          6           0       -0.383143   -4.665246   -1.837865
     32          7           0        3.522547   -1.133226   -2.105438
     33          6           0        3.173149   -1.954431   -3.187204
     34          6           0        3.422387   -1.179065   -4.416333
     35          6           0        3.918324    0.041314   -3.961837
     36          6           0        3.999974    0.019495   -2.540166
     37          6           0        3.244192   -1.647796   -5.747862
     38          6           0        4.421427    1.349683   -4.347733
     39          8           0        4.499744    1.970162   -5.409036
     40          6           0        5.074972    2.033081   -3.066456
     41          6           0        4.552917    3.441768   -2.986644
     42          8           0        3.348384    3.665110   -2.748769
     43          8           0        5.585765    4.298113   -2.965655
     44          6           0        5.137667    5.712202   -2.857417
     45          1           0        6.104391   -0.293432    3.394656
     46          1           0        2.533718   -5.243300    2.097308
     47          1           0        2.428924   -3.651893   -3.976870
     48          1           0        6.758686    2.685103   -0.493407
     49          1           0        6.600223    1.964024    2.227326
     50          1           0        8.170537    0.884452   -0.082332
     51          1           0        7.802772   -0.301977    1.207397
     52          1           0        8.695056    1.130736    1.633712
     53          1           0        4.591553    3.084877    1.579038
     54          1           0        4.251946    3.621170   -0.114932
     55          1           0        6.760874    4.694427    0.685315
     56          1           0        5.824852    4.669029    2.131368
     57          1           0        5.409616   -0.834582    5.309678
     58          1           0        5.176772   -2.423917    5.930814
     59          1           0        3.839951   -1.255637    6.090023
     60          1           0        3.587381   -3.873000    6.555940
     61          1           0        1.920131   -4.667668    6.687301
     62          1           0        2.133984   -2.927866    6.355211
     63          1           0        1.294029   -6.095086    0.038643
     64          1           0        2.660463   -5.954051   -2.603507
     65          1           0        2.632006   -7.914360    0.112472
     66          1           0        4.035775   -6.797046    0.211333
     67          1           0        3.535414   -7.376587   -1.292245
     68          1           0        0.247076   -6.624190   -2.295628
     69          1           0        0.534233   -5.457890   -3.582146
     70          1           0       -0.643500   -5.190740   -0.919768
     71          1           0       -1.262096   -4.518660   -2.466486
     72          1           0        0.101565   -3.731367   -1.552534
     73          1           0        2.759348   -0.838562   -6.293789
     74          1           0        2.643337   -2.556674   -5.770625
     75          1           0        4.279265   -1.824085   -6.040099
     76          1           0        6.154370    2.004144   -3.212006
     77          1           0        5.572140    6.251895   -3.698962
     78          1           0        5.400694    6.044594   -1.853058
     79          1           0        4.075232    5.895137   -3.022050
     80         12           0       -3.681124    1.499807    0.942394
     81          6           0       -4.831278   -0.910919   -1.454395
     82          6           0       -2.306142    3.215174   -1.665578
     83          6           0       -2.273205    3.395992    3.061279
     84          6           0       -4.132127   -0.932073    3.397652
     85          7           0       -3.641660    1.102766   -1.233162
     86          6           0       -4.165206    0.188199   -2.035547
     87          6           0       -4.033244    0.508650   -3.548635
     88          6           0       -2.759092    1.483520   -3.477744
     89          6           0       -2.924478    1.998447   -2.049395
     90          6           0       -1.432576    0.747819   -3.569651
     91          6           0       -5.294160    1.251604   -4.114457
     92          6           0       -5.368624    1.320516   -5.641374
     93          1           0       -6.679820    1.236887   -6.278754
     94          7           0       -2.896230    3.309508    0.724468
     95          6           0       -2.407712    3.853384   -0.409913
     96          6           0       -1.928344    5.193941   -0.039373
     97          6           0       -2.023265    5.333969    1.439167
     98          6           0       -2.389723    3.981562    1.809041
     99          6           0       -1.516734    6.220307   -1.054550
    100          6           0       -1.806077    6.490149    2.367754
    101          8           0       -1.711306    6.326986    3.635511
    102          6           0       -1.614389    7.806606    1.741898
    103          7           0       -3.061092    1.205760    2.904905
    104          6           0       -2.524832    2.211300    3.618505
    105          6           0       -2.411584    1.843944    5.078855
    106          6           0       -3.209801    0.467399    5.238743
    107          6           0       -3.587142    0.220639    3.761538
    108          6           0       -0.989862    1.672570    5.613392
    109          6           0       -4.337425    0.427634    6.306235
    110          6           0       -5.474700    1.332277    5.889573
    111          7           0       -4.526577   -0.486659    1.027288
    112          6           0       -4.590505   -1.339158    2.151233
    113          6           0       -5.147380   -2.627250    1.689552
    114          6           0       -5.348924   -2.440981    0.313629
    115          6           0       -4.927263   -1.136304   -0.059860
    116          6           0       -5.355322   -3.780854    2.497065
    117          6           0       -5.812603   -3.055067   -0.909729
    118          8           0       -6.363708   -4.117811   -1.193633
    119          6           0       -5.380354   -2.135610   -2.132084
    120          6           0       -6.575366   -1.963561   -3.029233
    121          8           0       -7.581939   -1.351485   -2.630771
    122          8           0       -6.251715   -2.356961   -4.274568
    123          6           0       -7.401617   -2.194837   -5.203681
    124          1           0       -1.645612    3.709030   -2.378800
    125          1           0       -1.895388    4.047124    3.852958
    126          1           0       -4.394815   -1.707524    4.120376
    127          1           0       -3.812794   -0.346305   -4.176509
    128          1           0       -2.846326    2.299976   -4.189888
    129          1           0       -1.563935   -0.323835   -3.548619
    130          1           0       -0.854904    1.075020   -2.715088
    131          1           0       -0.878377    1.078742   -4.452641
    132          1           0       -5.213864    2.321260   -3.881799
    133          1           0       -6.196503    0.819290   -3.727806
    134          1           0       -4.663888    0.629726   -6.120023
    135          1           0       -5.032812    2.310042   -5.960864
    136          1           0       -1.394892    5.775344   -2.049825
    137          1           0       -0.509989    6.554482   -0.781319
    138          1           0       -2.183283    7.085198   -1.073218
    139          1           0       -0.757049    7.767606    1.074124
    140          1           0       -1.563867    8.518410    2.568133
    141          1           0       -2.488338    8.028622    1.119377
    142          1           0       -2.878160    2.595373    5.703957
    143          1           0       -2.544872   -0.357113    5.535176
    144          1           0       -0.765621    2.328795    6.475461
    145          1           0       -0.296245    1.857747    4.803981
    146          1           0       -0.728606    0.659450    5.914280
    147          1           0       -3.969070    0.811664    7.260700
    148          1           0       -4.724993   -0.569196    6.488192
    149          1           0       -5.141146    2.318697    6.225455
    150          1           0       -6.398571    1.038611    6.383800
    151          1           0       -5.568020    1.369891    4.798001
    152          1           0       -6.325705   -4.177404    2.229479
    153          1           0       -5.302072   -3.539359    3.556602
    154          1           0       -4.513534   -4.399243    2.174191
    155          1           0       -4.554661   -2.634248   -2.641173
    156          1           0       -7.579689   -3.171109   -5.665053
    157          1           0       -7.126044   -1.361966   -5.877588
    158          1           0       -8.372010   -1.986381   -4.768574
 ---------------------------------------------------------------------

 SCF Done:  E(RCAM-B3LYP) =  -4069.81316664     A.U. after   19 cycles

 Excitation energies and oscillator strengths:

 Excited State   1:      Singlet-A      1.6606 eV  746.64 nm  f=0.2452  <S**2>=0.000
     309 -> 315        0.11444
     310 -> 316        0.12427
     311 -> 313        0.45961
     312 -> 314        0.50960
 This state for optimization and/or second-order correction.
 Total Energy, E(TD-HF/TD-DFT) =  -4069.75214190
 Copying the excited state density for this state as the 1-particle RhoCI density.

 Excited State   2:      Singlet-A      1.6823 eV  737.00 nm  f=0.4011  <S**2>=0.000
     309 -> 315        0.13050
     310 -> 316       -0.11692
     311 -> 313        0.50859
     312 -> 314       -0.45910

 Excited State   3:      Singlet-A      2.1854 eV  567.33 nm  f=0.0925  <S**2>=0.000
     309 -> 313        0.10463
     310 -> 314        0.63394
     312 -> 316       -0.26700

 Excited State   4:      Singlet-A      2.1918 eV  565.68 nm  f=0.1031  <S**2>=0.000
     309 -> 313        0.63250
     310 -> 314       -0.10332
     311 -> 315       -0.27306

 Excited State   5:      Singlet-A      2.2158 eV  559.54 nm  f=0.0000  <S**2>=0.000
     312 -> 313        0.70701

 The electronic state is 1-A.
 Alpha  occ. eigenvalues --  -46.87955 -46.87381 -19.26658 -19.26174 -19.19431
 Alpha  occ. eigenvalues --  -19.18978 -19.18967 -19.18515 -19.18435 -19.17818
 Alpha  occ. eigenvalues --  -14.42607 -14.42179 -14.41593 -14.41099 -14.39561
 Alpha  occ. eigenvalues --  -14.39066 -14.38772 -14.38326 -10.39466 -10.38895
 Alpha  occ. eigenvalues --  -10.35610 -10.35195 -10.34657 -10.33998 -10.32072
 Alpha  occ. eigenvalues --  -10.31598 -10.31584 -10.31071 -10.30946 -10.30757
 Alpha  occ. eigenvalues --  -10.30694 -10.30683 -10.30326 -10.30151 -10.30072
 Alpha  occ. eigenvalues --  -10.30048 -10.29880 -10.29818 -10.29685 -10.29414
 Alpha  occ. eigenvalues --  -10.29134 -10.29132 -10.28909 -10.28686 -10.28551
 Alpha  occ. eigenvalues --  -10.28346 -10.28337 -10.28265 -10.28110 -10.27988
 Alpha  occ. eigenvalues --  -10.27883 -10.27764 -10.27705 -10.27641 -10.27626
 Alpha  occ. eigenvalues --  -10.27587 -10.27559 -10.27516 -10.27425 -10.27384
 Alpha  occ. eigenvalues --  -10.27283 -10.27262 -10.27204 -10.27189 -10.27030
 Alpha  occ. eigenvalues --  -10.26858 -10.26836 -10.26582 -10.26373 -10.26364
 Alpha  occ. eigenvalues --  -10.26240 -10.26175 -10.26168 -10.26088 -10.26029
 Alpha  occ. eigenvalues --  -10.25662 -10.25585 -10.25487 -10.25440 -10.25304
 Alpha  occ. eigenvalues --  -10.25044 -10.24939 -10.24653 -10.24616 -10.24590
 Alpha  occ. eigenvalues --  -10.24448  -3.16697  -3.16132  -1.91578  -1.91164
 Alpha  occ. eigenvalues --   -1.91014  -1.91007  -1.90602  -1.90439  -1.17010
 Alpha  occ. eigenvalues --   -1.16462  -1.08909  -1.08435  -1.07377  -1.07041
 Alpha  occ. eigenvalues --   -1.06775  -1.06752  -1.04746  -1.04177  -1.03911
 Alpha  occ. eigenvalues --   -1.03403  -1.03381  -1.02776  -1.02576  -1.01837
 Alpha  occ. eigenvalues --   -0.92178  -0.91714  -0.89633  -0.89341  -0.89285
 Alpha  occ. eigenvalues --   -0.88731  -0.88384  -0.88078  -0.88051  -0.87828
 Alpha  occ. eigenvalues --   -0.87512  -0.87442  -0.87359  -0.86828  -0.85143
 Alpha  occ. eigenvalues --   -0.84652  -0.84038  -0.83734  -0.83111  -0.82822
 Alpha  occ. eigenvalues --   -0.82707  -0.82337  -0.81835  -0.81355  -0.80796
 Alpha  occ. eigenvalues --   -0.80182  -0.78972  -0.78331  -0.77365  -0.77113
 Alpha  occ. eigenvalues --   -0.76865  -0.76605  -0.76118  -0.75489  -0.75018
 Alpha  occ. eigenvalues --   -0.74629  -0.72944  -0.72409  -0.71831  -0.71296
 Alpha  occ. eigenvalues --   -0.69963  -0.69599  -0.69039  -0.68495  -0.67823
 Alpha  occ. eigenvalues --   -0.67381  -0.67344  -0.66902  -0.65461  -0.65054
 Alpha  occ. eigenvalues --   -0.64948  -0.64788  -0.64502  -0.64383  -0.64377
 Alpha  occ. eigenvalues --   -0.63995  -0.62560  -0.62058  -0.60594  -0.60088
 Alpha  occ. eigenvalues --   -0.59969  -0.59429  -0.59159  -0.58725  -0.58688
 Alpha  occ. eigenvalues --   -0.58170  -0.57860  -0.57469  -0.57323  -0.57019
 Alpha  occ. eigenvalues --   -0.56513  -0.56249  -0.55913  -0.55708  -0.55643
 Alpha  occ. eigenvalues --   -0.55509  -0.55191  -0.55071  -0.54718  -0.54315
 Alpha  occ. eigenvalues --   -0.54057  -0.53525  -0.53470  -0.53412  -0.53140
 Alpha  occ. eigenvalues --   -0.52978  -0.52922  -0.52871  -0.52613  -0.52491
 Alpha  occ. eigenvalues --   -0.52354  -0.52244  -0.52146  -0.51799  -0.51619
 Alpha  occ. eigenvalues --   -0.51379  -0.51333  -0.50944  -0.50723  -0.50199
 Alpha  occ. eigenvalues --   -0.50132  -0.50063  -0.49743  -0.49698  -0.49593
 Alpha  occ. eigenvalues --   -0.49424  -0.49277  -0.49181  -0.48900  -0.48817
 Alpha  occ. eigenvalues --   -0.48737  -0.48644  -0.48587  -0.48275  -0.48191
 Alpha  occ. eigenvalues --   -0.48082  -0.47856  -0.47462  -0.47300  -0.46946
 Alpha  occ. eigenvalues --   -0.46846  -0.46727  -0.46540  -0.46430  -0.46340
 Alpha  occ. eigenvalues --   -0.46205  -0.46060  -0.46000  -0.45880  -0.45569
 Alpha  occ. eigenvalues --   -0.45311  -0.45050  -0.44806  -0.44651  -0.44325
 Alpha  occ. eigenvalues --   -0.44273  -0.44226  -0.44207  -0.44152  -0.43859
 Alpha  occ. eigenvalues --   -0.43788  -0.43746  -0.43661  -0.43526  -0.43323
 Alpha  occ. eigenvalues --   -0.43204  -0.43094  -0.43017  -0.42749  -0.42724
 Alpha  occ. eigenvalues --   -0.42651  -0.42344  -0.42135  -0.41882  -0.41739
 Alpha  occ. eigenvalues --   -0.41684  -0.41414  -0.41297  -0.41153  -0.41009
 Alpha  occ. eigenvalues --   -0.40971  -0.40685  -0.40669  -0.40481  -0.40415
 Alpha  occ. eigenvalues --   -0.40380  -0.40224  -0.39912  -0.39477  -0.39273
 Alpha  occ. eigenvalues --   -0.38565  -0.38165  -0.37912  -0.37445  -0.37435
 Alpha  occ. eigenvalues --   -0.37340  -0.37031  -0.37019  -0.36869  -0.36585
 Alpha  occ. eigenvalues --   -0.36376  -0.35993  -0.34460  -0.34144  -0.33977
 Alpha  occ. eigenvalues --   -0.33652  -0.33368  -0.32889  -0.31505  -0.31205
 Alpha  occ. eigenvalues --   -0.31076  -0.30693  -0.30299  -0.29728  -0.29634
 Alpha  occ. eigenvalues --   -0.29521  -0.29049  -0.28936  -0.24248  -0.23747
 Alpha  occ. eigenvalues --   -0.21293  -0.20825
 Alpha virt. eigenvalues --   -0.08950  -0.08503  -0.01903  -0.01418  -0.00236
 Alpha virt. eigenvalues --    0.00257   0.01982   0.02351   0.02573   0.03608
 Alpha virt. eigenvalues --    0.04562   0.04740   0.05090   0.05373   0.05988

 Mulliken charges:
               1
     1  Mg   0.839181
     2  C   -0.003709
     3  C   -0.093606
     4  C   -0.045275
     5  C   -0.064351
     6  N   -0.257024
     7  C   -0.052153
     8  C   -0.014300
     9  C   -0.087244
    10  C    0.046929
    11  C    0.104685
    12  C    0.053329
    13  C   -0.071609
    14  H    0.034775
    15  N   -0.433352
    16  C    0.169122
    17  C   -0.176961
    18  C   -0.003796
    19  C    0.149497
    20  C    0.110084
    21  C    0.012230
    22  O   -0.248766
    23  C    0.062559
    24  N   -0.341328
    25  C    0.041851
    26  C   -0.028485
    27  C   -0.024014
    28  C    0.075256
    29  C    0.075996
    30  C    0.034705
    31  C   -0.005813
    32  N   -0.310068
    33  C    0.079835
    34  C   -0.171618
    35  C    0.007182
    36  C    0.081940
    37  C    0.127825
    38  C    0.043791
    39  O   -0.190119
    40  C   -0.004767
    41  C    0.213394
    42  O   -0.261205
    43  O   -0.303631
    44  C    0.158530
    45  H   -0.017103
    46  H   -0.016120
    47  H   -0.041496
    48  H    0.000644
    49  H   -0.003252
    50  H    0.025412
    51  H    0.016644
    52  H    0.017170
    53  H    0.013246
    54  H    0.042315
    55  H    0.017801
    56  H    0.019623
    57  H    0.006598
    58  H    0.027319
    59  H    0.039683
    60  H    0.037976
    61  H    0.035846
    62  H    0.030343
    63  H    0.017682
    64  H    0.009632
    65  H    0.024109
    66  H    0.012241
    67  H    0.005106
    68  H    0.008499
    69  H    0.004092
    70  H    0.011017
    71  H    0.020109
    72  H    0.027539
    73  H    0.044945
    74  H    0.009441
    75  H    0.046656
    76  H    0.035808
    77  H    0.043453
    78  H    0.047578
    79  H    0.050107
    80  Mg   0.836510
    81  C   -0.016248
    82  C   -0.085498
    83  C   -0.046475
    84  C   -0.064697
    85  N   -0.254826
    86  C   -0.049910
    87  C   -0.015019
    88  C   -0.089957
    89  C    0.043211
    90  C    0.112207
    91  C    0.062488
    92  C   -0.077420
    93  H    0.033160
    94  N   -0.423967
    95  C    0.161385
    96  C   -0.170444
    97  C   -0.009339
    98  C    0.153265
    99  C    0.099160
   100  C    0.015065
   101  O   -0.255022
   102  C    0.061478
   103  N   -0.350280
   104  C    0.037511
   105  C   -0.019437
   106  C   -0.034723
   107  C    0.088506
   108  C    0.074852
   109  C    0.035033
   110  C   -0.007506
   111  N   -0.324005
   112  C    0.077569
   113  C   -0.163396
   114  C    0.001912
   115  C    0.095640
   116  C    0.131750
   117  C    0.041724
   118  O   -0.189652
   119  C    0.000378
   120  C    0.211212
   121  O   -0.250999
   122  O   -0.305926
   123  C    0.152161
   124  H   -0.008853
   125  H   -0.017418
   126  H   -0.040981
   127  H   -0.002167
   128  H   -0.003272
   129  H    0.018392
   130  H    0.021902
   131  H    0.022954
   132  H    0.013899
   133  H    0.036605
   134  H    0.020742
   135  H    0.020511
   136  H    0.013406
   137  H    0.027973
   138  H    0.037807
   139  H    0.038139
   140  H    0.034855
   141  H    0.034108
   142  H    0.013845
   143  H    0.011412
   144  H    0.023312
   145  H    0.011421
   146  H    0.002056
   147  H    0.004646
   148  H    0.003759
   149  H    0.010333
   150  H    0.017536
   151  H    0.030987
   152  H    0.044951
   153  H    0.008127
   154  H    0.047410
   155  H    0.033723
   156  H    0.042933
   157  H    0.049976
   158  H    0.053377
 Sum of Mulliken charges =  -0.00000

 Dipole moment (field-independent basis, Debye):
    X=              5.9519    Y=              2.2611    Z=              1.5653  Tot=              6.5565
 Quadrupole moment (field-independent basis, Debye-Ang):
   XX=           -521.4114   YY=           -510.8858   ZZ=           -487.9919
   XY=             -9.9958   XZ=             28.6951   YZ=              0.7010

 Normal termination of Gaussian 16 at Fri Sep  3 12:13:49 2021.
