 Gaussian 16, Revision A.03,
 Gaussian 16:  ES64L-G16RevA.03 25-Dec-2016

 -----------------------------------
 #p cam-b3lyp/Def2SVP td=(nstates=5)
 -----------------------------------

 --------------------------------
 TDDFT excited states in gaussian
 --------------------------------
 Symbolic Z-matrix:
 Charge =  0 Multiplicity = 1

                         Standard orientation:
 ---------------------------------------------------------------------
 Center     Atomic      Atomic             Coordinates (Angstroms)
 Number     Number       Type             X           Y           Z
 ---------------------------------------------------------------------
      1         12           0        3.445362    1.131519    0.327940
      2          6           0        4.289712   -1.925654   -1.331270
      3          6           0        4.216713    2.747372   -2.576729
      4          6           0        3.144715    3.869950    1.898682
      5          6           0        3.838590   -0.569129    3.344367
      6          7           0        4.150652    0.394404   -1.636716
      7          6           0        4.377339   -0.805837   -2.161315
      8          6           0        4.643290   -0.769100   -3.696012
      9          6           0        5.149528    0.737007   -3.827782
     10          6           0        4.435942    1.338781   -2.630039
     11          6           0        6.654180    0.893304   -3.632603
     12          6           0        3.340988   -1.010887   -4.531044
     13          6           0        3.563590   -1.314536   -6.015496
     14          1           0        2.674883   -2.256887   -6.678461
     15          7           0        3.177977    2.970457   -0.342628
     16          6           0        3.538748    3.450042   -1.557177
     17          6           0        3.125420    4.869746   -1.573975
     18          6           0        2.667097    5.226478   -0.202561
     19          6           0        3.007261    4.028519    0.521704
     20          6           0        3.142503    5.717141   -2.809037
     21          6           0        2.034107    6.456410    0.367283
     22          8           0        1.928360    6.645534    1.627293
     23          6           0        1.615397    7.487755   -0.599181
     24          7           0        3.697911    1.653448    2.333294
     25          6           0        3.447268    2.896149    2.759740
     26          6           0        3.421377    2.964483    4.257938
     27          6           0        3.466699    1.452787    4.770259
     28          6           0        3.600572    0.743232    3.400267
     29          6           0        4.560433    3.759164    4.911425
     30          6           0        2.335665    1.000581    5.727698
     31          6           0        1.015783    0.981006    4.989711
     32          7           0        3.795179   -0.923135    0.933805
     33          6           0        3.947528   -1.401780    2.243141
     34          6           0        4.273174   -2.836386    2.143497
     35          6           0        4.304157   -3.090557    0.773723
     36          6           0        4.041995   -1.884995    0.062256
     37          6           0        4.552821   -3.705240    3.234975
     38          6           0        4.522052   -4.094826   -0.254782
     39          8           0        4.688357   -5.315414   -0.253551
     40          6           0        4.641748   -3.355198   -1.659933
     41          6           0        3.763261   -4.089082   -2.636142
     42          8           0        2.522089   -4.087476   -2.506315
     43          8           0        4.496555   -4.473576   -3.692071
     44          6           0        3.678814   -5.182002   -4.712652
     45          1           0        4.652742    3.379162   -3.353041
     46          1           0        2.939128    4.768869    2.483589
     47          1           0        3.891755   -1.183328    4.245137
     48          1           0        5.418865   -1.453930   -4.039402
     49          1           0        4.802565    1.203789   -4.749440
     50          1           0        7.112740   -0.040207   -3.306718
     51          1           0        6.770232    1.661703   -2.868019
     52          1           0        7.122067    1.293079   -4.532624
     53          1           0        2.788264   -0.075107   -4.613943
     54          1           0        2.739731   -1.804929   -4.086842
     55          1           0        4.605334   -1.563642   -6.219518
     56          1           0        3.388031   -0.399550   -6.581340
     57          1           0        3.683261    5.231584   -3.620432
     58          1           0        3.734899    6.602620   -2.579467
     59          1           0        2.139899    6.015077   -3.116204
     60          1           0        2.481977    7.815490   -1.173793
     61          1           0        1.103197    8.253957   -0.018289
     62          1           0        0.924150    7.041361   -1.314623
     63          1           0        2.504783    3.434367    4.612184
     64          1           0        4.382986    1.234262    5.319204
     65          1           0        4.216236    4.571665    5.551797
     66          1           0        5.208135    4.133274    4.119078
     67          1           0        5.257872    3.160789    5.497038
     68          1           0        2.231959    1.705642    6.551761
     69          1           0        2.503740    0.012335    6.155919
     70          1           0        0.689111    2.018680    5.047592
     71          1           0        0.308613    0.320454    5.492496
     72          1           0        1.152836    0.740878    3.935177
     73          1           0        4.018742   -4.633159    3.030783
     74          1           0        4.237164   -3.266510    4.181273
     75          1           0        5.636514   -3.788567    3.154220
     76          1           0        5.692433   -3.393434   -1.945801
     77          1           0        4.145775   -6.152502   -4.880915
     78          1           0        3.593550   -4.507034   -5.564446
     79          1           0        2.678416   -5.485968   -4.402573
     80         12           0       -4.350494   -0.250654   -0.130271
     81          6           0       -1.479208   -2.071715    1.018003
     82          6           0       -2.481848    2.587723    0.163635
     83          6           0       -6.983996    1.423611   -0.703792
     84          6           0       -6.282569   -3.014047    0.750893
     85          7           0       -2.262356    0.085731    0.516860
     86          6           0       -1.247554   -0.688151    0.871301
     87          6           0        0.110586    0.052003    1.002394
     88          6           0       -0.447871    1.532592    1.276009
     89          6           0       -1.802664    1.415175    0.580711
     90          6           0       -0.689989    1.821976    2.748075
     91          6           0        0.954306   -0.008548   -0.319152
     92          6           0        2.414889    0.422970   -0.169975
     93          1           0        3.427873   -0.261283   -0.968816
     94          7           0       -4.572988    1.631067   -0.720337
     95          6           0       -3.705596    2.648842   -0.538531
     96          6           0       -4.342606    3.832117   -1.137053
     97          6           0       -5.727381    3.465687   -1.540616
     98          6           0       -5.824352    2.136019   -0.972581
     99          6           0       -3.614793    5.127527   -1.350675
    100          6           0       -6.793082    4.196637   -2.299677
    101          8           0       -8.004813    3.779892   -2.329240
    102          6           0       -6.396662    5.464419   -2.929822
    103          7           0       -6.366717   -0.637750    0.197379
    104          6           0       -7.310881    0.236115   -0.193561
    105          6           0       -8.689223   -0.374503   -0.105744
    106          6           0       -8.452881   -1.926936    0.197000
    107          6           0       -6.913795   -1.928178    0.325896
    108          6           0       -9.612103    0.216771    0.959648
    109          6           0       -9.114024   -2.942146   -0.775068
    110          6           0       -8.466129   -2.848957   -2.137759
    111          7           0       -3.965162   -2.263314    0.554394
    112          6           0       -4.920393   -3.247985    0.889141
    113          6           0       -4.178888   -4.414225    1.411131
    114          6           0       -2.834545   -4.015330    1.365012
    115          6           0       -2.746074   -2.686349    0.869547
    116          6           0       -4.759217   -5.621814    1.891824
    117          6           0       -1.470987   -4.412434    1.632802
    118          8           0       -0.922974   -5.457624    1.980653
    119          6           0       -0.542273   -3.125937    1.538946
    120          6           0        0.654345   -3.477251    0.697987
    121          8           0        0.521373   -3.748615   -0.508360
    122          8           0        1.774855   -3.224212    1.398554
    123          6           0        2.988970   -3.546437    0.602365
    124          1           0       -2.060418    3.555883    0.435554
    125          1           0       -7.916637    1.916207   -0.988399
    126          1           0       -6.805349   -3.950955    0.954824
    127          1           0        0.726442   -0.272417    1.832606
    128          1           0        0.167646    2.283457    0.787446
    129          1           0       -0.558004    0.941236    3.358835
    130          1           0       -1.709506    2.178753    2.813929
    131          1           0       -0.058390    2.651782    3.077970
    132          1           0        0.598087    0.768798   -1.007325
    133          1           0        0.909488   -0.987530   -0.755277
    134          1           0        2.724278    0.474163    0.881021
    135          1           0        2.511380    1.450796   -0.528143
    136          1           0       -2.663815    5.149467   -0.804263
    137          1           0       -4.216152    5.913396   -0.880947
    138          1           0       -3.483379    5.367449   -2.407947
    139          1           0       -6.022909    6.144816   -2.168359
    140          1           0       -7.268209    5.792671   -3.499492
    141          1           0       -5.563351    5.269456   -3.614069
    142          1           0       -9.216385   -0.276256   -1.046785
    143          1           0       -8.850868   -2.215374    1.180994
    144          1           0      -10.564910    0.599804    0.547928
    145          1           0       -9.077598    1.003029    1.476012
    146          1           0       -9.871172   -0.459073    1.772870
    147          1           0      -10.169970   -2.698803   -0.916166
    148          1           0       -9.063757   -3.968603   -0.427426
    149          1           0       -8.988828   -2.007598   -2.602505
    150          1           0       -8.620614   -3.768257   -2.699056
    151          1           0       -7.408495   -2.573563   -2.052679
    152          1           0       -4.167821   -6.433326    1.489086
    153          1           0       -5.803363   -5.705735    1.597730
    154          1           0       -4.646704   -5.476756    2.969586
    155          1           0       -0.261107   -2.849965    2.555983
    156          1           0        3.581812   -4.250404    1.194519
    157          1           0        3.455614   -2.572706    0.361831
    158          1           0        2.852309   -4.105268   -0.316050
 ---------------------------------------------------------------------

 SCF Done:  E(RCAM-B3LYP) =  -4068.53487988     A.U. after   23 cycles

 Excitation energies and oscillator strengths:

 Excited State   1:      Singlet-A      0.6631 eV 1869.83 nm  f=0.0289  <S**2>=0.000
     308 -> 314        0.16441
     312 -> 314        0.67152
     312 -> 317        0.11059
 This state for optimization and/or second-order correction.
 Total Energy, E(TD-HF/TD-DFT) =  -4068.51051224
 Copying the excited state density for this state as the 1-particle RhoCI density.

 Excited State   2:      Singlet-A      1.3772 eV  900.28 nm  f=0.0001  <S**2>=0.000
     312 -> 313        0.70310

 Excited State   3:      Singlet-A      1.5781 eV  785.67 nm  f=0.0118  <S**2>=0.000
     308 -> 315        0.14970
     311 -> 313        0.19937
     312 -> 315        0.63369
     312 -> 317       -0.11145

 Excited State   4:      Singlet-A      1.6604 eV  746.71 nm  f=0.3614  <S**2>=0.000
     310 -> 316        0.15863
     311 -> 313        0.65529
     312 -> 315       -0.18435

 Excited State   5:      Singlet-A      2.0109 eV  616.55 nm  f=0.0147  <S**2>=0.000
     306 -> 314        0.23729
     308 -> 314       -0.37009
     308 -> 315        0.10388
     309 -> 314        0.47913
     309 -> 315       -0.12006

 The electronic state is 1-A.
 Alpha  occ. eigenvalues --  -46.87297 -46.81537 -19.31215 -19.29133 -19.25445
 Alpha  occ. eigenvalues --  -19.22438 -19.21188 -19.18478 -19.18261 -19.15909
 Alpha  occ. eigenvalues --  -14.43171 -14.42174 -14.41887 -14.41064 -14.39010
 Alpha  occ. eigenvalues --  -14.38328 -14.37939 -14.36413 -10.43163 -10.42470
 Alpha  occ. eigenvalues --  -10.41314 -10.39192 -10.38658 -10.35149 -10.34537
 Alpha  occ. eigenvalues --  -10.33889 -10.33670 -10.33459 -10.32672 -10.32353
 Alpha  occ. eigenvalues --  -10.32049 -10.30763 -10.30457 -10.30218 -10.30162
 Alpha  occ. eigenvalues --  -10.30158 -10.30077 -10.29990 -10.29870 -10.29774
 Alpha  occ. eigenvalues --  -10.29673 -10.29302 -10.29157 -10.29058 -10.28316
 Alpha  occ. eigenvalues --  -10.28194 -10.28081 -10.27973 -10.27755 -10.27615
 Alpha  occ. eigenvalues --  -10.27582 -10.27557 -10.27441 -10.27394 -10.27282
 Alpha  occ. eigenvalues --  -10.27265 -10.27220 -10.27162 -10.27075 -10.27037
 Alpha  occ. eigenvalues --  -10.26959 -10.26906 -10.26708 -10.26694 -10.26144
 Alpha  occ. eigenvalues --  -10.26132 -10.26047 -10.25963 -10.25954 -10.25728
 Alpha  occ. eigenvalues --  -10.25636 -10.25583 -10.25219 -10.25192 -10.24710
 Alpha  occ. eigenvalues --  -10.24588 -10.24459 -10.24426 -10.24306 -10.24182
 Alpha  occ. eigenvalues --  -10.24177 -10.24155 -10.24101 -10.23852 -10.21064
 Alpha  occ. eigenvalues --  -10.19868  -3.18276  -3.16047  -1.95125  -1.92226
 Alpha  occ. eigenvalues --   -1.91207  -1.90930  -1.90515  -1.90357  -1.27689
 Alpha  occ. eigenvalues --   -1.19928  -1.19596  -1.16366  -1.10151  -1.09588
 Alpha  occ. eigenvalues --   -1.08642  -1.08372  -1.06729  -1.04530  -1.04463
 Alpha  occ. eigenvalues --   -1.04001  -1.03258  -1.02748  -1.01801  -1.01512
 Alpha  occ. eigenvalues --   -1.00449  -0.96739  -0.92032  -0.91643  -0.91149
 Alpha  occ. eigenvalues --   -0.89308  -0.88603  -0.88170  -0.87965  -0.87879
 Alpha  occ. eigenvalues --   -0.87547  -0.87348  -0.87002  -0.86796  -0.86104
 Alpha  occ. eigenvalues --   -0.84736  -0.84566  -0.84189  -0.84046  -0.83769
 Alpha  occ. eigenvalues --   -0.83043  -0.82737  -0.82517  -0.82168  -0.81228
 Alpha  occ. eigenvalues --   -0.80716  -0.80273  -0.79578  -0.79145  -0.78323
 Alpha  occ. eigenvalues --   -0.77948  -0.77718  -0.77036  -0.76620  -0.75740
 Alpha  occ. eigenvalues --   -0.75569  -0.74687  -0.73824  -0.72645  -0.72218
 Alpha  occ. eigenvalues --   -0.71554  -0.70909  -0.69930  -0.69679  -0.69173
 Alpha  occ. eigenvalues --   -0.68768  -0.68462  -0.68141  -0.67495  -0.67051
 Alpha  occ. eigenvalues --   -0.66895  -0.66026  -0.65083  -0.64778  -0.64475
 Alpha  occ. eigenvalues --   -0.64303  -0.63960  -0.63620  -0.63470  -0.62855
 Alpha  occ. eigenvalues --   -0.61951  -0.60868  -0.60512  -0.60077  -0.59983
 Alpha  occ. eigenvalues --   -0.59046  -0.58997  -0.58650  -0.58511  -0.58136
 Alpha  occ. eigenvalues --   -0.57941  -0.57792  -0.57375  -0.57028  -0.56835
 Alpha  occ. eigenvalues --   -0.56352  -0.56153  -0.55878  -0.55511  -0.55115
 Alpha  occ. eigenvalues --   -0.54978  -0.54794  -0.54701  -0.54109  -0.54060
 Alpha  occ. eigenvalues --   -0.53891  -0.53405  -0.53348  -0.53191  -0.53155
 Alpha  occ. eigenvalues --   -0.52814  -0.52626  -0.52300  -0.52236  -0.52078
 Alpha  occ. eigenvalues --   -0.51898  -0.51707  -0.51621  -0.51377  -0.50834
 Alpha  occ. eigenvalues --   -0.50796  -0.50571  -0.50535  -0.50210  -0.49976
 Alpha  occ. eigenvalues --   -0.49835  -0.49651  -0.49488  -0.49355  -0.49178
 Alpha  occ. eigenvalues --   -0.48953  -0.48860  -0.48753  -0.48467  -0.48362
 Alpha  occ. eigenvalues --   -0.48215  -0.48090  -0.47961  -0.47910  -0.47646
 Alpha  occ. eigenvalues --   -0.47478  -0.47356  -0.47195  -0.46810  -0.46615
 Alpha  occ. eigenvalues --   -0.46469  -0.46197  -0.45975  -0.45902  -0.45729
 Alpha  occ. eigenvalues --   -0.45632  -0.45378  -0.45335  -0.45217  -0.44963
 Alpha  occ. eigenvalues --   -0.44747  -0.44722  -0.44650  -0.44305  -0.44106
 Alpha  occ. eigenvalues --   -0.44043  -0.43883  -0.43840  -0.43771  -0.43431
 Alpha  occ. eigenvalues --   -0.43360  -0.43184  -0.42896  -0.42777  -0.42283
 Alpha  occ. eigenvalues --   -0.42237  -0.42077  -0.41851  -0.41817  -0.41779
 Alpha  occ. eigenvalues --   -0.41510  -0.41245  -0.41122  -0.41007  -0.40654
 Alpha  occ. eigenvalues --   -0.40445  -0.40363  -0.40235  -0.40093  -0.39897
 Alpha  occ. eigenvalues --   -0.39613  -0.39310  -0.39241  -0.39097  -0.38883
 Alpha  occ. eigenvalues --   -0.38492  -0.38338  -0.38070  -0.37905  -0.37666
 Alpha  occ. eigenvalues --   -0.37610  -0.37061  -0.36991  -0.36669  -0.36543
 Alpha  occ. eigenvalues --   -0.36074  -0.35566  -0.35166  -0.34586  -0.33969
 Alpha  occ. eigenvalues --   -0.33250  -0.32925  -0.32765  -0.31580  -0.31033
 Alpha  occ. eigenvalues --   -0.30625  -0.30242  -0.29114  -0.28967  -0.28637
 Alpha  occ. eigenvalues --   -0.27282  -0.26499  -0.25059  -0.24009  -0.23752
 Alpha  occ. eigenvalues --   -0.20718  -0.17476
 Alpha virt. eigenvalues --   -0.08511  -0.07893  -0.04256  -0.01342  -0.00816
 Alpha virt. eigenvalues --    0.00307   0.00903   0.02154   0.02232   0.03242
 Alpha virt. eigenvalues --    0.03496   0.03686   0.04913   0.05088   0.05517

 Mulliken charges:
               1
     1  Mg   0.839680
     2  C    0.009797
     3  C   -0.072849
     4  C   -0.089606
     5  C   -0.138250
     6  N   -0.205795
     7  C   -0.063752
     8  C   -0.015700
     9  C   -0.065070
    10  C    0.044189
    11  C    0.107556
    12  C    0.044692
    13  C   -0.073417
    14  H    0.038470
    15  N   -0.453652
    16  C    0.152345
    17  C   -0.182792
    18  C   -0.028366
    19  C    0.161190
    20  C    0.115269
    21  C   -0.003899
    22  O   -0.267706
    23  C    0.067461
    24  N   -0.373811
    25  C    0.057704
    26  C   -0.019593
    27  C   -0.026136
    28  C    0.113352
    29  C    0.081387
    30  C    0.077563
    31  C   -0.067101
    32  N   -0.327401
    33  C    0.151707
    34  C   -0.358559
    35  C    0.506469
    36  C    0.224505
    37  C    0.168325
    38  C   -0.231204
    39  O   -0.118939
    40  C    0.048241
    41  C    0.239429
    42  O   -0.226443
    43  O   -0.301309
    44  C    0.153417
    45  H   -0.021827
    46  H   -0.033912
    47  H   -0.060469
    48  H   -0.005249
    49  H   -0.004122
    50  H    0.011976
    51  H    0.022905
    52  H    0.014786
    53  H    0.026164
    54  H    0.044304
    55  H    0.017660
    56  H    0.024214
    57  H   -0.009362
    58  H    0.014820
    59  H    0.023969
    60  H    0.033171
    61  H    0.023790
    62  H    0.020589
    63  H    0.008955
    64  H    0.007852
    65  H    0.018232
    66  H    0.014396
    67  H   -0.003942
    68  H    0.003383
    69  H   -0.004179
    70  H    0.020259
    71  H    0.019103
    72  H    0.047386
    73  H    0.029804
    74  H    0.030901
    75  H    0.039459
    76  H    0.058707
    77  H    0.050413
    78  H    0.056554
    79  H    0.064418
    80  Mg   0.837058
    81  C   -0.020276
    82  C   -0.088237
    83  C   -0.046370
    84  C   -0.064836
    85  N   -0.260437
    86  C   -0.025054
    87  C   -0.051065
    88  C   -0.109329
    89  C    0.057279
    90  C    0.105366
    91  C    0.185165
    92  C   -0.570473
    93  H    0.310625
    94  N   -0.424086
    95  C    0.164248
    96  C   -0.172282
    97  C   -0.008011
    98  C    0.153335
    99  C    0.096864
   100  C    0.015369
   101  O   -0.253587
   102  C    0.061543
   103  N   -0.349750
   104  C    0.038214
   105  C   -0.020064
   106  C   -0.034028
   107  C    0.087169
   108  C    0.073759
   109  C    0.035085
   110  C   -0.007417
   111  N   -0.322975
   112  C    0.076304
   113  C   -0.164410
   114  C    0.000929
   115  C    0.095337
   116  C    0.131761
   117  C    0.043974
   118  O   -0.193121
   119  C   -0.007259
   120  C    0.236538
   121  O   -0.211375
   122  O   -0.255214
   123  C    0.327317
   124  H   -0.006977
   125  H   -0.016072
   126  H   -0.042216
   127  H    0.003432
   128  H    0.037278
   129  H    0.031990
   130  H   -0.000462
   131  H    0.032440
   132  H    0.000351
   133  H   -0.000189
   134  H   -0.078755
   135  H    0.108961
   136  H    0.017893
   137  H    0.027651
   138  H    0.038662
   139  H    0.039635
   140  H    0.035576
   141  H    0.033549
   142  H    0.013711
   143  H    0.011616
   144  H    0.024593
   145  H    0.012282
   146  H    0.005327
   147  H    0.005481
   148  H    0.002787
   149  H    0.010559
   150  H    0.016554
   151  H    0.030311
   152  H    0.043581
   153  H    0.008189
   154  H    0.045569
   155  H    0.039062
   156  H    0.011893
   157  H   -0.436280
   158  H    0.121930
 Sum of Mulliken charges =  -0.00000

 Dipole moment (field-independent basis, Debye):
    X=              3.6226    Y=             -3.5167    Z=             -3.9118  Tot=              6.3869
 Quadrupole moment (field-independent basis, Debye-Ang):
   XX=           -489.4234   YY=           -546.9744   ZZ=           -478.9873
   XY=             -5.9653   XZ=            -27.0864   YZ=             -6.2739

 Normal termination of Gaussian 16 at Thu Sep  9 01:15:19 2021.
