 Gaussian 16, Revision A.03,
 Gaussian 16:  ES64L-G16RevA.03 25-Dec-2016

 -----------------------------------
 #p cam-b3lyp/Def2SVP td=(nstates=5)
 -----------------------------------

 --------------------------------
 TDDFT excited states in gaussian
 --------------------------------
 Symbolic Z-matrix:
 Charge =  0 Multiplicity = 1

                         Standard orientation:
 ---------------------------------------------------------------------
 Center     Atomic      Atomic             Coordinates (Angstroms)
 Number     Number       Type             X           Y           Z
 ---------------------------------------------------------------------
      1         12           0       -5.218829   -0.645764    0.302212
      2          6           0       -5.350279    2.915660   -0.031249
      3          6           0       -6.241622   -0.838733   -2.947361
      4          6           0       -5.548330   -3.773943    0.705385
      5          6           0       -5.318359   -0.178427    3.754363
      6          7           0       -5.700414    0.911473   -1.195699
      7          6           0       -5.652908    2.239827   -1.215440
      8          6           0       -5.881111    2.845205   -2.632767
      9          6           0       -6.692757    1.642003   -3.292716
     10          6           0       -6.154581    0.496702   -2.453326
     11          6           0       -8.200701    1.737499   -3.084181
     12          6           0       -4.536195    3.111870   -3.388956
     13          6           0       -4.650898    3.996066   -4.634105
     14          1           0       -3.565270    4.914272   -4.943391
     15          7           0       -5.331852   -2.103849   -1.025969
     16          6           0       -5.755141   -1.999883   -2.308663
     17          6           0       -5.653161   -3.358747   -2.882920
     18          6           0       -5.316616   -4.296477   -1.775900
     19          6           0       -5.412485   -3.421656   -0.635341
     20          6           0       -5.818511   -3.649529   -4.343007
     21          6           0       -4.974745   -5.752682   -1.748999
     22          8           0       -4.944046   -6.424156   -0.661454
     23          6           0       -4.760480   -6.401408   -3.055249
     24          7           0       -5.628057   -1.826738    1.974177
     25          6           0       -5.658682   -3.160992    1.885792
     26          6           0       -5.686385   -3.797659    3.243668
     27          6           0       -5.422052   -2.620263    4.289431
     28          6           0       -5.366632   -1.431969    3.297889
     29          6           0       -6.984868   -4.527447    3.614292
     30          6           0       -4.245637   -2.810157    5.279586
     31          6           0       -2.933337   -2.784358    4.528387
     32          7           0       -5.138748    1.048420    1.656602
     33          6           0       -5.219282    1.013493    3.056233
     34          6           0       -5.229458    2.411969    3.523383
     35          6           0       -5.170470    3.168391    2.354541
     36          6           0       -5.152737    2.297953    1.227459
     37          6           0       -5.345686    2.837955    4.875959
     38          6           0       -5.143156    4.509872    1.794595
     39          8           0       -5.045836    5.644147    2.265170
     40          6           0       -5.381431    4.402109    0.223786
     41          6           0       -4.342117    5.253599   -0.453044
     42          8           0       -3.133475    4.946551   -0.405361
     43          8           0       -4.949427    6.153155   -1.242040
     44          6           0       -3.973726    7.011108   -1.965972
     45          1           0       -6.782061   -1.023097   -3.877886
     46          1           0       -5.553859   -4.849219    0.895616
     47          1           0       -5.262678    0.043741    4.821600
     48          1           0       -6.484081    3.753300   -2.647418
     49          1           0       -6.429558    1.500027   -4.340710
     50          1           0       -8.458274    2.549842   -2.404714
     51          1           0       -8.497222    0.777967   -2.660075
     52          1           0       -8.719701    1.815926   -4.039831
     53          1           0       -4.193367    2.185643   -3.850077
     54          1           0       -3.791314    3.534692   -2.713901
     55          1           0       -5.610166    4.513289   -4.668670
     56          1           0       -4.659645    3.350096   -5.512084
     57          1           0       -6.222528   -2.791597   -4.878982
     58          1           0       -6.591491   -4.412828   -4.430105
     59          1           0       -4.894748   -4.008306   -4.797179
     60          1           0       -5.661920   -6.299470   -3.659867
     61          1           0       -4.438174   -7.418806   -2.836454
     62          1           0       -3.971933   -5.869609   -3.588476
     63          1           0       -4.900203   -4.545212    3.341180
     64          1           0       -6.284611   -2.442839    4.932226
     65          1           0       -6.838041   -5.574520    3.880345
     66          1           0       -7.676803   -4.429706    2.778252
     67          1           0       -7.553763   -4.066694    4.421437
     68          1           0       -4.315555   -3.780573    5.769841
     69          1           0       -4.210455   -2.047353    6.057495
     70          1           0       -2.836605   -3.809314    4.172101
     71          1           0       -2.114920   -2.526025    5.201193
     72          1           0       -2.989032   -2.138574    3.651833
     73          1           0       -4.621286    3.641904    5.005878
     74          1           0       -5.155033    2.017411    5.567305
     75          1           0       -6.384376    3.167508    4.895327
     76          1           0       -6.392213    4.762193    0.034629
     77          1           0       -4.218951    8.046440   -1.728935
     78          1           0       -4.012245    6.708902   -3.012678
     79          1           0       -2.939849    6.960708   -1.622609
     80         12           0        5.358601   -0.896808   -0.166163
     81          6           0        5.271188    2.602085    0.627012
     82          6           0        4.363119   -0.054546   -3.318018
     83          6           0        4.990238   -3.990011   -0.769347
     84          6           0        5.225090   -1.534345    3.257496
     85          7           0        4.908371    1.055323   -1.103564
     86          6           0        4.969454    2.322239   -0.722086
     87          6           0        4.770408    3.349508   -1.868674
     88          6           0        3.942999    2.419813   -2.883529
     89          6           0        4.457797    1.052754   -2.437661
     90          6           0        2.441734    2.463616   -2.651993
     91          6           0        6.130821    3.815932   -2.496163
     92          6           0        6.032431    5.042624   -3.405727
     93          1           0        7.138166    5.996466   -3.409961
     94          7           0        5.243641   -1.863204   -1.895737
     95          6           0        4.840670   -1.362514   -3.082418
     96          6           0        4.916914   -2.479234   -4.037025
     97          6           0        5.240137   -3.720374   -3.282172
     98          6           0        5.148026   -3.232419   -1.920738
     99          6           0        4.770817   -2.293880   -5.519496
    100          6           0        5.564297   -5.118519   -3.713822
    101          8           0        5.577982   -6.093840   -2.882325
    102          6           0        5.773522   -5.328167   -5.153875
    103          7           0        4.926403   -2.528365    1.047751
    104          6           0        4.874547   -3.772679    0.540879
    105          6           0        4.823091   -4.807482    1.639484
    106          6           0        5.096296   -4.007047    2.996777
    107          6           0        5.173256   -2.571305    2.432760
    108          6           0        3.511818   -5.583374    1.761643
    109          6           0        6.261529   -4.513657    3.890229
    110          6           0        7.583247   -4.286497    3.192501
    111          7           0        5.450485    0.284327    1.640639
    112          6           0        5.349459   -0.181095    2.970019
    113          6           0        5.352160    1.006616    3.848516
    114          6           0        5.432015    2.090265    2.960932
    115          6           0        5.455611    1.612526    1.622757
    116          6           0        5.238389    0.992175    5.267305
    117          6           0        5.490993    3.530130    2.851306
    118          8           0        5.590359    4.458953    3.652024
    119          6           0        5.261932    3.930938    1.330349
    120          6           0        6.317768    4.932409    0.949846
    121          8           0        7.517268    4.605518    0.919340
    122          8           0        5.722231    6.042448    0.477046
    123          6           0        6.728731    7.061255    0.076029
    124          1           0        3.835910    0.077731   -4.263237
    125          1           0        4.969720   -5.072362   -0.916226
    126          1           0        5.285134   -1.653017    4.341458
    127          1           0        4.184877    4.220955   -1.601252
    128          1           0        4.223121    2.614722   -3.915473
    129          1           0        2.187176    3.023131   -1.764136
    130          1           0        2.129315    1.432400   -2.551883
    131          1           0        1.934142    2.847290   -3.541646
    132          1           0        6.463871    3.066991   -3.226165
    133          1           0        6.862915    3.990581   -1.731863
    134          1           0        5.074797    5.564915   -3.291232
    135          1           0        6.030932    4.704867   -4.444921
    136          1           0        4.375513   -1.300112   -5.763603
    137          1           0        3.990135   -2.986146   -5.852900
    138          1           0        5.692139   -2.511420   -6.064004
    139          1           0        4.881170   -5.024999   -5.696348
    140          1           0        6.082173   -6.370399   -5.255646
    141          1           0        6.583921   -4.671210   -5.488949
    142          1           0        5.599810   -5.550687    1.507377
    143          1           0        4.225624   -4.034599    3.668354
    144          1           0        3.644287   -6.679139    1.685321
    145          1           0        2.832704   -5.228339    0.997900
    146          1           0        2.949188   -5.398483    2.675135
    147          1           0        6.175771   -5.591374    4.049373
    148          1           0        6.291135   -4.045047    4.868245
    149          1           0        7.665074   -5.153730    2.530458
    150          1           0        8.397838   -4.262115    3.913534
    151          1           0        7.545942   -3.391642    2.560438
    152          1           0        5.964012    1.700177    5.645061
    153          1           0        5.407513   -0.004492    5.669600
    154          1           0        4.198895    1.310525    5.382869
    155          1           0        4.256317    4.345203    1.248620
    156          1           0        6.490612    7.978411    0.623578
    157          1           0        6.683175    7.107665   -1.028293
    158          1           0        7.756569    6.895977    0.377132
 ---------------------------------------------------------------------

 SCF Done:  E(RCAM-B3LYP) =  -4069.81160932     A.U. after   19 cycles

 Excitation energies and oscillator strengths:

 Excited State   1:      Singlet-A      1.6577 eV  747.92 nm  f=0.0171  <S**2>=0.000
     309 -> 315       -0.11240
     310 -> 316        0.12651
     311 -> 313       -0.45414
     312 -> 314        0.51564
 This state for optimization and/or second-order correction.
 Total Energy, E(TD-HF/TD-DFT) =  -4069.75068897
 Copying the excited state density for this state as the 1-particle RhoCI density.

 Excited State   2:      Singlet-A      1.6955 eV  731.25 nm  f=0.7033  <S**2>=0.000
     309 -> 315        0.13501
     310 -> 316        0.11762
     311 -> 313        0.51378
     312 -> 314        0.45255

 Excited State   3:      Singlet-A      2.1822 eV  568.15 nm  f=0.0306  <S**2>=0.000
     309 -> 313       -0.25145
     310 -> 314        0.59298
     311 -> 315        0.10472
     312 -> 316       -0.24833

 Excited State   4:      Singlet-A      2.1951 eV  564.83 nm  f=0.1517  <S**2>=0.000
     309 -> 313        0.58914
     310 -> 314        0.24833
     311 -> 315       -0.25864
     312 -> 316       -0.10994

 Excited State   5:      Singlet-A      2.4821 eV  499.51 nm  f=0.0000  <S**2>=0.000
     312 -> 313        0.70710

 The electronic state is 1-A.
 Alpha  occ. eigenvalues --  -46.87882 -46.87480 -19.26416 -19.26118 -19.19152
 Alpha  occ. eigenvalues --  -19.18944 -19.18873 -19.18590 -19.18238 -19.17836
 Alpha  occ. eigenvalues --  -14.42543 -14.42308 -14.41533 -14.41181 -14.39486
 Alpha  occ. eigenvalues --  -14.39179 -14.38668 -14.38415 -10.39207 -10.38868
 Alpha  occ. eigenvalues --  -10.35505 -10.35272 -10.34462 -10.34008 -10.31828
 Alpha  occ. eigenvalues --  -10.31545 -10.31500 -10.31105 -10.31011 -10.30834
 Alpha  occ. eigenvalues --  -10.30653 -10.30583 -10.30286 -10.30221 -10.30176
 Alpha  occ. eigenvalues --  -10.29996 -10.29986 -10.29715 -10.29706 -10.29333
 Alpha  occ. eigenvalues --  -10.29275 -10.29233 -10.28888 -10.28760 -10.28489
 Alpha  occ. eigenvalues --  -10.28485 -10.28450 -10.28239 -10.28219 -10.27894
 Alpha  occ. eigenvalues --  -10.27866 -10.27825 -10.27818 -10.27660 -10.27574
 Alpha  occ. eigenvalues --  -10.27572 -10.27518 -10.27494 -10.27490 -10.27375
 Alpha  occ. eigenvalues --  -10.27375 -10.27306 -10.27291 -10.27253 -10.27220
 Alpha  occ. eigenvalues --  -10.26900 -10.26800 -10.26505 -10.26457 -10.26340
 Alpha  occ. eigenvalues --  -10.26339 -10.26258 -10.26097 -10.26018 -10.25877
 Alpha  occ. eigenvalues --  -10.25768 -10.25678 -10.25675 -10.25495 -10.25231
 Alpha  occ. eigenvalues --  -10.24906 -10.24867 -10.24773 -10.24688 -10.24616
 Alpha  occ. eigenvalues --  -10.24514  -3.16625  -3.16230  -1.91507  -1.91112
 Alpha  occ. eigenvalues --   -1.91094  -1.90935  -1.90701  -1.90538  -1.16764
 Alpha  occ. eigenvalues --   -1.16416  -1.08697  -1.08436  -1.07272  -1.06845
 Alpha  occ. eigenvalues --   -1.06771  -1.06727  -1.04675  -1.04303  -1.03845
 Alpha  occ. eigenvalues --   -1.03483  -1.03314  -1.02864  -1.02493  -1.01931
 Alpha  occ. eigenvalues --   -0.92060  -0.91785  -0.89599  -0.89331  -0.89316
 Alpha  occ. eigenvalues --   -0.88924  -0.88365  -0.88061  -0.87936  -0.87772
 Alpha  occ. eigenvalues --   -0.87615  -0.87503  -0.87349  -0.86987  -0.85103
 Alpha  occ. eigenvalues --   -0.84800  -0.84015  -0.83718  -0.83036  -0.82811
 Alpha  occ. eigenvalues --   -0.82755  -0.82464  -0.81692  -0.81399  -0.80691
 Alpha  occ. eigenvalues --   -0.80259  -0.78874  -0.78482  -0.77315  -0.77049
 Alpha  occ. eigenvalues --   -0.76966  -0.76701  -0.76029  -0.75623  -0.74979
 Alpha  occ. eigenvalues --   -0.74628  -0.72854  -0.72522  -0.71762  -0.71381
 Alpha  occ. eigenvalues --   -0.69986  -0.69610  -0.68984  -0.68635  -0.67727
 Alpha  occ. eigenvalues --   -0.67428  -0.67347  -0.67033  -0.65405  -0.65066
 Alpha  occ. eigenvalues --   -0.64947  -0.64722  -0.64587  -0.64462  -0.64351
 Alpha  occ. eigenvalues --   -0.64039  -0.62406  -0.62078  -0.60517  -0.60192
 Alpha  occ. eigenvalues --   -0.59914  -0.59586  -0.59074  -0.58810  -0.58590
 Alpha  occ. eigenvalues --   -0.58241  -0.57680  -0.57391  -0.57338  -0.57066
 Alpha  occ. eigenvalues --   -0.56391  -0.56101  -0.56033  -0.55688  -0.55601
 Alpha  occ. eigenvalues --   -0.55426  -0.55285  -0.55071  -0.54621  -0.54306
 Alpha  occ. eigenvalues --   -0.54023  -0.53696  -0.53378  -0.53324  -0.53066
 Alpha  occ. eigenvalues --   -0.53018  -0.52960  -0.52846  -0.52718  -0.52519
 Alpha  occ. eigenvalues --   -0.52518  -0.52261  -0.51971  -0.51732  -0.51705
 Alpha  occ. eigenvalues --   -0.51474  -0.51285  -0.51014  -0.50646  -0.50360
 Alpha  occ. eigenvalues --   -0.50114  -0.50002  -0.49803  -0.49710  -0.49612
 Alpha  occ. eigenvalues --   -0.49314  -0.49302  -0.49202  -0.49012  -0.48878
 Alpha  occ. eigenvalues --   -0.48689  -0.48536  -0.48521  -0.48357  -0.48217
 Alpha  occ. eigenvalues --   -0.48180  -0.47790  -0.47419  -0.47382  -0.46961
 Alpha  occ. eigenvalues --   -0.46888  -0.46679  -0.46533  -0.46443  -0.46356
 Alpha  occ. eigenvalues --   -0.46245  -0.46106  -0.45911  -0.45905  -0.45622
 Alpha  occ. eigenvalues --   -0.45279  -0.45037  -0.44664  -0.44602  -0.44324
 Alpha  occ. eigenvalues --   -0.44291  -0.44229  -0.44197  -0.44104  -0.43924
 Alpha  occ. eigenvalues --   -0.43919  -0.43769  -0.43593  -0.43488  -0.43357
 Alpha  occ. eigenvalues --   -0.43192  -0.43114  -0.42810  -0.42744  -0.42735
 Alpha  occ. eigenvalues --   -0.42697  -0.42402  -0.42106  -0.41795  -0.41792
 Alpha  occ. eigenvalues --   -0.41655  -0.41469  -0.41271  -0.41233  -0.40984
 Alpha  occ. eigenvalues --   -0.40907  -0.40787  -0.40656  -0.40579  -0.40517
 Alpha  occ. eigenvalues --   -0.40391  -0.40318  -0.40044  -0.39523  -0.39285
 Alpha  occ. eigenvalues --   -0.38559  -0.38183  -0.37899  -0.37471  -0.37405
 Alpha  occ. eigenvalues --   -0.37379  -0.37096  -0.37008  -0.36827  -0.36567
 Alpha  occ. eigenvalues --   -0.36294  -0.36033  -0.34371  -0.34069  -0.33894
 Alpha  occ. eigenvalues --   -0.33652  -0.33273  -0.32996  -0.31404  -0.31146
 Alpha  occ. eigenvalues --   -0.31122  -0.30788  -0.30099  -0.29736  -0.29524
 Alpha  occ. eigenvalues --   -0.29394  -0.29168  -0.29027  -0.24167  -0.23851
 Alpha  occ. eigenvalues --   -0.21211  -0.20939
 Alpha virt. eigenvalues --   -0.08854  -0.08617  -0.01832  -0.01510  -0.00135
 Alpha virt. eigenvalues --    0.00133   0.02128   0.02400   0.03014   0.03392
 Alpha virt. eigenvalues --    0.04602   0.04922   0.04977   0.05385   0.06007

 Mulliken charges:
               1
     1  Mg   0.838518
     2  C   -0.003345
     3  C   -0.094727
     4  C   -0.045633
     5  C   -0.063665
     6  N   -0.256706
     7  C   -0.052784
     8  C   -0.013889
     9  C   -0.086910
    10  C    0.046044
    11  C    0.104781
    12  C    0.053732
    13  C   -0.071215
    14  H    0.034243
    15  N   -0.433168
    16  C    0.168305
    17  C   -0.177375
    18  C   -0.003796
    19  C    0.148676
    20  C    0.110235
    21  C    0.012605
    22  O   -0.249298
    23  C    0.062432
    24  N   -0.341054
    25  C    0.041172
    26  C   -0.028237
    27  C   -0.023960
    28  C    0.074714
    29  C    0.076094
    30  C    0.035088
    31  C   -0.004489
    32  N   -0.310541
    33  C    0.080419
    34  C   -0.169204
    35  C    0.008617
    36  C    0.082995
    37  C    0.127175
    38  C    0.046361
    39  O   -0.187757
    40  C   -0.005519
    41  C    0.213233
    42  O   -0.257880
    43  O   -0.304562
    44  C    0.157729
    45  H   -0.017706
    46  H   -0.016611
    47  H   -0.041121
    48  H    0.001137
    49  H   -0.004563
    50  H    0.025664
    51  H    0.016747
    52  H    0.016644
    53  H    0.010325
    54  H    0.043383
    55  H    0.018668
    56  H    0.017602
    57  H    0.005487
    58  H    0.027075
    59  H    0.039075
    60  H    0.037181
    61  H    0.036292
    62  H    0.031394
    63  H    0.016575
    64  H    0.009702
    65  H    0.023360
    66  H    0.012616
    67  H    0.004915
    68  H    0.006376
    69  H    0.005043
    70  H    0.008523
    71  H    0.017740
    72  H    0.029254
    73  H    0.048430
    74  H    0.009332
    75  H    0.046137
    76  H    0.035326
    77  H    0.043582
    78  H    0.045811
    79  H    0.053152
    80  Mg   0.837928
    81  C   -0.016427
    82  C   -0.087907
    83  C   -0.045825
    84  C   -0.065128
    85  N   -0.254656
    86  C   -0.048649
    87  C   -0.015287
    88  C   -0.090870
    89  C    0.046198
    90  C    0.114275
    91  C    0.062582
    92  C   -0.077499
    93  H    0.034121
    94  N   -0.423389
    95  C    0.162845
    96  C   -0.175346
    97  C   -0.008261
    98  C    0.152027
    99  C    0.099801
   100  C    0.015105
   101  O   -0.253468
   102  C    0.061400
   103  N   -0.350047
   104  C    0.037555
   105  C   -0.019802
   106  C   -0.034702
   107  C    0.089169
   108  C    0.073702
   109  C    0.034807
   110  C   -0.007581
   111  N   -0.324298
   112  C    0.078958
   113  C   -0.163045
   114  C    0.003043
   115  C    0.096152
   116  C    0.131270
   117  C    0.043100
   118  O   -0.187174
   119  C    0.000503
   120  C    0.210951
   121  O   -0.251732
   122  O   -0.304751
   123  C    0.152285
   124  H   -0.020577
   125  H   -0.015939
   126  H   -0.040917
   127  H    0.001169
   128  H   -0.005619
   129  H    0.028081
   130  H    0.013673
   131  H    0.015022
   132  H    0.013312
   133  H    0.037465
   134  H    0.021278
   135  H    0.018826
   136  H    0.008228
   137  H    0.024693
   138  H    0.039246
   139  H    0.037418
   140  H    0.035909
   141  H    0.033774
   142  H    0.013999
   143  H    0.012095
   144  H    0.024954
   145  H    0.012226
   146  H    0.005516
   147  H    0.005961
   148  H    0.003333
   149  H    0.010793
   150  H    0.017583
   151  H    0.030293
   152  H    0.045854
   153  H    0.007860
   154  H    0.047815
   155  H    0.038531
   156  H    0.044124
   157  H    0.049088
   158  H    0.053005
 Sum of Mulliken charges =  -0.00000

 Dipole moment (field-independent basis, Debye):
    X=             -4.5379    Y=             -2.0830    Z=             -7.1627  Tot=              8.7313
 Quadrupole moment (field-independent basis, Debye-Ang):
   XX=           -518.1934   YY=           -548.7579   ZZ=           -450.8639
   XY=             -0.3297   XZ=              0.2336   YZ=            -46.1538

 Normal termination of Gaussian 16 at Fri Sep 10 14:06:19 2021.
