 Gaussian 16, Revision A.03,
 Gaussian 16:  ES64L-G16RevA.03 25-Dec-2016

 -----------------------------------
 #p cam-b3lyp/Def2SVP td=(nstates=5)
 -----------------------------------

 --------------------------------
 TDDFT excited states in gaussian
 --------------------------------
 Symbolic Z-matrix:
 Charge =  0 Multiplicity = 1

                         Standard orientation:
 ---------------------------------------------------------------------
 Center     Atomic      Atomic             Coordinates (Angstroms)
 Number     Number       Type             X           Y           Z
 ---------------------------------------------------------------------
      1         12           0        7.852576   -0.658308   -0.404434
      2          6           0        8.064158    2.772438    0.594282
      3          6           0        8.870553   -1.483511    2.746094
      4          6           0        8.111586   -3.660742   -1.391816
      5          6           0        7.962828    0.449660   -3.706844
      6          7           0        8.369003    0.577295    1.358301
      7          6           0        8.351417    1.878786    1.628455
      8          6           0        8.593100    2.200675    3.133564
      9          6           0        9.377406    0.876909    3.551303
     10          6           0        8.813635   -0.077256    2.513201
     11          6           0       10.887132    0.976651    3.358217
     12          6           0        7.254480    2.349562    3.932100
     13          6           0        7.388981    2.980187    5.321192
     14          1           0        6.324282    3.847336    5.802667
     15          7           0        7.932654   -2.342939    0.624379
     16          6           0        8.358093   -2.492246    1.901875
     17          6           0        8.225506   -3.932458    2.209920
     18          6           0        7.868004   -4.636797    0.947307
     19          6           0        7.983620   -3.564830   -0.008150
     20          6           0        8.384172   -4.497088    3.588241
     21          6           0        7.493434   -6.053846    0.647635
     22          8           0        7.447696   -6.507218   -0.546910
     23          6           0        7.264532   -6.932478    1.808949
     24          7           0        8.235219   -1.511368   -2.270849
     25          6           0        8.235789   -2.838679   -2.435862
     26          6           0        8.249238   -3.208164   -3.889560
     27          6           0        8.011550   -1.849049   -4.693341
     28          6           0        7.982835   -0.868250   -3.495227
     29          6           0        9.530985   -3.883462   -4.396621
     30          6           0        6.831223   -1.822639   -5.696610
     31          6           0        5.519787   -1.910011   -4.948545
     32          7           0        7.810750    1.262339   -1.414587
     33          6           0        7.890568    1.490345   -2.796006
     34          6           0        7.932259    2.951270   -2.991012
     35          6           0        7.890241    3.474689   -1.700232
     36          6           0        7.852841    2.407839   -0.757510
     37          6           0        8.058138    3.622129   -4.239426
     38          6           0        7.893102    4.686696   -0.897183
     39          8           0        7.821376    5.891256   -1.144940
     40          6           0        8.128788    4.279248    0.624088
     41          6           0        7.108865    5.010524    1.453728
     42          8           0        5.893619    4.744804    1.354039
     43          8           0        7.736224    5.731397    2.395696
     44          6           0        6.780040    6.458723    3.272544
     45          1           0        9.406643   -1.852043    3.622868
     46          1           0        8.092916   -4.680668   -1.781483
     47          1           0        7.912233    0.870378   -4.712771
     48          1           0        9.216363    3.076129    3.316723
     49          1           0        9.111009    0.545609    4.554794
     50          1           0       11.162974    1.896702    2.843109
     51          1           0       11.162001    0.108051    2.759490
     52          1           0       11.407704    0.861858    4.309324
     53          1           0        6.890854    1.360783    4.211658
     54          1           0        6.519352    2.908531    3.352043
     55          1           0        8.359649    3.460248    5.448687
     56          1           0        7.383124    2.180132    6.061515
     57          1           0        8.807368   -3.764844    4.274731
     58          1           0        9.139763   -5.280022    3.526559
     59          1           0        7.452535   -4.914587    3.970444
     60          1           0        8.167999   -6.966416    2.418165
     61          1           0        6.919415   -7.882936    1.403521
     62          1           0        6.488124   -6.493525    2.436213
     63          1           0        7.446430   -3.906313   -4.123043
     64          1           0        8.877928   -1.572658   -5.294733
     65          1           0        9.360636   -4.858021   -4.854792
     66          1           0       10.224891   -3.960550   -3.560055
     67          1           0       10.110162   -3.291396   -5.104737
     68          1           0        6.879305   -2.684431   -6.361402
     69          1           0        6.813276   -0.926173   -6.316511
     70          1           0        5.399979   -2.981386   -4.791592
     71          1           0        4.707438   -1.511333   -5.557113
     72          1           0        5.589951   -1.442605   -3.966153
     73          1           0        7.352031    4.451977   -4.212331
     74          1           0        7.849102    2.951185   -5.072338
     75          1           0        9.103985    3.926354   -4.200629
     76          1           0        9.147409    4.574724    0.873541
     77          1           0        7.048530    7.514500    3.234034
     78          1           0        6.811677    5.963679    4.243284
     79          1           0        5.745313    6.496898    2.930167
     80         12           0       -8.014683   -0.808342    0.275579
     81          6           0       -7.901709    2.476379   -1.165568
     82          6           0       -7.025676    0.610168    3.215690
     83          6           0       -7.668559   -3.733277    1.455562
     84          6           0       -7.872374   -2.083673   -2.964640
     85          7           0       -7.555401    1.283467    0.828444
     86          6           0       -7.606882    2.455487    0.213591
     87          6           0       -7.405530    3.680247    1.145802
     88          6           0       -6.587973    2.955012    2.322447
     89          6           0       -7.109888    1.531150    2.141075
     90          6           0       -5.085594    2.945723    2.094204
     91          6           0       -8.765266    4.264738    1.666867
     92          6           0       -8.662389    5.640954    2.328083
     93          1           0       -9.761964    6.584522    2.146117
     94          7           0       -7.912479   -1.430209    2.157441
     95          6           0       -7.510763   -0.716036    3.229760
     96          6           0       -7.597800   -1.631239    4.378230
     97          6           0       -7.926172   -2.991078    3.870556
     98          6           0       -7.825790   -2.770401    2.441818
     99          6           0       -7.456104   -1.169213    5.799460
    100          6           0       -8.260978   -4.280278    4.557625
    101          8           0       -8.277816   -5.395372    3.925872
    102          6           0       -8.476978   -4.212143    6.010278
    103          7           0       -7.588445   -2.642720   -0.605165
    104          6           0       -7.546518   -3.768754    0.128477
    105          6           0       -7.497607   -4.993219   -0.753952
    106          6           0       -7.760519   -4.462895   -2.239623
    107          6           0       -7.830344   -2.945887   -1.958167
    108          6           0       -6.190908   -5.785559   -0.720479
    109          6           0       -8.925618   -5.123030   -3.026661
    110          6           0      -10.248476   -4.760368   -2.391117
    111          7           0       -8.092131    0.009608   -1.722677
    112          6           0       -7.989099   -0.699796   -2.939321
    113          6           0       -7.980825    0.299981   -4.026888
    114          6           0       -8.057037    1.532592   -3.361043
    115          6           0       -8.088765    1.317146   -1.956734
    116          6           0       -7.861807    0.016370   -5.416673
    117          6           0       -8.107136    2.967453   -3.526429
    118          8           0       -8.197489    3.728306   -4.489065
    119          6           0       -7.881234    3.647853   -2.107826
    120          6           0       -8.932013    4.709196   -1.929113
    121          8           0      -10.133710    4.400741   -1.843143
    122          8           0       -8.331115    5.885328   -1.672208
    123          6           0       -9.332526    6.967292   -1.476391
    124          1           0       -6.501200    0.916156    4.121333
    125          1           0       -7.655575   -4.768305    1.804908
    126          1           0       -7.929105   -2.405215   -4.006787
    127          1           0       -6.813391    4.481937    0.721038
    128          1           0       -6.870725    3.343448    3.297400
    129          1           0       -4.824082    3.325455    1.117698
    130          1           0       -4.779460    1.912469    2.192772
    131          1           0       -4.578896    3.488124    2.897559
    132          1           0       -9.105887    3.669539    2.523873
    133          1           0       -9.493329    4.295542    0.879735
    134          1           0       -7.700988    6.126702    2.121447
    135          1           0       -8.666991    5.506182    3.412437
    136          1           0       -7.055326   -0.149443    5.852850
    137          1           0       -6.681168   -1.790166    6.261794
    138          1           0       -8.380865   -1.274487    6.370770
    139          1           0       -7.584748   -3.816716    6.489886
    140          1           0       -8.792729   -5.214468    6.306111
    141          1           0       -9.284376   -3.499053    6.210853
    142          1           0       -8.279592   -5.693557   -0.487288
    143          1           0       -6.887522   -4.622066   -2.889536
    144          1           0       -6.330733   -6.846251   -0.438631
    145          1           0       -5.512408   -5.296083   -0.034480
    146          1           0       -5.623662   -5.780229   -1.649675
    147          1           0       -8.846217   -6.211847   -2.978362
    148          1           0       -8.948512   -4.848033   -4.075874
    149          1           0      -10.338384   -5.486008   -1.577204
    150          1           0      -11.060158   -4.868456   -3.107715
    151          1           0      -10.207772   -3.762205   -1.939825
    152          1           0       -8.581425    0.644057   -5.925264
    153          1           0       -8.035834   -1.037490   -5.623729
    154          1           0       -6.819848    0.301230   -5.585334
    155          1           0       -6.873277    4.064450   -2.101093
    156          1           0       -9.086438    7.762756   -2.186575
    157          1           0       -9.290837    7.221823   -0.400641
    158          1           0      -10.360268    6.753752   -1.745804
 ---------------------------------------------------------------------

 SCF Done:  E(RCAM-B3LYP) =  -4069.81178342     A.U. after   19 cycles

 Excitation energies and oscillator strengths:

 Excited State   1:      Singlet-A      1.6714 eV  741.80 nm  f=0.1012  <S**2>=0.000
     310 -> 316        0.14238
     311 -> 313       -0.38687
     312 -> 314        0.56685
 This state for optimization and/or second-order correction.
 Total Energy, E(TD-HF/TD-DFT) =  -4069.75036086
 Copying the excited state density for this state as the 1-particle RhoCI density.

 Excited State   2:      Singlet-A      1.6835 eV  736.47 nm  f=0.6531  <S**2>=0.000
     309 -> 315        0.14588
     311 -> 313        0.56614
     312 -> 314        0.38644

 Excited State   3:      Singlet-A      2.1852 eV  567.37 nm  f=0.0734  <S**2>=0.000
     309 -> 313       -0.11386
     310 -> 314        0.63260
     312 -> 316       -0.26802

 Excited State   4:      Singlet-A      2.1930 eV  565.36 nm  f=0.1220  <S**2>=0.000
     309 -> 313        0.63057
     310 -> 314        0.11296
     311 -> 315       -0.27422

 Excited State   5:      Singlet-A      2.7639 eV  448.58 nm  f=0.0000  <S**2>=0.000
     312 -> 313        0.70710

 The electronic state is 1-A.
 Alpha  occ. eigenvalues --  -46.87837 -46.87586 -19.26356 -19.26254 -19.19090
 Alpha  occ. eigenvalues --  -19.19072 -19.18849 -19.18664 -19.18212 -19.17969
 Alpha  occ. eigenvalues --  -14.42493 -14.42418 -14.41488 -14.41286 -14.39443
 Alpha  occ. eigenvalues --  -14.39280 -14.38627 -14.38524 -10.39147 -10.39001
 Alpha  occ. eigenvalues --  -10.35482 -10.35343 -10.34433 -10.34144 -10.31763
 Alpha  occ. eigenvalues --  -10.31661 -10.31449 -10.31223 -10.30956 -10.30944
 Alpha  occ. eigenvalues --  -10.30610 -10.30545 -10.30326 -10.30284 -10.30242
 Alpha  occ. eigenvalues --  -10.30074 -10.29956 -10.29822 -10.29669 -10.29368
 Alpha  occ. eigenvalues --  -10.29331 -10.29292 -10.28809 -10.28628 -10.28621
 Alpha  occ. eigenvalues --  -10.28565 -10.28407 -10.28329 -10.28170 -10.28035
 Alpha  occ. eigenvalues --  -10.27928 -10.27831 -10.27769 -10.27623 -10.27591
 Alpha  occ. eigenvalues --  -10.27527 -10.27521 -10.27477 -10.27457 -10.27447
 Alpha  occ. eigenvalues --  -10.27416 -10.27405 -10.27399 -10.27314 -10.27209
 Alpha  occ. eigenvalues --  -10.26958 -10.26782 -10.26605 -10.26441 -10.26382
 Alpha  occ. eigenvalues --  -10.26282 -10.26204 -10.26085 -10.26055 -10.25886
 Alpha  occ. eigenvalues --  -10.25867 -10.25863 -10.25779 -10.25459 -10.25337
 Alpha  occ. eigenvalues --  -10.24872 -10.24826 -10.24798 -10.24709 -10.24682
 Alpha  occ. eigenvalues --  -10.24619  -3.16580  -3.16335  -1.91462  -1.91218
 Alpha  occ. eigenvalues --   -1.91049  -1.90891  -1.90806  -1.90643  -1.16704
 Alpha  occ. eigenvalues --   -1.16549  -1.08671  -1.08574  -1.07249  -1.06917
 Alpha  occ. eigenvalues --   -1.06856  -1.06711  -1.04625  -1.04415  -1.03800
 Alpha  occ. eigenvalues --   -1.03588  -1.03273  -1.02966  -1.02450  -1.02037
 Alpha  occ. eigenvalues --   -0.92016  -0.91906  -0.89553  -0.89426  -0.89243
 Alpha  occ. eigenvalues --   -0.89054  -0.88319  -0.88155  -0.87905  -0.87720
 Alpha  occ. eigenvalues --   -0.87717  -0.87606  -0.87311  -0.87062  -0.85035
 Alpha  occ. eigenvalues --   -0.84913  -0.83968  -0.83812  -0.83001  -0.82879
 Alpha  occ. eigenvalues --   -0.82698  -0.82573  -0.81640  -0.81513  -0.80643
 Alpha  occ. eigenvalues --   -0.80365  -0.78835  -0.78570  -0.77260  -0.77067
 Alpha  occ. eigenvalues --   -0.76987  -0.76815  -0.75974  -0.75749  -0.74934
 Alpha  occ. eigenvalues --   -0.74733  -0.72812  -0.72625  -0.71714  -0.71500
 Alpha  occ. eigenvalues --   -0.69936  -0.69696  -0.68923  -0.68745  -0.67683
 Alpha  occ. eigenvalues --   -0.67529  -0.67276  -0.67125  -0.65339  -0.65184
 Alpha  occ. eigenvalues --   -0.64899  -0.64694  -0.64668  -0.64573  -0.64304
 Alpha  occ. eigenvalues --   -0.64136  -0.62353  -0.62195  -0.60478  -0.60277
 Alpha  occ. eigenvalues --   -0.59854  -0.59707  -0.59028  -0.58917  -0.58546
 Alpha  occ. eigenvalues --   -0.58350  -0.57635  -0.57469  -0.57348  -0.57168
 Alpha  occ. eigenvalues --   -0.56350  -0.56131  -0.56041  -0.55802  -0.55561
 Alpha  occ. eigenvalues --   -0.55381  -0.55379  -0.55175  -0.54570  -0.54413
 Alpha  occ. eigenvalues --   -0.53951  -0.53819  -0.53338  -0.53270  -0.53159
 Alpha  occ. eigenvalues --   -0.53065  -0.52964  -0.52823  -0.52799  -0.52604
 Alpha  occ. eigenvalues --   -0.52467  -0.52342  -0.51947  -0.51811  -0.51669
 Alpha  occ. eigenvalues --   -0.51579  -0.51239  -0.51124  -0.50608  -0.50423
 Alpha  occ. eigenvalues --   -0.50064  -0.49958  -0.49904  -0.49803  -0.49561
 Alpha  occ. eigenvalues --   -0.49415  -0.49258  -0.49146  -0.49123  -0.49013
 Alpha  occ. eigenvalues --   -0.48641  -0.48496  -0.48487  -0.48474  -0.48309
 Alpha  occ. eigenvalues --   -0.48276  -0.47739  -0.47520  -0.47337  -0.47051
 Alpha  occ. eigenvalues --   -0.46837  -0.46634  -0.46610  -0.46468  -0.46399
 Alpha  occ. eigenvalues --   -0.46203  -0.46201  -0.46012  -0.45868  -0.45740
 Alpha  occ. eigenvalues --   -0.45235  -0.45140  -0.44622  -0.44549  -0.44435
 Alpha  occ. eigenvalues --   -0.44395  -0.44183  -0.44137  -0.44063  -0.44042
 Alpha  occ. eigenvalues --   -0.44013  -0.43870  -0.43545  -0.43471  -0.43431
 Alpha  occ. eigenvalues --   -0.43305  -0.43069  -0.42848  -0.42819  -0.42756
 Alpha  occ. eigenvalues --   -0.42693  -0.42490  -0.42050  -0.41892  -0.41747
 Alpha  occ. eigenvalues --   -0.41589  -0.41587  -0.41378  -0.41184  -0.40917
 Alpha  occ. eigenvalues --   -0.40906  -0.40864  -0.40658  -0.40621  -0.40607
 Alpha  occ. eigenvalues --   -0.40422  -0.40300  -0.40144  -0.39469  -0.39366
 Alpha  occ. eigenvalues --   -0.38506  -0.38281  -0.37811  -0.37571  -0.37357
 Alpha  occ. eigenvalues --   -0.37317  -0.37194  -0.37117  -0.36771  -0.36686
 Alpha  occ. eigenvalues --   -0.36241  -0.36141  -0.34327  -0.34177  -0.33835
 Alpha  occ. eigenvalues --   -0.33776  -0.33228  -0.33101  -0.31379  -0.31222
 Alpha  occ. eigenvalues --   -0.31077  -0.30897  -0.30072  -0.29872  -0.29487
 Alpha  occ. eigenvalues --   -0.29360  -0.29260  -0.29137  -0.24122  -0.23960
 Alpha  occ. eigenvalues --   -0.21167  -0.21043
 Alpha virt. eigenvalues --   -0.08813  -0.08720  -0.01789  -0.01612  -0.00098
 Alpha virt. eigenvalues --    0.00038   0.02161   0.02283   0.03075   0.03295
 Alpha virt. eigenvalues --    0.04667   0.04814   0.05034   0.05254   0.06107

 Mulliken charges:
               1
     1  Mg   0.838640
     2  C   -0.003121
     3  C   -0.094248
     4  C   -0.045808
     5  C   -0.063819
     6  N   -0.256766
     7  C   -0.052541
     8  C   -0.014010
     9  C   -0.086970
    10  C    0.046234
    11  C    0.104796
    12  C    0.053528
    13  C   -0.071568
    14  H    0.035406
    15  N   -0.433145
    16  C    0.168360
    17  C   -0.177184
    18  C   -0.003969
    19  C    0.148690
    20  C    0.110177
    21  C    0.012303
    22  O   -0.249532
    23  C    0.062476
    24  N   -0.341130
    25  C    0.041241
    26  C   -0.028186
    27  C   -0.024019
    28  C    0.074799
    29  C    0.076144
    30  C    0.035103
    31  C   -0.004541
    32  N   -0.310489
    33  C    0.080385
    34  C   -0.169555
    35  C    0.008374
    36  C    0.082952
    37  C    0.127285
    38  C    0.046120
    39  O   -0.188391
    40  C   -0.005344
    41  C    0.212904
    42  O   -0.257387
    43  O   -0.304678
    44  C    0.157804
    45  H   -0.017616
    46  H   -0.016740
    47  H   -0.041275
    48  H    0.000952
    49  H   -0.004180
    50  H    0.025520
    51  H    0.016571
    52  H    0.016656
    53  H    0.011061
    54  H    0.043883
    55  H    0.018070
    56  H    0.017894
    57  H    0.005781
    58  H    0.026924
    59  H    0.039484
    60  H    0.037371
    61  H    0.035790
    62  H    0.031451
    63  H    0.016588
    64  H    0.009578
    65  H    0.023290
    66  H    0.012542
    67  H    0.004854
    68  H    0.006464
    69  H    0.004928
    70  H    0.008712
    71  H    0.018360
    72  H    0.028838
    73  H    0.047721
    74  H    0.009315
    75  H    0.046074
    76  H    0.035213
    77  H    0.043034
    78  H    0.046245
    79  H    0.053327
    80  Mg   0.837956
    81  C   -0.016761
    82  C   -0.087732
    83  C   -0.045634
    84  C   -0.064886
    85  N   -0.254597
    86  C   -0.049545
    87  C   -0.015177
    88  C   -0.090532
    89  C    0.045824
    90  C    0.114340
    91  C    0.062529
    92  C   -0.077852
    93  H    0.034651
    94  N   -0.423468
    95  C    0.162875
    96  C   -0.174725
    97  C   -0.008019
    98  C    0.152134
    99  C    0.099449
   100  C    0.015408
   101  O   -0.253401
   102  C    0.061265
   103  N   -0.350058
   104  C    0.037539
   105  C   -0.019815
   106  C   -0.034831
   107  C    0.088996
   108  C    0.073671
   109  C    0.034770
   110  C   -0.007640
   111  N   -0.324143
   112  C    0.078563
   113  C   -0.163106
   114  C    0.002416
   115  C    0.096203
   116  C    0.131448
   117  C    0.042489
   118  O   -0.187688
   119  C    0.000889
   120  C    0.211197
   121  O   -0.251243
   122  O   -0.305365
   123  C    0.152095
   124  H   -0.019667
   125  H   -0.015799
   126  H   -0.040548
   127  H   -0.000113
   128  H   -0.004548
   129  H    0.023306
   130  H    0.014467
   131  H    0.016614
   132  H    0.013699
   133  H    0.037552
   134  H    0.021208
   135  H    0.019418
   136  H    0.008758
   137  H    0.025781
   138  H    0.039555
   139  H    0.038030
   140  H    0.036116
   141  H    0.033867
   142  H    0.014209
   143  H    0.012485
   144  H    0.024905
   145  H    0.011704
   146  H    0.005792
   147  H    0.006136
   148  H    0.003603
   149  H    0.010830
   150  H    0.017799
   151  H    0.030174
   152  H    0.045929
   153  H    0.008350
   154  H    0.047219
   155  H    0.035762
   156  H    0.044057
   157  H    0.049505
   158  H    0.053358
 Sum of Mulliken charges =  -0.00000

 Dipole moment (field-independent basis, Debye):
    X=              4.3823    Y=             -2.2155    Z=              6.9761  Tot=              8.5311
 Quadrupole moment (field-independent basis, Debye-Ang):
   XX=           -517.6016   YY=           -539.5234   ZZ=           -459.7178
   XY=            -15.5529   XZ=             -3.9976   YZ=             37.5270

 Normal termination of Gaussian 16 at Sat Sep  4 15:48:15 2021.
