 Gaussian 16, Revision A.03,
 Gaussian 16:  ES64L-G16RevA.03 25-Dec-2016

 -----------------------------------
 #p cam-b3lyp/Def2SVP td=(nstates=5)
 -----------------------------------

 --------------------------------
 TDDFT excited states in gaussian
 --------------------------------
 Symbolic Z-matrix:
 Charge =  0 Multiplicity = 1

                         Standard orientation:
 ---------------------------------------------------------------------
 Center     Atomic      Atomic             Coordinates (Angstroms)
 Number     Number       Type             X           Y           Z
 ---------------------------------------------------------------------
      1         12           0       -4.082807   -1.672138    0.234106
      2          6           0       -5.635254    1.526228   -0.181316
      3          6           0       -4.852066   -2.303492   -3.029741
      4          6           0       -3.128904   -4.660307    0.700513
      5          6           0       -4.455907   -1.242101    3.672350
      6          7           0       -5.112852   -0.462354   -1.307346
      7          6           0       -5.606471    0.771000   -1.355815
      8          6           0       -6.021872    1.214271   -2.790502
      9          6           0       -6.259058   -0.222727   -3.439175
     10          6           0       -5.326254   -1.041231   -2.564045
     11          6           0       -7.681668   -0.743712   -3.262376
     12          6           0       -4.880089    1.993449   -3.525992
     13          6           0       -5.309218    2.739740   -4.792584
     14          1           0       -4.680151    4.015086   -5.100992
     15          7           0       -3.560263   -3.067471   -1.063139
     16          6           0       -3.954693   -3.159934   -2.355873
     17          6           0       -3.296088   -4.368041   -2.897534
     18          6           0       -2.638797   -5.075127   -1.763474
     19          6           0       -3.111184   -4.299971   -0.644831
     20          6           0       -3.290218   -4.719095   -4.353720
     21          6           0       -1.737719   -6.267528   -1.697374
     22          8           0       -1.467216   -6.855353   -0.594712
     23          6           0       -1.244146   -6.790098   -2.984366
     24          7           0       -4.023975   -2.896658    1.923699
     25          6           0       -3.509626   -4.129919    1.864551
     26          6           0       -3.313874   -4.706206    3.235504
     27          6           0       -3.576912   -3.509704    4.259685
     28          6           0       -3.980437   -2.413325    3.243127
     29          6           0       -4.215406   -5.894768    3.596850
     30          6           0       -2.451427   -3.194348    5.276668
     31          6           0       -1.242115   -2.648516    4.550906
     32          7           0       -4.731716   -0.073986    1.551631
     33          6           0       -4.828898   -0.121056    2.949849
     34          6           0       -5.416734    1.159118    3.385362
     35          6           0       -5.637447    1.859919    2.201297
     36          6           0       -5.238617    1.057284    1.094498
     37          6           0       -5.731804    1.518358    4.725553
     38          6           0       -6.140282    3.090344    1.612173
     39          8           0       -6.523034    4.172581    2.059114
     40          6           0       -6.272153    2.875677    0.039801
     41          6           0       -5.648519    4.066678   -0.635407
     42          8           0       -4.420777    4.276215   -0.557233
     43          8           0       -6.546423    4.633147   -1.456030
     44          6           0       -5.982281    5.803698   -2.179708
     45          1           0       -5.246381   -2.702599   -3.966316
     46          1           0       -2.703927   -5.643168    0.914565
     47          1           0       -4.523671   -1.003109    4.735244
     48          1           0       -6.940124    1.799978   -2.837227
     49          1           0       -5.932792   -0.258986   -4.478385
     50          1           0       -8.264157   -0.096942   -2.606391
     51          1           0       -7.575816   -1.735724   -2.822831
     52          1           0       -8.162058   -0.894208   -4.229513
     53          1           0       -4.179467    1.279833   -3.959515
     54          1           0       -4.388523    2.690180   -2.846099
     55          1           0       -6.394427    2.823530   -4.857458
     56          1           0       -5.032143    2.134694   -5.655920
     57          1           0       -3.992271   -4.105159   -4.916524
     58          1           0       -3.685518   -5.731121   -4.438861
     59          1           0       -2.288417   -4.678527   -4.781600
     60          1           0       -2.093080   -7.069648   -3.608636
     61          1           0       -0.543702   -7.586879   -2.736639
     62          1           0       -0.724220   -5.991147   -3.513802
     63          1           0       -2.295358   -5.069893    3.365054
     64          1           0       -4.454458   -3.688911    4.881354
     65          1           0       -3.664623   -6.789177    3.889044
     66          1           0       -4.864907   -6.096173    2.745454
     67          1           0       -4.943614   -5.693941    4.382216
     68          1           0       -2.135824   -4.103684    5.787010
     69          1           0       -2.748925   -2.473036    6.037887
     70          1           0       -0.729308   -3.550775    4.219561
     71          1           0       -0.616705   -2.072395    5.233664
     72          1           0       -1.530754   -2.091667    3.659227
     73          1           0       -5.398512    2.548401    4.851638
     74          1           0       -5.244092    0.854106    5.438651
     75          1           0       -6.815113    1.399082    4.717225
     76          1           0       -7.336692    2.793013   -0.177096
     77          1           0       -6.631806    6.653795   -1.970695
     78          1           0       -5.866993    5.498746   -3.219957
     79          1           0       -5.026113    6.180751   -1.815137
     80         12           0        4.236451    1.763916    0.029169
     81          6           0        5.361124   -1.545322   -0.785170
     82          6           0        3.819927    0.672380    3.233802
     83          6           0        2.820931    4.527694    0.681257
     84          6           0        3.657850    2.254266   -3.372374
     85          7           0        4.580971   -0.203862    0.978593
     86          6           0        5.068342   -1.370339    0.583437
     87          6           0        5.327837   -2.381442    1.732296
     88          6           0        4.290098   -1.794509    2.808162
     89          6           0        4.248360   -0.341323    2.339958
     90          6           0        2.893270   -2.378627    2.677795
     91          6           0        6.803069   -2.317473    2.262979
     92          6           0        7.212402   -3.482405    3.166950
     93          1           0        8.584881   -3.975023    3.088914
     94          7           0        3.895630    2.652883    1.770472
     95          6           0        3.778600    2.060503    2.977390
     96          6           0        3.510753    3.145643    3.933897
     97          6           0        3.315674    4.407392    3.169268
     98          6           0        3.315912    3.896514    1.813139
     99          6           0        3.538879    2.944675    5.421257
    100          6           0        3.143006    5.835559    3.589647
    101          8           0        2.750362    6.736795    2.767190
    102          6           0        3.357026    6.130130    5.014050
    103          7           0        3.167657    3.110923   -1.139416
    104          6           0        2.705263    4.261697   -0.619963
    105          6           0        2.213043    5.190620   -1.704044
    106          6           0        2.665930    4.519502   -3.083194
    107          6           0        3.290935    3.216821   -2.537494
    108          6           0        0.705476    5.441402   -1.731301
    109          6           0        3.509620    5.396131   -4.048807
    110          6           0        4.867424    5.670605   -3.443476
    111          7           0        4.627927    0.665009   -1.789407
    112          6           0        4.279134    1.041023   -3.105090
    113          6           0        4.650999   -0.080739   -3.991553
    114          6           0        5.173348   -1.048508   -3.120318
    115          6           0        5.111494   -0.572168   -1.782872
    116          6           0        4.446642   -0.131566   -5.399301
    117          6           0        5.753225   -2.368996   -3.026784
    118          8           0        6.127070   -3.213180   -3.840010
    119          6           0        5.784134   -2.800172   -1.497228
    120          6           0        7.152028   -3.348968   -1.196891
    121          8           0        8.152966   -2.612446   -1.244459
    122          8           0        7.027949   -4.590883   -0.694275
    123          6           0        8.357511   -5.173231   -0.370288
    124          1           0        3.438917    0.375135    4.211220
    125          1           0        2.422276    5.532663    0.838107
    126          1           0        3.599815    2.368670   -4.456916
    127          1           0        5.078621   -3.409363    1.497702
    128          1           0        4.688760   -1.858668    3.817283
    129          1           0        2.799158   -3.006808    1.804486
    130          1           0        2.225063   -1.530325    2.607436
    131          1           0        2.617251   -2.904308    3.596384
    132          1           0        6.891741   -1.486935    2.975069
    133          1           0        7.497063   -2.230011    1.449742
    134          1           0        6.501328   -4.315713    3.112844
    135          1           0        7.157858   -3.150618    4.206646
    136          1           0        3.544333    1.879424    5.683198
    137          1           0        2.585199    3.315617    5.812125
    138          1           0        4.354006    3.487700    5.904321
    139          1           0        2.671122    5.535594    5.612804
    140          1           0        3.276229    7.215199    5.103417
    141          1           0        4.369602    5.813860    5.288414
    142          1           0        2.677426    6.165347   -1.618357
    143          1           0        1.801472    4.221276   -3.694435
    144          1           0        0.439767    6.512685   -1.655031
    145          1           0        0.251246    4.878738   -0.926558
    146          1           0        0.188231    5.051639   -2.606367
    147          1           0        3.031798    6.368274   -4.192926
    148          1           0        3.641390    4.953371   -5.030432
    149          1           0        4.675245    6.520126   -2.781316
    150          1           0        5.586992    5.928639   -4.217863
    151          1           0        5.196031    4.832672   -2.817747
    152          1           0        5.351814   -0.537696   -5.830845
    153          1           0        4.219216    0.852511   -5.803833
    154          1           0        3.585969   -0.804035   -5.447297
    155          1           0        5.002449   -3.546702   -1.351455
    156          1           0        8.429683   -6.123600   -0.908129
    157          1           0        8.404394   -5.214667    0.734171
    158          1           0        9.234996   -4.654676   -0.738492
 ---------------------------------------------------------------------

 SCF Done:  E(RCAM-B3LYP) =  -4069.81180477     A.U. after   19 cycles

 Excitation energies and oscillator strengths:

 Excited State   1:      Singlet-A      1.6491 eV  751.84 nm  f=0.0201  <S**2>=0.000
     309 -> 315        0.11108
     310 -> 316        0.12547
     311 -> 313        0.45596
     312 -> 314        0.51473
 This state for optimization and/or second-order correction.
 Total Energy, E(TD-HF/TD-DFT) =  -4069.75120253
 Copying the excited state density for this state as the 1-particle RhoCI density.

 Excited State   2:      Singlet-A      1.7028 eV  728.12 nm  f=0.6767  <S**2>=0.000
     309 -> 315        0.13580
     310 -> 316       -0.11988
     311 -> 313        0.51215
     312 -> 314       -0.45369

 Excited State   3:      Singlet-A      2.1812 eV  568.42 nm  f=0.0203  <S**2>=0.000
     309 -> 313        0.30854
     310 -> 314        0.56675
     311 -> 315       -0.12758
     312 -> 316       -0.23549

 Excited State   4:      Singlet-A      2.1973 eV  564.25 nm  f=0.1551  <S**2>=0.000
     309 -> 313        0.56129
     310 -> 314       -0.30419
     311 -> 315       -0.24810
     312 -> 316        0.13571

 Excited State   5:      Singlet-A      2.3503 eV  527.52 nm  f=0.0000  <S**2>=0.000
     312 -> 313        0.70709

 The electronic state is 1-A.
 Alpha  occ. eigenvalues --  -46.87905 -46.87436 -19.26364 -19.26200 -19.19103
 Alpha  occ. eigenvalues --  -19.19008 -19.18867 -19.18457 -19.18245 -19.17888
 Alpha  occ. eigenvalues --  -14.42557 -14.42275 -14.41576 -14.41120 -14.39503
 Alpha  occ. eigenvalues --  -14.39125 -14.38692 -14.38391 -10.39163 -10.38934
 Alpha  occ. eigenvalues --  -10.35492 -10.35132 -10.34467 -10.34066 -10.31758
 Alpha  occ. eigenvalues --  -10.31625 -10.31512 -10.31116 -10.31002 -10.30792
 Alpha  occ. eigenvalues --  -10.30675 -10.30618 -10.30338 -10.30179 -10.30173
 Alpha  occ. eigenvalues --  -10.30060 -10.29886 -10.29726 -10.29643 -10.29352
 Alpha  occ. eigenvalues --  -10.29203 -10.29203 -10.28849 -10.28661 -10.28512
 Alpha  occ. eigenvalues --  -10.28500 -10.28455 -10.28211 -10.28186 -10.27935
 Alpha  occ. eigenvalues --  -10.27884 -10.27830 -10.27798 -10.27715 -10.27668
 Alpha  occ. eigenvalues --  -10.27645 -10.27508 -10.27507 -10.27458 -10.27277
 Alpha  occ. eigenvalues --  -10.27263 -10.27256 -10.27243 -10.27242 -10.27017
 Alpha  occ. eigenvalues --  -10.26871 -10.26823 -10.26517 -10.26508 -10.26368
 Alpha  occ. eigenvalues --  -10.26317 -10.26166 -10.26153 -10.25960 -10.25934
 Alpha  occ. eigenvalues --  -10.25782 -10.25770 -10.25720 -10.25603 -10.25120
 Alpha  occ. eigenvalues --  -10.24923 -10.24908 -10.24814 -10.24677 -10.24544
 Alpha  occ. eigenvalues --  -10.24429  -3.16648  -3.16187  -1.91530  -1.91117
 Alpha  occ. eigenvalues --   -1.91069  -1.90958  -1.90657  -1.90494  -1.16713
 Alpha  occ. eigenvalues --   -1.16493  -1.08702  -1.08503  -1.07267  -1.06794
 Alpha  occ. eigenvalues --   -1.06724  -1.06701  -1.04685  -1.04277  -1.03880
 Alpha  occ. eigenvalues --   -1.03436  -1.03341  -1.02807  -1.02522  -1.01885
 Alpha  occ. eigenvalues --   -0.92071  -0.91782  -0.89706  -0.89291  -0.89263
 Alpha  occ. eigenvalues --   -0.88944  -0.88465  -0.87973  -0.87944  -0.87784
 Alpha  occ. eigenvalues --   -0.87628  -0.87462  -0.87333  -0.86903  -0.85088
 Alpha  occ. eigenvalues --   -0.84788  -0.84146  -0.83596  -0.83043  -0.82735
 Alpha  occ. eigenvalues --   -0.82683  -0.82436  -0.81687  -0.81417  -0.80693
 Alpha  occ. eigenvalues --   -0.80241  -0.78875  -0.78434  -0.77357  -0.77058
 Alpha  occ. eigenvalues --   -0.76938  -0.76675  -0.76023  -0.75641  -0.75053
 Alpha  occ. eigenvalues --   -0.74483  -0.72891  -0.72492  -0.71787  -0.71319
 Alpha  occ. eigenvalues --   -0.70153  -0.69502  -0.68973  -0.68620  -0.67739
 Alpha  occ. eigenvalues --   -0.67381  -0.67310  -0.66998  -0.65398  -0.65071
 Alpha  occ. eigenvalues --   -0.64973  -0.64750  -0.64560  -0.64447  -0.64431
 Alpha  occ. eigenvalues --   -0.63955  -0.62404  -0.62091  -0.60533  -0.60102
 Alpha  occ. eigenvalues --   -0.59903  -0.59592  -0.59107  -0.58765  -0.58616
 Alpha  occ. eigenvalues --   -0.58209  -0.57678  -0.57433  -0.57381  -0.57000
 Alpha  occ. eigenvalues --   -0.56402  -0.56071  -0.56015  -0.55705  -0.55607
 Alpha  occ. eigenvalues --   -0.55500  -0.55252  -0.55009  -0.54672  -0.54254
 Alpha  occ. eigenvalues --   -0.53997  -0.53706  -0.53413  -0.53295  -0.53040
 Alpha  occ. eigenvalues --   -0.53014  -0.52935  -0.52824  -0.52702  -0.52676
 Alpha  occ. eigenvalues --   -0.52445  -0.52185  -0.52022  -0.51758  -0.51699
 Alpha  occ. eigenvalues --   -0.51459  -0.51323  -0.51011  -0.50618  -0.50246
 Alpha  occ. eigenvalues --   -0.50212  -0.49989  -0.49755  -0.49594  -0.49571
 Alpha  occ. eigenvalues --   -0.49301  -0.49272  -0.49192  -0.49008  -0.48902
 Alpha  occ. eigenvalues --   -0.48704  -0.48594  -0.48507  -0.48367  -0.48126
 Alpha  occ. eigenvalues --   -0.48071  -0.47802  -0.47392  -0.47375  -0.46939
 Alpha  occ. eigenvalues --   -0.46873  -0.46654  -0.46493  -0.46478  -0.46339
 Alpha  occ. eigenvalues --   -0.46287  -0.46056  -0.45929  -0.45850  -0.45637
 Alpha  occ. eigenvalues --   -0.45365  -0.44861  -0.44694  -0.44608  -0.44319
 Alpha  occ. eigenvalues --   -0.44298  -0.44263  -0.44184  -0.44092  -0.43922
 Alpha  occ. eigenvalues --   -0.43848  -0.43733  -0.43604  -0.43506  -0.43367
 Alpha  occ. eigenvalues --   -0.43156  -0.43150  -0.42895  -0.42774  -0.42754
 Alpha  occ. eigenvalues --   -0.42682  -0.42303  -0.42184  -0.41813  -0.41749
 Alpha  occ. eigenvalues --   -0.41647  -0.41458  -0.41255  -0.41243  -0.41022
 Alpha  occ. eigenvalues --   -0.40885  -0.40745  -0.40735  -0.40506  -0.40468
 Alpha  occ. eigenvalues --   -0.40338  -0.40224  -0.40023  -0.39711  -0.39183
 Alpha  occ. eigenvalues --   -0.38645  -0.38066  -0.37863  -0.37481  -0.37454
 Alpha  occ. eigenvalues --   -0.37365  -0.37031  -0.36989  -0.36828  -0.36587
 Alpha  occ. eigenvalues --   -0.36320  -0.35970  -0.34397  -0.34034  -0.33857
 Alpha  occ. eigenvalues --   -0.33695  -0.33295  -0.32956  -0.31402  -0.31143
 Alpha  occ. eigenvalues --   -0.31013  -0.30742  -0.30106  -0.29796  -0.29533
 Alpha  occ. eigenvalues --   -0.29414  -0.29114  -0.29016  -0.24192  -0.23813
 Alpha  occ. eigenvalues --   -0.21237  -0.20895
 Alpha virt. eigenvalues --   -0.08871  -0.08575  -0.01863  -0.01445  -0.00130
 Alpha virt. eigenvalues --    0.00195   0.02102   0.02389   0.02824   0.03496
 Alpha virt. eigenvalues --    0.04601   0.04940   0.05012   0.05326   0.06051

 Mulliken charges:
               1
     1  Mg   0.838747
     2  C   -0.002783
     3  C   -0.093691
     4  C   -0.046370
     5  C   -0.064472
     6  N   -0.256650
     7  C   -0.052656
     8  C   -0.013962
     9  C   -0.087075
    10  C    0.046282
    11  C    0.104719
    12  C    0.053466
    13  C   -0.071602
    14  H    0.035039
    15  N   -0.433281
    16  C    0.168594
    17  C   -0.176440
    18  C   -0.003514
    19  C    0.148725
    20  C    0.109972
    21  C    0.012366
    22  O   -0.250270
    23  C    0.062168
    24  N   -0.340892
    25  C    0.041218
    26  C   -0.028374
    27  C   -0.023799
    28  C    0.074119
    29  C    0.076108
    30  C    0.035934
    31  C   -0.006932
    32  N   -0.310464
    33  C    0.080105
    34  C   -0.170003
    35  C    0.008705
    36  C    0.082963
    37  C    0.127329
    38  C    0.046422
    39  O   -0.187962
    40  C   -0.005513
    41  C    0.213165
    42  O   -0.257147
    43  O   -0.304732
    44  C    0.157491
    45  H   -0.017083
    46  H   -0.017110
    47  H   -0.042311
    48  H    0.001165
    49  H   -0.003813
    50  H    0.025594
    51  H    0.016547
    52  H    0.017005
    53  H    0.011170
    54  H    0.043535
    55  H    0.018384
    56  H    0.018172
    57  H    0.005904
    58  H    0.027257
    59  H    0.041118
    60  H    0.037337
    61  H    0.036704
    62  H    0.033423
    63  H    0.015494
    64  H    0.009853
    65  H    0.023091
    66  H    0.013279
    67  H    0.004883
    68  H    0.005845
    69  H    0.004511
    70  H    0.009263
    71  H    0.014354
    72  H    0.031111
    73  H    0.047699
    74  H    0.008102
    75  H    0.046204
    76  H    0.035333
    77  H    0.043438
    78  H    0.046079
    79  H    0.053766
    80  Mg   0.837620
    81  C   -0.017165
    82  C   -0.087990
    83  C   -0.043312
    84  C   -0.065169
    85  N   -0.254754
    86  C   -0.050041
    87  C   -0.015117
    88  C   -0.091363
    89  C    0.046112
    90  C    0.113374
    91  C    0.062627
    92  C   -0.077668
    93  H    0.034130
    94  N   -0.423939
    95  C    0.163764
    96  C   -0.174042
    97  C   -0.006307
    98  C    0.152243
    99  C    0.099179
   100  C    0.016450
   101  O   -0.251642
   102  C    0.061135
   103  N   -0.350078
   104  C    0.038802
   105  C   -0.020698
   106  C   -0.033726
   107  C    0.088743
   108  C    0.072107
   109  C    0.034804
   110  C   -0.007440
   111  N   -0.323772
   112  C    0.078095
   113  C   -0.164283
   114  C    0.001543
   115  C    0.095925
   116  C    0.131774
   117  C    0.041234
   118  O   -0.189660
   119  C    0.001203
   120  C    0.210955
   121  O   -0.251332
   122  O   -0.305340
   123  C    0.152297
   124  H   -0.020295
   125  H   -0.013606
   126  H   -0.041826
   127  H   -0.000044
   128  H   -0.005224
   129  H    0.024393
   130  H    0.015112
   131  H    0.016437
   132  H    0.013612
   133  H    0.037410
   134  H    0.021145
   135  H    0.019139
   136  H    0.007893
   137  H    0.026870
   138  H    0.039466
   139  H    0.038721
   140  H    0.036557
   141  H    0.032975
   142  H    0.013489
   143  H    0.011424
   144  H    0.024445
   145  H    0.021433
   146  H    0.005513
   147  H    0.005859
   148  H    0.002209
   149  H    0.011100
   150  H    0.016925
   151  H    0.030064
   152  H    0.045362
   153  H    0.008013
   154  H    0.044425
   155  H    0.035152
   156  H    0.043499
   157  H    0.049576
   158  H    0.053147
 Sum of Mulliken charges =  -0.00000

 Dipole moment (field-independent basis, Debye):
    X=             -3.4716    Y=             -2.6612    Z=              0.4607  Tot=              4.3984
 Quadrupole moment (field-independent basis, Debye-Ang):
   XX=           -529.4414   YY=           -538.9732   ZZ=           -451.9113
   XY=             20.4464   XZ=             55.3619   YZ=            -31.9625

 Normal termination of Gaussian 16 at Fri Sep  3 20:45:51 2021.
