 Gaussian 16, Revision A.03,
 Gaussian 16:  ES64L-G16RevA.03 25-Dec-2016

 -----------------------------------
 #p cam-b3lyp/Def2SVP td=(nstates=5)
 -----------------------------------

 --------------------------------
 TDDFT excited states in gaussian
 --------------------------------
 Symbolic Z-matrix:
 Charge =  0 Multiplicity = 1

                         Standard orientation:
 ---------------------------------------------------------------------
 Center     Atomic      Atomic             Coordinates (Angstroms)
 Number     Number       Type             X           Y           Z
 ---------------------------------------------------------------------
      1         12           0        7.631850   -0.981638    0.327108
      2          6           0        8.016486    2.182237   -1.302053
      3          6           0        8.461694    0.586180    3.241961
      4          6           0        7.742928   -3.836146    1.704084
      5          6           0        7.951206   -2.468732   -2.808530
      6          7           0        8.149987    1.121518    0.784178
      7          6           0        8.202931    2.248129    0.080532
      8          6           0        8.400509    3.517971    0.961348
      9          6           0        9.081577    2.838832    2.232927
     10          6           0        8.503292    1.440973    2.100633
     11          6           0       10.601401    2.752762    2.136854
     12          6           0        7.041335    4.199654    1.335094
     13          6           0        7.156376    5.613800    1.911558
     14          1           0        6.128949    6.590092    1.582020
     15          7           0        7.562158   -1.487017    2.235663
     16          6           0        7.922937   -0.717746    3.290816
     17          6           0        7.687064   -1.541978    4.495675
     18          6           0        7.339675   -2.918204    4.044656
     19          6           0        7.562836   -2.807451    2.625744
     20          6           0        7.751436   -0.998395    5.889994
     21          6           0        6.889680   -4.142292    4.777625
     22          8           0        6.866070   -5.295325    4.225781
     23          6           0        6.557017   -3.969224    6.203257
     24          7           0        8.038655   -2.894987   -0.401755
     25          6           0        7.962671   -3.967207    0.394205
     26          6           0        8.014321   -5.239967   -0.397852
     27          6           0        7.896852   -4.811282   -1.931535
     28          6           0        7.879263   -3.273882   -1.746162
     29          6           0        9.271327   -6.099003   -0.202909
     30          6           0        6.764023   -5.467283   -2.760258
     31          6           0        5.419221   -4.991493   -2.258033
     32          7           0        7.753747   -0.293615   -1.727840
     33          6           0        7.906119   -1.086176   -2.874707
     34          6           0        8.047880   -0.167305   -4.019106
     35          6           0        7.984323    1.104297   -3.452682
     36          6           0        7.840012    0.987158   -2.040682
     37          6           0        8.268424   -0.548938   -5.371936
     38          6           0        8.029482    2.534711   -3.709065
     39          8           0        8.044250    3.233879   -4.723185
     40          6           0        8.174497    3.289409   -2.314350
     41          6           0        7.168438    4.407808   -2.295989
     42          8           0        5.944186    4.166728   -2.274712
     43          8           0        7.799512    5.569733   -2.067474
     44          6           0        6.854763    6.716914   -2.007645
     45          1           0        8.935960    0.918155    4.167599
     46          1           0        7.676607   -4.841634    2.124839
     47          1           0        7.969785   -2.860271   -3.827257
     48          1           0        9.069325    4.266497    0.536121
     49          1           0        8.752649    3.298362    3.164786
     50          1           0       10.956140    3.055957    1.151891
     51          1           0       10.846141    1.707090    2.324377
     52          1           0       11.073017    3.319568    2.940027
     53          1           0        6.604703    3.685291    2.191157
     54          1           0        6.368037    4.213664    0.477306
     55          1           0        8.149068    6.032790    1.744470
     56          1           0        7.068870    5.548674    2.996132
     57          1           0        8.190457   -0.001728    5.911417
     58          1           0        8.458188   -1.618429    6.441145
     59          1           0        6.780039   -1.020190    6.384206
     60          1           0        7.429977   -3.586827    6.732654
     61          1           0        6.170227   -4.930187    6.540590
     62          1           0        5.783936   -3.205794    6.295281
     63          1           0        7.179764   -5.892426   -0.144402
     64          1           0        8.803568   -5.041942   -2.491298
     65          1           0        9.059518   -7.116688    0.125969
     66          1           0        9.922997   -5.587046    0.504563
     67          1           0        9.916051   -6.171006   -1.078446
     68          1           0        6.785853   -6.550079   -2.641842
     69          1           0        6.828767   -5.248861   -3.826255
     70          1           0        5.225693   -5.654256   -1.415344
     71          1           0        4.660044   -5.111654   -3.031610
     72          1           0        5.477043   -3.975519   -1.866956
     73          1           0        7.615429    0.080223   -5.976686
     74          1           0        8.052998   -1.606143   -5.525277
     75          1           0        9.328766   -0.319453   -5.476188
     76          1           0        9.198229    3.658779   -2.262762
     77          1           0        7.190553    7.447962   -2.743204
     78          1           0        6.814092    7.030765   -0.964453
     79          1           0        5.839901    6.524334   -2.357367
     80         12           0       -8.225734   -0.361818   -0.259312
     81          6           0       -5.688358    2.134766    0.196538
     82          6           0      -10.266523    1.573924    1.670131
     83          6           0      -10.323987   -2.741891   -0.265691
     84          6           0       -5.689219   -2.577149   -1.156029
     85          7           0       -7.904779    1.582324    0.745458
     86          6           0       -6.920482    2.467088    0.797265
     87          6           0       -7.302122    3.815435    1.464996
     88          6           0       -8.526888    3.299247    2.366312
     89          6           0       -8.955651    2.095477    1.529784
     90          6           0       -8.097718    2.800478    3.736122
     91          6           0       -7.770088    4.888493    0.420223
     92          6           0       -7.862003    6.316577    0.962325
     93          1           0       -7.514255    7.422079    0.073836
     94          7           0      -10.167389   -0.363254    0.151240
     95          6           0      -10.833995    0.509934    0.935121
     96          6           0      -12.236059    0.064538    0.931592
     97          6           0      -12.312780   -1.237600    0.215163
     98          6           0      -10.903779   -1.514295    0.019629
     99          6           0      -13.353812    0.890997    1.498191
    100          6           0      -13.463396   -2.098368   -0.210713
    101          8           0      -13.290778   -3.304185   -0.609503
    102          6           0      -14.806406   -1.519830   -0.058694
    103          7           0       -8.020268   -2.422116   -0.447187
    104          6           0       -9.098481   -3.225140   -0.470398
    105          6           0       -8.725407   -4.627319   -0.888856
    106          6           0       -7.205216   -4.539680   -1.377633
    107          6           0       -6.922295   -3.055047   -1.059463
    108          6           0       -8.850893   -5.699954    0.192849
    109          6           0       -6.894408   -5.061469   -2.807253
    110          6           0       -7.542908   -4.164028   -3.836535
    111          7           0       -6.102027   -0.225913   -0.632726
    112          6           0       -5.226167   -1.280771   -0.970693
    113          6           0       -3.861003   -0.717543   -1.009809
    114          6           0       -4.035994    0.631573   -0.666639
    115          6           0       -5.410439    0.886222   -0.410625
    116          6           0       -2.668581   -1.444847   -1.284191
    117          6           0       -3.369139    1.895736   -0.452390
    118          8           0       -2.220430    2.308881   -0.605709
    119          6           0       -4.392524    2.896085    0.239266
    120          6           0       -4.326328    4.208222   -0.493152
    121          8           0       -4.695745    4.290136   -1.677820
    122          8           0       -4.045474    5.188898    0.384206
    123          6           0       -3.980190    6.511379   -0.292996
    124          1           0      -10.910215    1.990085    2.445596
    125          1           0      -11.019985   -3.575029   -0.387951
    126          1           0       -4.856333   -3.180657   -1.523110
    127          1           0       -6.532004    4.244511    2.094748
    128          1           0       -9.323948    4.036947    2.409448
    129          1           0       -7.022817    2.765347    3.833511
    130          1           0       -8.519023    1.808452    3.833256
    131          1           0       -8.563957    3.404007    4.520147
    132          1           0       -8.825247    4.712570    0.174392
    133          1           0       -7.142962    4.871939   -0.449875
    134          1           0       -7.352724    6.424591    1.927681
    135          1           0       -8.908867    6.536320    1.185513
    136          1           0      -12.972380    1.721570    2.104869
    137          1           0      -13.890093    0.256844    2.212413
    138          1           0      -14.054542    1.232676    0.733402
    139          1           0      -14.971286   -1.258855    0.983975
    140          1           0      -15.490014   -2.248521   -0.498654
    141          1           0      -14.850990   -0.584687   -0.628029
    142          1           0       -9.341403   -4.961210   -1.714795
    143          1           0       -6.536131   -5.131614   -0.735940
    144          1           0       -9.516812   -6.535037   -0.095715
    145          1           0       -9.203014   -5.229215    1.101121
    146          1           0       -7.910433   -6.145189    0.513016
    147          1           0       -7.323321   -6.056534   -2.948776
    148          1           0       -5.832912   -5.135249   -3.018840
    149          1           0       -8.568760   -4.541725   -3.881972
    150          1           0       -7.043581   -4.261158   -4.798455
    151          1           0       -7.588596   -3.127686   -3.482199
    152          1           0       -2.079121   -0.834526   -1.955418
    153          1           0       -2.887515   -2.417822   -1.719097
    154          1           0       -2.255399   -1.529657   -0.275551
    155          1           0       -4.097715    2.995414    1.284631
    156          1           0       -3.001162    6.941518   -0.060259
    157          1           0       -4.870598    7.068824    0.053695
    158          1           0       -3.962490    6.519283   -1.376547
 ---------------------------------------------------------------------

 SCF Done:  E(RCAM-B3LYP) =  -4069.81122748     A.U. after   19 cycles

 Excitation energies and oscillator strengths:

 Excited State   1:      Singlet-A      1.6740 eV  740.62 nm  f=0.3257  <S**2>=0.000
     309 -> 315        0.15252
     311 -> 313        0.60406
     312 -> 314       -0.32532
 This state for optimization and/or second-order correction.
 Total Energy, E(TD-HF/TD-DFT) =  -4069.74970729
 Copying the excited state density for this state as the 1-particle RhoCI density.

 Excited State   2:      Singlet-A      1.6814 eV  737.37 nm  f=0.4583  <S**2>=0.000
     310 -> 316        0.15454
     311 -> 313        0.32520
     312 -> 314        0.60360

 Excited State   3:      Singlet-A      2.1858 eV  567.24 nm  f=0.0362  <S**2>=0.000
     309 -> 313        0.60417
     310 -> 314       -0.21945
     311 -> 315       -0.25653

 Excited State   4:      Singlet-A      2.1920 eV  565.63 nm  f=0.1552  <S**2>=0.000
     309 -> 313        0.21826
     310 -> 314        0.60225
     312 -> 316       -0.26146

 Excited State   5:      Singlet-A      2.7377 eV  452.87 nm  f=0.0000  <S**2>=0.000
     312 -> 313        0.70677

 The electronic state is 1-A.
 Alpha  occ. eigenvalues --  -46.87576 -46.87573 -19.26233 -19.25995 -19.19036
 Alpha  occ. eigenvalues --  -19.18706 -19.18639 -19.18634 -19.17934 -19.17913
 Alpha  occ. eigenvalues --  -14.42417 -14.42228 -14.41276 -14.41238 -14.39267
 Alpha  occ. eigenvalues --  -14.39185 -14.38509 -14.38360 -10.38970 -10.38776
 Alpha  occ. eigenvalues --  -10.35318 -10.35271 -10.34151 -10.34094 -10.31642
 Alpha  occ. eigenvalues --  -10.31395 -10.31221 -10.31179 -10.30946 -10.30686
 Alpha  occ. eigenvalues --  -10.30346 -10.30306 -10.30292 -10.30266 -10.30066
 Alpha  occ. eigenvalues --  -10.30011 -10.29805 -10.29713 -10.29417 -10.29355
 Alpha  occ. eigenvalues --  -10.29309 -10.29047 -10.28650 -10.28593 -10.28513
 Alpha  occ. eigenvalues --  -10.28316 -10.28282 -10.28142 -10.28074 -10.27903
 Alpha  occ. eigenvalues --  -10.27897 -10.27589 -10.27577 -10.27513 -10.27444
 Alpha  occ. eigenvalues --  -10.27397 -10.27397 -10.27378 -10.27374 -10.27329
 Alpha  occ. eigenvalues --  -10.27302 -10.27295 -10.27279 -10.27179 -10.26942
 Alpha  occ. eigenvalues --  -10.26911 -10.26621 -10.26428 -10.26353 -10.26253
 Alpha  occ. eigenvalues --  -10.26064 -10.26039 -10.26026 -10.25975 -10.25849
 Alpha  occ. eigenvalues --  -10.25813 -10.25712 -10.25635 -10.25334 -10.25284
 Alpha  occ. eigenvalues --  -10.24772 -10.24654 -10.24611 -10.24605 -10.24580
 Alpha  occ. eigenvalues --  -10.24525  -3.16326  -3.16315  -1.91208  -1.91196
 Alpha  occ. eigenvalues --   -1.90797  -1.90783  -1.90633  -1.90625  -1.16525
 Alpha  occ. eigenvalues --   -1.16341  -1.08518  -1.08386  -1.07038  -1.06893
 Alpha  occ. eigenvalues --   -1.06820  -1.06335  -1.04413  -1.04359  -1.03579
 Alpha  occ. eigenvalues --   -1.03548  -1.03017  -1.02953  -1.02195  -1.02024
 Alpha  occ. eigenvalues --   -0.91892  -0.91744  -0.89411  -0.89325  -0.89081
 Alpha  occ. eigenvalues --   -0.88959  -0.88142  -0.88098  -0.87686  -0.87654
 Alpha  occ. eigenvalues --   -0.87602  -0.87455  -0.87076  -0.87040  -0.84924
 Alpha  occ. eigenvalues --   -0.84756  -0.83796  -0.83749  -0.82858  -0.82787
 Alpha  occ. eigenvalues --   -0.82575  -0.82430  -0.81496  -0.81344  -0.80372
 Alpha  occ. eigenvalues --   -0.80352  -0.78593  -0.78548  -0.77065  -0.77012
 Alpha  occ. eigenvalues --   -0.76816  -0.76710  -0.75754  -0.75697  -0.74723
 Alpha  occ. eigenvalues --   -0.74705  -0.72608  -0.72563  -0.71500  -0.71463
 Alpha  occ. eigenvalues --   -0.69729  -0.69681  -0.68749  -0.68654  -0.67512
 Alpha  occ. eigenvalues --   -0.67427  -0.67125  -0.66990  -0.65191  -0.65055
 Alpha  occ. eigenvalues --   -0.64683  -0.64631  -0.64566  -0.64399  -0.64121
 Alpha  occ. eigenvalues --   -0.64072  -0.62177  -0.62049  -0.60259  -0.60245
 Alpha  occ. eigenvalues --   -0.59719  -0.59580  -0.58905  -0.58772  -0.58334
 Alpha  occ. eigenvalues --   -0.58286  -0.57444  -0.57339  -0.57148  -0.57096
 Alpha  occ. eigenvalues --   -0.56112  -0.56097  -0.55789  -0.55723  -0.55363
 Alpha  occ. eigenvalues --   -0.55316  -0.55157  -0.55130  -0.54395  -0.54295
 Alpha  occ. eigenvalues --   -0.53840  -0.53664  -0.53141  -0.53095  -0.53056
 Alpha  occ. eigenvalues --   -0.53004  -0.52811  -0.52681  -0.52596  -0.52555
 Alpha  occ. eigenvalues --   -0.52320  -0.52255  -0.51764  -0.51697  -0.51580
 Alpha  occ. eigenvalues --   -0.51390  -0.51100  -0.50976  -0.50405  -0.50392
 Alpha  occ. eigenvalues --   -0.49906  -0.49850  -0.49789  -0.49720  -0.49409
 Alpha  occ. eigenvalues --   -0.49301  -0.49113  -0.49013  -0.48994  -0.48877
 Alpha  occ. eigenvalues --   -0.48463  -0.48367  -0.48289  -0.48272  -0.48249
 Alpha  occ. eigenvalues --   -0.48234  -0.47512  -0.47486  -0.47092  -0.47037
 Alpha  occ. eigenvalues --   -0.46626  -0.46589  -0.46479  -0.46326  -0.46183
 Alpha  occ. eigenvalues --   -0.46149  -0.45992  -0.45944  -0.45716  -0.45590
 Alpha  occ. eigenvalues --   -0.45130  -0.45013  -0.44425  -0.44388  -0.44351
 Alpha  occ. eigenvalues --   -0.44308  -0.44042  -0.43993  -0.43946  -0.43873
 Alpha  occ. eigenvalues --   -0.43848  -0.43799  -0.43457  -0.43300  -0.43259
 Alpha  occ. eigenvalues --   -0.43174  -0.42834  -0.42812  -0.42796  -0.42493
 Alpha  occ. eigenvalues --   -0.42475  -0.42403  -0.41884  -0.41803  -0.41569
 Alpha  occ. eigenvalues --   -0.41485  -0.41383  -0.41311  -0.40931  -0.40909
 Alpha  occ. eigenvalues --   -0.40659  -0.40650  -0.40630  -0.40626  -0.40414
 Alpha  occ. eigenvalues --   -0.40375  -0.40158  -0.39988  -0.39349  -0.39265
 Alpha  occ. eigenvalues --   -0.38276  -0.38276  -0.37579  -0.37509  -0.37186
 Alpha  occ. eigenvalues --   -0.37121  -0.37118  -0.37029  -0.36662  -0.36455
 Alpha  occ. eigenvalues --   -0.36128  -0.35952  -0.34165  -0.34066  -0.33744
 Alpha  occ. eigenvalues --   -0.33473  -0.33087  -0.32961  -0.31198  -0.31164
 Alpha  occ. eigenvalues --   -0.30888  -0.30818  -0.29816  -0.29791  -0.29239
 Alpha  occ. eigenvalues --   -0.29238  -0.29109  -0.29099  -0.23950  -0.23860
 Alpha  occ. eigenvalues --   -0.21031  -0.20913
 Alpha virt. eigenvalues --   -0.08702  -0.08560  -0.01602  -0.01539   0.00055
 Alpha virt. eigenvalues --    0.00148   0.02316   0.02422   0.03312   0.03409
 Alpha virt. eigenvalues --    0.04806   0.04941   0.05286   0.05389   0.06253

 Mulliken charges:
               1
     1  Mg   0.840094
     2  C   -0.002105
     3  C   -0.093990
     4  C   -0.046131
     5  C   -0.064214
     6  N   -0.256713
     7  C   -0.052086
     8  C   -0.014220
     9  C   -0.087057
    10  C    0.046590
    11  C    0.104945
    12  C    0.053425
    13  C   -0.071709
    14  H    0.036683
    15  N   -0.433003
    16  C    0.168576
    17  C   -0.177261
    18  C   -0.004234
    19  C    0.148769
    20  C    0.110306
    21  C    0.012132
    22  O   -0.250216
    23  C    0.062515
    24  N   -0.341187
    25  C    0.041184
    26  C   -0.028015
    27  C   -0.023939
    28  C    0.075005
    29  C    0.076334
    30  C    0.035220
    31  C   -0.004459
    32  N   -0.310641
    33  C    0.080900
    34  C   -0.169441
    35  C    0.008478
    36  C    0.083744
    37  C    0.127183
    38  C    0.046778
    39  O   -0.188235
    40  C   -0.005618
    41  C    0.212434
    42  O   -0.254841
    43  O   -0.305375
    44  C    0.157556
    45  H   -0.018047
    46  H   -0.017394
    47  H   -0.041794
    48  H    0.000646
    49  H   -0.004175
    50  H    0.025291
    51  H    0.016161
    52  H    0.016190
    53  H    0.011717
    54  H    0.045750
    55  H    0.017131
    56  H    0.017490
    57  H    0.005721
    58  H    0.026260
    59  H    0.039394
    60  H    0.037109
    61  H    0.035033
    62  H    0.031625
    63  H    0.016148
    64  H    0.009149
    65  H    0.022719
    66  H    0.012465
    67  H    0.004439
    68  H    0.005746
    69  H    0.004652
    70  H    0.008242
    71  H    0.017740
    72  H    0.030003
    73  H    0.048086
    74  H    0.008857
    75  H    0.045608
    76  H    0.034633
    77  H    0.042277
    78  H    0.046002
    79  H    0.054964
    80  Mg   0.837743
    81  C   -0.016762
    82  C   -0.087885
    83  C   -0.045611
    84  C   -0.064962
    85  N   -0.254473
    86  C   -0.049925
    87  C   -0.015023
    88  C   -0.090467
    89  C    0.045621
    90  C    0.114476
    91  C    0.062588
    92  C   -0.077769
    93  H    0.034973
    94  N   -0.423427
    95  C    0.162749
    96  C   -0.174842
    97  C   -0.007968
    98  C    0.152004
    99  C    0.099462
   100  C    0.015464
   101  O   -0.253393
   102  C    0.061242
   103  N   -0.350097
   104  C    0.037422
   105  C   -0.019752
   106  C   -0.034856
   107  C    0.089022
   108  C    0.073720
   109  C    0.034765
   110  C   -0.007669
   111  N   -0.324236
   112  C    0.078562
   113  C   -0.162900
   114  C    0.002698
   115  C    0.096265
   116  C    0.131461
   117  C    0.042515
   118  O   -0.185681
   119  C    0.000684
   120  C    0.211826
   121  O   -0.250683
   122  O   -0.305927
   123  C    0.151946
   124  H   -0.019986
   125  H   -0.015764
   126  H   -0.040285
   127  H   -0.000848
   128  H   -0.004495
   129  H    0.022218
   130  H    0.014348
   131  H    0.015911
   132  H    0.013900
   133  H    0.037964
   134  H    0.020480
   135  H    0.019397
   136  H    0.008552
   137  H    0.025851
   138  H    0.039614
   139  H    0.038105
   140  H    0.036206
   141  H    0.033866
   142  H    0.014307
   143  H    0.012384
   144  H    0.024968
   145  H    0.011508
   146  H    0.005576
   147  H    0.006082
   148  H    0.003740
   149  H    0.010807
   150  H    0.018013
   151  H    0.030255
   152  H    0.047570
   153  H    0.008326
   154  H    0.046863
   155  H    0.034596
   156  H    0.043982
   157  H    0.048925
   158  H    0.054167
 Sum of Mulliken charges =  -0.00000

 Dipole moment (field-independent basis, Debye):
    X=             -1.2080    Y=              1.3745    Z=              7.0285  Tot=              7.2628
 Quadrupole moment (field-independent basis, Debye-Ang):
   XX=           -453.7782   YY=           -485.1496   ZZ=           -503.8365
   XY=            -30.7638   XZ=              5.0352   YZ=             50.3149

 Normal termination of Gaussian 16 at Sun Sep 12 02:50:33 2021.
