 Gaussian 16, Revision A.03,
 Gaussian 16:  ES64L-G16RevA.03 25-Dec-2016

 -----------------------------------
 #p cam-b3lyp/Def2SVP td=(nstates=5)
 -----------------------------------

 --------------------------------
 TDDFT excited states in gaussian
 --------------------------------
 Symbolic Z-matrix:
 Charge =  0 Multiplicity = 1

                         Standard orientation:
 ---------------------------------------------------------------------
 Center     Atomic      Atomic             Coordinates (Angstroms)
 Number     Number       Type             X           Y           Z
 ---------------------------------------------------------------------
      1         12           0        5.454496   -0.486316    0.619901
      2          6           0        5.750841    2.541814   -1.265523
      3          6           0        5.981780    1.383823    3.424828
      4          6           0        5.649630   -3.194996    2.257457
      5          6           0        6.081535   -2.216571   -2.339610
      6          7           0        5.806869    1.679382    0.913554
      7          6           0        5.837236    2.741074    0.114142
      8          6           0        5.893626    4.093675    0.885287
      9          6           0        6.526916    3.576809    2.254152
     10          6           0        6.048026    2.136312    2.214703
     11          6           0        8.052146    3.587317    2.262123
     12          6           0        4.471844    4.710417    1.108664
     13          6           0        4.457930    6.174126    1.558906
     14          1           0        3.396328    7.044916    1.077166
     15          7           0        5.285563   -0.826365    2.558632
     16          6           0        5.523887    0.055241    3.559261
     17          6           0        5.257922   -0.674671    4.817503
     18          6           0        5.029488   -2.105686    4.473837
     19          6           0        5.342326   -2.104426    3.067598
     20          6           0        5.191970   -0.008048    6.157284
     21          6           0        4.607901   -3.288973    5.286382
     22          8           0        4.694760   -4.484751    4.842374
     23          6           0        4.167754   -3.015111    6.666350
     24          7           0        6.029820   -2.423598    0.096857
     25          6           0        5.966749   -3.424745    0.981567
     26          6           0        6.152582   -4.755351    0.314564
     27          6           0        6.114197   -4.471584   -1.256345
     28          6           0        5.987390   -2.928719   -1.214421
     29          6           0        7.444659   -5.505612    0.666209
     30          6           0        5.084492   -5.273870   -2.090888
     31          6           0        3.681112   -4.849514   -1.720018
     32          7           0        5.674008    0.026024   -1.477805
     33          6           0        5.954376   -0.851486   -2.535181
     34          6           0        6.116536   -0.028702   -3.747946
     35          6           0        5.934441    1.280195   -3.305818
     36          6           0        5.700989    1.277403   -1.900904
     37          6           0        6.453142   -0.511170   -5.043459
     38          6           0        5.907214    2.682401   -3.689135
     39          8           0        5.947769    3.289518   -4.760237
     40          6           0        5.908270    3.564405   -2.363279
     41          6           0        4.835089    4.608327   -2.510988
     42          8           0        3.629834    4.286470   -2.544665
     43          8           0        5.374736    5.826401   -2.350930
     44          6           0        4.357939    6.906768   -2.456217
     45          1           0        6.369467    1.827315    4.344042
     46          1           0        5.617797   -4.161987    2.763771
     47          1           0        6.194695   -2.693531   -3.314882
     48          1           0        6.541779    4.846314    0.436003
     49          1           0        6.106463    4.092411    3.117342
     50          1           0        8.454055    3.826832    1.277734
     51          1           0        8.348589    2.581362    2.559899
     52          1           0        8.430872    4.253285    3.037900
     53          1           0        4.010526    4.244138    1.979198
     54          1           0        3.859597    4.603020    0.212592
     55          1           0        5.431488    6.644118    1.416782
     56          1           0        4.300291    6.198281    2.637222
     57          1           0        5.565021    1.014478    6.114642
     58          1           0        5.896675   -0.527440    6.806384
     59          1           0        4.192170   -0.053226    6.589362
     60          1           0        4.976491   -2.528777    7.212218
     61          1           0        3.819787   -3.967177    7.065525
     62          1           0        3.343762   -2.301498    6.639092
     63          1           0        5.345191   -5.438939    0.573897
     64          1           0        7.069960   -4.687474   -1.734448
     65          1           0        7.275056   -6.502761    1.073190
     66          1           0        8.012683   -4.890150    1.363236
     67          1           0        8.151326   -5.609462   -0.156746
     68          1           0        5.166078   -6.338084   -1.872394
     69          1           0        5.208563   -5.145620   -3.166253
     70          1           0        3.472080   -5.447735   -0.833864
     71          1           0        2.985991   -5.088784   -2.525479
     72          1           0        3.647982   -3.801659   -1.421041
     73          1           0        5.805074    0.016299   -5.743283
     74          1           0        6.315589   -1.590032   -5.112299
     75          1           0        7.501634   -0.219359   -5.101481
     76          1           0        6.900808    4.006350   -2.281577
     77          1           0        4.696958    7.592000   -3.233236
     78          1           0        4.225980    7.307146   -1.450887
     79          1           0        3.383638    6.615041   -2.849880
     80         12           0       -5.062127   -0.835812   -0.460200
     81          6           0       -7.650537    1.497466    0.397131
     82          6           0       -3.149459    1.843277   -1.353947
     83          6           0       -2.937238   -2.873512   -1.643437
     84          6           0       -7.520569   -3.302584   -0.589931
     85          7           0       -5.459338    1.339932   -0.435243
     86          6           0       -6.455841    2.113084   -0.030815
     87          6           0       -6.126417    3.629889   -0.012386
     88          6           0       -4.944370    3.632470   -1.099413
     89          6           0       -4.457486    2.194268   -0.934472
     90          6           0       -5.438656    3.808800   -2.525566
     91          6           0       -5.617539    4.114017    1.390711
     92          6           0       -5.571818    5.633179    1.569113
     93          1           0       -5.886069    6.189552    2.882186
     94          7           0       -3.144829   -0.578812   -0.903473
     95          6           0       -2.531106    0.580749   -1.219734
     96          6           0       -1.125402    0.233930   -1.480276
     97          6           0       -0.995131   -1.248304   -1.452873
     98          6           0       -2.388400   -1.633527   -1.350589
     99          6           0       -0.049213    1.267534   -1.644274
    100          6           0        0.186772   -2.167295   -1.521876
    101          8           0        0.050218   -3.426104   -1.720810
    102          6           0        1.512715   -1.537085   -1.443032
    103          7           0       -5.232036   -2.755316   -1.240578
    104          6           0       -4.144261   -3.439509   -1.636259
    105          6           0       -4.477531   -4.888450   -1.900633
    106          6           0       -5.970955   -5.090377   -1.365360
    107          6           0       -6.288466   -3.637886   -0.947233
    108          6           0       -4.395776   -5.334217   -3.360436
    109          6           0       -6.199835   -6.224657   -0.329170
    110          6           0       -5.509322   -5.882599    0.971441
    111          7           0       -7.164826   -0.962910    0.019955
    112          6           0       -8.008669   -2.084630   -0.134145
    113          6           0       -9.376742   -1.651824    0.217257
    114          6           0       -9.236653   -0.291696    0.531752
    115          6           0       -7.880784    0.100739    0.367117
    116          6           0      -10.544051   -2.465098    0.171620
    117          6           0       -9.929377    0.903895    0.955325
    118          8           0      -11.073470    1.158557    1.329409
    119          6           0       -8.956124    2.146057    0.765089
    120          6           0       -8.999961    2.967612    2.024312
    121          8           0       -8.569920    2.505443    3.095791
    122          8           0       -9.338550    4.232241    1.713788
    123          6           0       -9.384506    5.088517    2.928904
    124          1           0       -2.552534    2.593236   -1.873681
    125          1           0       -2.225558   -3.643658   -1.949824
    126          1           0       -8.325531   -4.036370   -0.510793
    127          1           0       -6.933760    4.274079   -0.339470
    128          1           0       -4.159830    4.334094   -0.828143
    129          1           0       -6.516678    3.784825   -2.584193
    130          1           0       -5.010830    2.989645   -3.088583
    131          1           0       -5.021695    4.722472   -2.958790
    132          1           0       -4.548849    3.881680    1.483702
    133          1           0       -6.197890    3.674941    2.178774
    134          1           0       -6.132363    6.157284    0.785501
    135          1           0       -4.540904    5.967960    1.430724
    136          1           0       -0.472168    2.270480   -1.780691
    137          1           0        0.456633    1.054820   -2.592293
    138          1           0        0.686430    1.241330   -0.837539
    139          1           0        1.619427   -0.817956   -2.251685
    140          1           0        2.227407   -2.362027   -1.419289
    141          1           0        1.575588   -0.970241   -0.507433
    142          1           0       -3.814974   -5.544460   -1.349478
    143          1           0       -6.665437   -5.341704   -2.180447
    144          1           0       -3.705383   -6.184029   -3.519284
    145          1           0       -4.097639   -4.484768   -3.960521
    146          1           0       -5.346180   -5.613795   -3.811837
    147          1           0       -5.751850   -7.156587   -0.682655
    148          1           0       -7.247773   -6.425273   -0.132775
    149          1           0       -4.477927   -6.202081    0.794719
    150          1           0       -5.956240   -6.431018    1.798212
    151          1           0       -5.495088   -4.798966    1.136342
    152          1           0      -11.104958   -2.255505    1.072706
    153          1           0      -10.290611   -3.520516    0.096615
    154          1           0      -11.008528   -2.088440   -0.743608
    155          1           0       -9.306591    2.707030   -0.102125
    156          1           0      -10.379626    5.542718    2.962242
    157          1           0       -8.520476    5.774084    2.844111
    158          1           0       -9.345412    4.593881    3.892374
 ---------------------------------------------------------------------

 SCF Done:  E(RCAM-B3LYP) =  -4069.81360514     A.U. after   18 cycles

 Excitation energies and oscillator strengths:

 Excited State   1:      Singlet-A      1.6589 eV  747.37 nm  f=0.2967  <S**2>=0.000
     309 -> 315        0.11309
     310 -> 316        0.12704
     311 -> 313       -0.45324
     312 -> 314        0.51615
 This state for optimization and/or second-order correction.
 Total Energy, E(TD-HF/TD-DFT) =  -4069.75264050
 Copying the excited state density for this state as the 1-particle RhoCI density.

 Excited State   2:      Singlet-A      1.6894 eV  733.90 nm  f=0.4913  <S**2>=0.000
     309 -> 315       -0.13429
     310 -> 316        0.11596
     311 -> 313        0.51484
     312 -> 314        0.45224

 Excited State   3:      Singlet-A      2.1860 eV  567.18 nm  f=0.0171  <S**2>=0.000
     309 -> 313       -0.30613
     310 -> 314        0.56611
     311 -> 315       -0.12784
     312 -> 316       -0.23948

 Excited State   4:      Singlet-A      2.1980 eV  564.08 nm  f=0.1610  <S**2>=0.000
     309 -> 313        0.56315
     310 -> 314        0.30272
     311 -> 315        0.24772
     312 -> 316       -0.13241

 Excited State   5:      Singlet-A      2.4154 eV  513.31 nm  f=0.0000  <S**2>=0.000
     312 -> 313        0.70667

 The electronic state is 1-A.
 Alpha  occ. eigenvalues --  -46.88057 -46.87443 -19.26698 -19.26230 -19.19485
 Alpha  occ. eigenvalues --  -19.19029 -19.18932 -19.18593 -19.18438 -19.17852
 Alpha  occ. eigenvalues --  -14.42684 -14.42280 -14.41630 -14.41141 -14.39623
 Alpha  occ. eigenvalues --  -14.39129 -14.38846 -14.38382 -10.39517 -10.38954
 Alpha  occ. eigenvalues --  -10.35561 -10.35222 -10.34667 -10.34034 -10.32092
 Alpha  occ. eigenvalues --  -10.31666 -10.31653 -10.31146 -10.31089 -10.30805
 Alpha  occ. eigenvalues --  -10.30782 -10.30712 -10.30336 -10.30202 -10.30120
 Alpha  occ. eigenvalues --  -10.30082 -10.29907 -10.29835 -10.29715 -10.29448
 Alpha  occ. eigenvalues --  -10.29182 -10.29139 -10.29032 -10.28882 -10.28608
 Alpha  occ. eigenvalues --  -10.28546 -10.28525 -10.28367 -10.28165 -10.28008
 Alpha  occ. eigenvalues --  -10.27937 -10.27921 -10.27780 -10.27756 -10.27643
 Alpha  occ. eigenvalues --  -10.27631 -10.27463 -10.27449 -10.27442 -10.27411
 Alpha  occ. eigenvalues --  -10.27346 -10.27271 -10.27219 -10.27200 -10.27068
 Alpha  occ. eigenvalues --  -10.26871 -10.26731 -10.26544 -10.26480 -10.26448
 Alpha  occ. eigenvalues --  -10.26187 -10.26179 -10.26027 -10.25990 -10.25896
 Alpha  occ. eigenvalues --  -10.25791 -10.25712 -10.25667 -10.25443 -10.25264
 Alpha  occ. eigenvalues --  -10.25070 -10.24961 -10.24643 -10.24587 -10.24485
 Alpha  occ. eigenvalues --  -10.24141  -3.16785  -3.16193  -1.91668  -1.91252
 Alpha  occ. eigenvalues --   -1.91095  -1.91076  -1.90664  -1.90501  -1.17051
 Alpha  occ. eigenvalues --   -1.16521  -1.08912  -1.08469  -1.07326  -1.07090
 Alpha  occ. eigenvalues --   -1.06813  -1.06811  -1.04817  -1.04274  -1.03948
 Alpha  occ. eigenvalues --   -1.03447  -1.03446  -1.02820  -1.02618  -1.01889
 Alpha  occ. eigenvalues --   -0.92221  -0.91776  -0.89591  -0.89436  -0.89297
 Alpha  occ. eigenvalues --   -0.88949  -0.88316  -0.88083  -0.88037  -0.87881
 Alpha  occ. eigenvalues --   -0.87581  -0.87457  -0.87440  -0.86778  -0.85223
 Alpha  occ. eigenvalues --   -0.84800  -0.83946  -0.83706  -0.83034  -0.82845
 Alpha  occ. eigenvalues --   -0.82673  -0.82436  -0.81859  -0.81426  -0.80816
 Alpha  occ. eigenvalues --   -0.80248  -0.78979  -0.78325  -0.77387  -0.77121
 Alpha  occ. eigenvalues --   -0.76900  -0.76724  -0.76154  -0.75604  -0.74966
 Alpha  occ. eigenvalues --   -0.74604  -0.72956  -0.72466  -0.71862  -0.71374
 Alpha  occ. eigenvalues --   -0.69810  -0.69581  -0.69091  -0.68617  -0.67848
 Alpha  occ. eigenvalues --   -0.67465  -0.67397  -0.67008  -0.65540  -0.65086
 Alpha  occ. eigenvalues --   -0.65076  -0.64809  -0.64566  -0.64471  -0.64305
 Alpha  occ. eigenvalues --   -0.64015  -0.62572  -0.62111  -0.60589  -0.60072
 Alpha  occ. eigenvalues --   -0.60043  -0.59584  -0.59180  -0.58786  -0.58703
 Alpha  occ. eigenvalues --   -0.58209  -0.57893  -0.57442  -0.57374  -0.57023
 Alpha  occ. eigenvalues --   -0.56530  -0.56283  -0.55953  -0.55711  -0.55697
 Alpha  occ. eigenvalues --   -0.55473  -0.55233  -0.55074  -0.54651  -0.54330
 Alpha  occ. eigenvalues --   -0.54159  -0.53716  -0.53459  -0.53442  -0.53161
 Alpha  occ. eigenvalues --   -0.53022  -0.52947  -0.52929  -0.52713  -0.52397
 Alpha  occ. eigenvalues --   -0.52317  -0.52226  -0.52111  -0.51861  -0.51690
 Alpha  occ. eigenvalues --   -0.51481  -0.51351  -0.51004  -0.50685  -0.50212
 Alpha  occ. eigenvalues --   -0.50135  -0.49959  -0.49731  -0.49674  -0.49639
 Alpha  occ. eigenvalues --   -0.49440  -0.49325  -0.49275  -0.48961  -0.48908
 Alpha  occ. eigenvalues --   -0.48853  -0.48627  -0.48540  -0.48357  -0.48203
 Alpha  occ. eigenvalues --   -0.48102  -0.47857  -0.47471  -0.47355  -0.46980
 Alpha  occ. eigenvalues --   -0.46828  -0.46781  -0.46551  -0.46496  -0.46411
 Alpha  occ. eigenvalues --   -0.46264  -0.46077  -0.46004  -0.45876  -0.45648
 Alpha  occ. eigenvalues --   -0.45252  -0.45022  -0.44819  -0.44692  -0.44434
 Alpha  occ. eigenvalues --   -0.44345  -0.44319  -0.44235  -0.44149  -0.43909
 Alpha  occ. eigenvalues --   -0.43853  -0.43786  -0.43691  -0.43424  -0.43386
 Alpha  occ. eigenvalues --   -0.43195  -0.43175  -0.43032  -0.42767  -0.42687
 Alpha  occ. eigenvalues --   -0.42613  -0.42331  -0.41985  -0.41893  -0.41785
 Alpha  occ. eigenvalues --   -0.41655  -0.41467  -0.41335  -0.41269  -0.41034
 Alpha  occ. eigenvalues --   -0.40959  -0.40780  -0.40551  -0.40523  -0.40513
 Alpha  occ. eigenvalues --   -0.40483  -0.40309  -0.40066  -0.39259  -0.39255
 Alpha  occ. eigenvalues --   -0.38529  -0.38175  -0.38023  -0.37528  -0.37484
 Alpha  occ. eigenvalues --   -0.37391  -0.37071  -0.37046  -0.36980  -0.36631
 Alpha  occ. eigenvalues --   -0.36357  -0.36039  -0.34508  -0.34193  -0.34041
 Alpha  occ. eigenvalues --   -0.33715  -0.33403  -0.32960  -0.31466  -0.31239
 Alpha  occ. eigenvalues --   -0.31101  -0.30764  -0.30305  -0.29763  -0.29659
 Alpha  occ. eigenvalues --   -0.29553  -0.29075  -0.28978  -0.24301  -0.23820
 Alpha  occ. eigenvalues --   -0.21328  -0.20885
 Alpha virt. eigenvalues --   -0.08979  -0.08553  -0.01940  -0.01481  -0.00248
 Alpha virt. eigenvalues --    0.00189   0.01967   0.02346   0.02617   0.03410
 Alpha virt. eigenvalues --    0.04480   0.04686   0.04928   0.05310   0.05840

 Mulliken charges:
               1
     1  Mg   0.825288
     2  C   -0.004472
     3  C   -0.094107
     4  C   -0.044588
     5  C   -0.061691
     6  N   -0.256271
     7  C   -0.054417
     8  C   -0.013402
     9  C   -0.086924
    10  C    0.046199
    11  C    0.104644
    12  C    0.053181
    13  C   -0.071625
    14  H    0.034535
    15  N   -0.433179
    16  C    0.168357
    17  C   -0.176916
    18  C   -0.003257
    19  C    0.148437
    20  C    0.110037
    21  C    0.013179
    22  O   -0.247951
    23  C    0.062176
    24  N   -0.340119
    25  C    0.041236
    26  C   -0.028746
    27  C   -0.025988
    28  C    0.072772
    29  C    0.076685
    30  C    0.040124
    31  C   -0.019139
    32  N   -0.309888
    33  C    0.077597
    34  C   -0.170981
    35  C    0.007572
    36  C    0.078879
    37  C    0.127713
    38  C    0.044478
    39  O   -0.188825
    40  C   -0.005073
    41  C    0.213884
    42  O   -0.261898
    43  O   -0.303668
    44  C    0.157910
    45  H   -0.017124
    46  H   -0.015406
    47  H   -0.040800
    48  H    0.001146
    49  H   -0.003819
    50  H    0.025673
    51  H    0.017062
    52  H    0.017218
    53  H    0.010980
    54  H    0.040972
    55  H    0.018921
    56  H    0.018887
    57  H    0.005920
    58  H    0.027588
    59  H    0.040404
    60  H    0.037325
    61  H    0.036809
    62  H    0.031957
    63  H    0.018765
    64  H    0.008917
    65  H    0.023779
    66  H    0.011831
    67  H    0.004885
    68  H    0.005253
    69  H    0.003454
    70  H    0.008215
    71  H    0.029689
    72  H    0.050343
    73  H    0.046529
    74  H    0.010532
    75  H    0.046431
    76  H    0.035965
    77  H    0.043981
    78  H    0.046873
    79  H    0.051566
    80  Mg   0.837000
    81  C   -0.016851
    82  C   -0.087257
    83  C   -0.045751
    84  C   -0.065116
    85  N   -0.254387
    86  C   -0.050572
    87  C   -0.015072
    88  C   -0.090264
    89  C    0.045022
    90  C    0.114271
    91  C    0.062619
    92  C   -0.077353
    93  H    0.033312
    94  N   -0.423619
    95  C    0.161753
    96  C   -0.178185
    97  C    0.003289
    98  C    0.151835
    99  C    0.102277
   100  C    0.005476
   101  O   -0.254663
   102  C    0.063459
   103  N   -0.350127
   104  C    0.037843
   105  C   -0.019869
   106  C   -0.034558
   107  C    0.088534
   108  C    0.073806
   109  C    0.034927
   110  C   -0.007546
   111  N   -0.323848
   112  C    0.077701
   113  C   -0.163859
   114  C    0.001954
   115  C    0.095601
   116  C    0.131647
   117  C    0.041845
   118  O   -0.189045
   119  C    0.001022
   120  C    0.211174
   121  O   -0.251497
   122  O   -0.305532
   123  C    0.152261
   124  H   -0.016376
   125  H   -0.016500
   126  H   -0.041209
   127  H   -0.001084
   128  H   -0.003849
   129  H    0.021899
   130  H    0.015204
   131  H    0.016780
   132  H    0.013764
   133  H    0.037144
   134  H    0.020838
   135  H    0.019424
   136  H    0.013635
   137  H    0.034824
   138  H    0.041460
   139  H    0.049662
   140  H    0.019714
   141  H    0.033016
   142  H    0.013978
   143  H    0.011982
   144  H    0.024193
   145  H    0.011944
   146  H    0.005474
   147  H    0.005639
   148  H    0.003321
   149  H    0.010861
   150  H    0.017444
   151  H    0.030309
   152  H    0.045277
   153  H    0.007993
   154  H    0.046412
   155  H    0.034753
   156  H    0.043550
   157  H    0.049280
   158  H    0.053110
 Sum of Mulliken charges =  -0.00000

 Dipole moment (field-independent basis, Debye):
    X=              5.0701    Y=              2.8143    Z=              1.8651  Tot=              6.0914
 Quadrupole moment (field-independent basis, Debye-Ang):
   XX=           -549.3903   YY=           -468.0173   ZZ=           -513.9960
   XY=             13.1035   XZ=             44.8501   YZ=             33.8479

 Normal termination of Gaussian 16 at Fri Sep 10 09:27:11 2021.
