 Gaussian 16, Revision A.03,
 Gaussian 16:  ES64L-G16RevA.03 25-Dec-2016

 -----------------------------------
 #p cam-b3lyp/Def2SVP td=(nstates=5)
 -----------------------------------

 --------------------------------
 TDDFT excited states in gaussian
 --------------------------------
 Symbolic Z-matrix:
 Charge =  0 Multiplicity = 1

                         Standard orientation:
 ---------------------------------------------------------------------
 Center     Atomic      Atomic             Coordinates (Angstroms)
 Number     Number       Type             X           Y           Z
 ---------------------------------------------------------------------
      1         12           0        6.445016   -1.074327    0.013809
      2          6           0        7.204224    2.350404   -0.698257
      3          6           0        7.480304   -0.484059    3.211125
      4          6           0        6.214059   -4.191595    0.548521
      5          6           0        6.558659   -1.659763   -3.419849
      6          7           0        7.220366    0.744524    1.009430
      7          6           0        7.406508    2.008043    0.640591
      8          6           0        7.764269    2.951811    1.827471
      9          6           0        8.365256    1.872284    2.835158
     10          6           0        7.618925    0.642965    2.347625
     11          6           0        9.862357    1.640421    2.657874
     12          6           0        6.501537    3.656033    2.428562
     13          6           0        6.793080    4.831439    3.365992
     14          1           0        5.891074    5.973228    3.358913
     15          7           0        6.326482   -2.077695    1.711470
     16          6           0        6.785930   -1.678637    2.921820
     17          6           0        6.458679   -2.771588    3.862589
     18          6           0        5.942035   -3.918657    3.065467
     19          6           0        6.167690   -3.445301    1.723680
     20          6           0        6.598517   -2.647453    5.348788
     21          6           0        5.350084   -5.237186    3.451744
     22          8           0        5.181488   -6.181010    2.605963
     23          6           0        5.050634   -5.429012    4.882329
     24          7           0        6.609088   -2.744128   -1.228157
     25          6           0        6.407368   -3.978711   -0.754766
     26          6           0        6.297176   -4.978815   -1.867235
     27          6           0        6.223040   -4.130862   -3.218247
     28          6           0        6.395492   -2.714014   -2.617354
     29          6           0        7.440518   -5.998088   -1.966540
     30          6           0        5.012798   -4.395086   -4.148794
     31          6           0        3.739912   -3.924536   -3.481378
     32          7           0        6.636804    0.137783   -1.776456
     33          6           0        6.683150   -0.317613   -3.102028
     34          6           0        6.929018    0.859747   -3.954929
     35          6           0        7.025757    1.922725   -3.059070
     36          6           0        6.877525    1.436043   -1.728860
     37          6           0        7.092086    0.845482   -5.368308
     38          6           0        7.244422    3.352809   -2.914489
     39          8           0        7.338161    4.299236   -3.697420
     40          6           0        7.490205    3.668814   -1.373204
     41          6           0        6.629151    4.847137   -1.007895
     42          8           0        5.384735    4.753432   -1.004220
     43          8           0        7.399553    5.818621   -0.494827
     44          6           0        6.603153    7.005772   -0.084251
     45          1           0        7.997853   -0.479298    4.172406
     46          1           0        6.027631   -5.259566    0.679373
     47          1           0        6.522292   -1.752717   -4.506813
     48          1           0        8.517059    3.706014    1.597451
     49          1           0        8.101396    2.090208    3.869861
     50          1           0       10.245087    2.161651    1.780515
     51          1           0        9.978154    0.562720    2.541065
     52          1           0       10.405284    1.903424    3.566080
     53          1           0        6.010765    2.978677    3.127412
     54          1           0        5.829377    3.985523    1.635490
     55          1           0        7.828559    5.162151    3.280426
     56          1           0        6.705435    4.478603    4.393623
     57          1           0        7.156669   -1.753830    5.625280
     58          1           0        7.227471   -3.473730    5.679533
     59          1           0        5.635087   -2.692579    5.856821
     60          1           0        5.967415   -5.312520    5.460680
     61          1           0        4.551078   -6.394174    4.958197
     62          1           0        4.377716   -4.636708    5.211547
     63          1           0        5.390553   -5.574505   -1.769180
     64          1           0        7.090863   -4.300811   -3.855957
     65          1           0        7.107599   -7.035313   -1.921432
     66          1           0        8.154768   -5.781746   -1.172604
     67          1           0        8.065713   -5.898708   -2.853485
     68          1           0        4.902360   -5.463144   -4.333190
     69          1           0        5.096790   -3.898560   -5.115572
     70          1           0        3.472100   -4.767933   -2.845933
     71          1           0        2.966615   -3.736399   -4.226916
     72          1           0        3.924575   -3.070798   -2.829061
     73          1           0        6.517247    1.689092   -5.750211
     74          1           0        6.747531   -0.095236   -5.797184
     75          1           0        8.171861    0.970175   -5.448266
     76          1           0        8.551848    3.887933   -1.263559
     77          1           0        7.021238    7.868060   -0.603769
     78          1           0        6.608223    7.020413    1.005778
     79          1           0        5.570031    7.036938   -0.432142
     80         12           0       -6.613765    1.079144    0.213440
     81          6           0       -6.996421   -2.475458   -0.098640
     82          6           0       -5.769017    1.128076   -3.090896
     83          6           0       -5.833158    4.134917    0.560377
     84          6           0       -6.365579    0.610325    3.657895
     85          7           0       -6.441297   -0.530533   -1.293687
     86          6           0       -6.670939   -1.834862   -1.312372
     87          6           0       -6.623266   -2.476170   -2.725174
     88          6           0       -5.685753   -1.392245   -3.449766
     89          6           0       -6.005956   -0.174914   -2.584750
     90          6           0       -4.202486   -1.695226   -3.317658
     91          6           0       -8.039787   -2.550422   -3.395980
     92          6           0       -8.116956   -3.439928   -4.638790
     93          1           0       -9.342180   -4.197843   -4.877288
     94          7           0       -6.383143    2.507904   -1.144516
     95          6           0       -6.062154    2.349632   -2.445746
     96          6           0       -5.993891    3.706025   -3.011149
     97          6           0       -6.138809    4.685272   -1.899940
     98          6           0       -6.102349    3.794665   -0.757322
     99          6           0       -5.887006    3.968696   -4.485259
    100          6           0       -6.273407    6.177645   -1.869938
    101          8           0       -6.147186    6.843368   -0.781956
    102          6           0       -6.464427    6.844844   -3.166033
    103          7           0       -5.953281    2.189516    1.842302
    104          6           0       -5.736935    3.512263    1.735268
    105          6           0       -5.535827    4.143658    3.092198
    106          6           0       -5.903807    3.005990    4.154222
    107          6           0       -6.180186    1.835309    3.185457
    108          6           0       -4.130187    4.671421    3.378620
    109          6           0       -6.981622    3.356733    5.216270
    110          6           0       -8.327861    3.524807    4.549357
    111          7           0       -6.850083   -0.578801    1.578513
    112          6           0       -6.675349   -0.561614    2.979674
    113          6           0       -6.832125   -1.951542    3.455037
    114          6           0       -7.066225   -2.690300    2.285458
    115          6           0       -7.036018   -1.825166    1.158456
    116          6           0       -6.705369   -2.388757    4.803700
    117          6           0       -7.321482   -4.006923    1.746892
    118          8           0       -7.539457   -5.116512    2.231685
    119          6           0       -7.162054   -3.946112    0.166610
    120          6           0       -8.347521   -4.639552   -0.446852
    121          8           0       -9.491615   -4.169719   -0.316785
    122          8           0       -7.912589   -5.616456   -1.263470
    123          6           0       -9.051718   -6.326175   -1.904180
    124          1           0       -5.272782    1.227195   -4.056716
    125          1           0       -5.666825    5.198177    0.748240
    126          1           0       -6.399691    0.396434    4.728298
    127          1           0       -6.159481   -3.454494   -2.764531
    128          1           0       -5.998570   -1.223082   -4.476846
    129          1           0       -4.018855   -2.528246   -2.655459
    130          1           0       -3.751829   -0.793187   -2.924860
    131          1           0       -3.759407   -1.847773   -4.305958
    132          1           0       -8.274060   -1.577365   -3.846530
    133          1           0       -8.782299   -2.857346   -2.685267
    134          1           0       -7.238347   -4.089159   -4.736217
    135          1           0       -8.078378   -2.801950   -5.525078
    136          1           0       -5.632678    3.056493   -5.038991
    137          1           0       -5.022278    4.625048   -4.631233
    138          1           0       -6.774779    4.458220   -4.891340
    139          1           0       -5.626283    6.612611   -3.818752
    140          1           0       -6.629281    7.898152   -2.931003
    141          1           0       -7.359496    6.431193   -3.643906
    142          1           0       -6.205307    4.983693    3.230919
    143          1           0       -5.031794    2.714950    4.758154
    144          1           0       -4.112995    5.745026    3.645328
    145          1           0       -3.512224    4.485386    2.510253
    146          1           0       -3.590180    4.144701    4.163576
    147          1           0       -6.748699    4.313223    5.690654
    148          1           0       -7.066369    2.617748    6.006028
    149          1           0       -8.296571    4.556655    4.186853
    150          1           0       -9.132018    3.383368    5.268643
    151          1           0       -8.418028    2.870627    3.674395
    152          1           0       -7.517320   -3.080569    4.984340
    153          1           0       -6.733885   -1.551178    5.497538
    154          1           0       -5.717893   -2.856401    4.765134
    155          1           0       -6.222871   -4.439217   -0.087115
    156          1           0       -8.935936   -7.389702   -1.673565
    157          1           0       -9.022308   -6.036041   -2.971281
    158          1           0      -10.044914   -6.132549   -1.516223
 ---------------------------------------------------------------------

 SCF Done:  E(RCAM-B3LYP) =  -4069.81180180     A.U. after   19 cycles

 Excitation energies and oscillator strengths:

 Excited State   1:      Singlet-A      1.6661 eV  744.14 nm  f=0.0257  <S**2>=0.000
     309 -> 315        0.10944
     310 -> 316        0.13218
     311 -> 313        0.43648
     312 -> 314        0.52998
 This state for optimization and/or second-order correction.
 Total Energy, E(TD-HF/TD-DFT) =  -4069.75057220
 Copying the excited state density for this state as the 1-particle RhoCI density.

 Excited State   2:      Singlet-A      1.6893 eV  733.94 nm  f=0.7163  <S**2>=0.000
     309 -> 315        0.13738
     310 -> 316       -0.11266
     311 -> 313        0.52883
     312 -> 314       -0.43563

 Excited State   3:      Singlet-A      2.1857 eV  567.25 nm  f=0.0431  <S**2>=0.000
     309 -> 313        0.20089
     310 -> 314        0.61093
     312 -> 316       -0.25870

 Excited State   4:      Singlet-A      2.1937 eV  565.17 nm  f=0.1466  <S**2>=0.000
     309 -> 313        0.60851
     310 -> 314       -0.19920
     311 -> 315       -0.26512

 Excited State   5:      Singlet-A      2.6498 eV  467.89 nm  f=0.0000  <S**2>=0.000
     312 -> 313        0.70710

 The electronic state is 1-A.
 Alpha  occ. eigenvalues --  -46.87853 -46.87552 -19.26326 -19.26271 -19.19079
 Alpha  occ. eigenvalues --  -19.19068 -19.18843 -19.18590 -19.18227 -19.17954
 Alpha  occ. eigenvalues --  -14.42504 -14.42388 -14.41508 -14.41254 -14.39456
 Alpha  occ. eigenvalues --  -14.39240 -14.38646 -14.38494 -10.39127 -10.39007
 Alpha  occ. eigenvalues --  -10.35474 -10.35266 -10.34447 -10.34132 -10.31712
 Alpha  occ. eigenvalues --  -10.31687 -10.31462 -10.31203 -10.30956 -10.30908
 Alpha  occ. eigenvalues --  -10.30629 -10.30565 -10.30293 -10.30264 -10.30256
 Alpha  occ. eigenvalues --  -10.30033 -10.29984 -10.29796 -10.29686 -10.29322
 Alpha  occ. eigenvalues --  -10.29307 -10.29294 -10.28792 -10.28614 -10.28573
 Alpha  occ. eigenvalues --  -10.28571 -10.28417 -10.28292 -10.28162 -10.28028
 Alpha  occ. eigenvalues --  -10.27893 -10.27849 -10.27781 -10.27634 -10.27576
 Alpha  occ. eigenvalues --  -10.27554 -10.27516 -10.27515 -10.27457 -10.27438
 Alpha  occ. eigenvalues --  -10.27376 -10.27353 -10.27319 -10.27287 -10.27210
 Alpha  occ. eigenvalues --  -10.26953 -10.26745 -10.26600 -10.26414 -10.26286
 Alpha  occ. eigenvalues --  -10.26276 -10.26275 -10.26083 -10.26079 -10.25927
 Alpha  occ. eigenvalues --  -10.25895 -10.25836 -10.25782 -10.25490 -10.25298
 Alpha  occ. eigenvalues --  -10.24890 -10.24842 -10.24811 -10.24767 -10.24672
 Alpha  occ. eigenvalues --  -10.24582  -3.16596  -3.16302  -1.91478  -1.91184
 Alpha  occ. eigenvalues --   -1.91064  -1.90906  -1.90773  -1.90609  -1.16676
 Alpha  occ. eigenvalues --   -1.16564  -1.08686  -1.08564  -1.07242  -1.06863
 Alpha  occ. eigenvalues --   -1.06841  -1.06690  -1.04634  -1.04385  -1.03817
 Alpha  occ. eigenvalues --   -1.03555  -1.03290  -1.02933  -1.02468  -1.02005
 Alpha  occ. eigenvalues --   -0.92027  -0.91883  -0.89590  -0.89402  -0.89234
 Alpha  occ. eigenvalues --   -0.89044  -0.88354  -0.88129  -0.87935  -0.87726
 Alpha  occ. eigenvalues --   -0.87700  -0.87578  -0.87315  -0.86996  -0.85029
 Alpha  occ. eigenvalues --   -0.84895  -0.84010  -0.83790  -0.83005  -0.82813
 Alpha  occ. eigenvalues --   -0.82693  -0.82544  -0.81636  -0.81505  -0.80646
 Alpha  occ. eigenvalues --   -0.80342  -0.78846  -0.78522  -0.77277  -0.77042
 Alpha  occ. eigenvalues --   -0.76986  -0.76804  -0.75972  -0.75735  -0.74959
 Alpha  occ. eigenvalues --   -0.74706  -0.72834  -0.72597  -0.71725  -0.71476
 Alpha  occ. eigenvalues --   -0.69990  -0.69677  -0.68920  -0.68723  -0.67692
 Alpha  occ. eigenvalues --   -0.67497  -0.67260  -0.67094  -0.65337  -0.65170
 Alpha  occ. eigenvalues --   -0.64909  -0.64675  -0.64670  -0.64556  -0.64336
 Alpha  occ. eigenvalues --   -0.64112  -0.62348  -0.62189  -0.60490  -0.60225
 Alpha  occ. eigenvalues --   -0.59854  -0.59690  -0.59044  -0.58891  -0.58559
 Alpha  occ. eigenvalues --   -0.58324  -0.57638  -0.57461  -0.57365  -0.57136
 Alpha  occ. eigenvalues --   -0.56363  -0.56101  -0.56023  -0.55794  -0.55565
 Alpha  occ. eigenvalues --   -0.55404  -0.55344  -0.55160  -0.54584  -0.54403
 Alpha  occ. eigenvalues --   -0.53941  -0.53807  -0.53352  -0.53264  -0.53126
 Alpha  occ. eigenvalues --   -0.53036  -0.52968  -0.52804  -0.52793  -0.52542
 Alpha  occ. eigenvalues --   -0.52525  -0.52327  -0.51986  -0.51803  -0.51658
 Alpha  occ. eigenvalues --   -0.51551  -0.51256  -0.51107  -0.50605  -0.50348
 Alpha  occ. eigenvalues --   -0.50099  -0.49958  -0.49868  -0.49767  -0.49556
 Alpha  occ. eigenvalues --   -0.49375  -0.49265  -0.49144  -0.49094  -0.49003
 Alpha  occ. eigenvalues --   -0.48646  -0.48519  -0.48484  -0.48459  -0.48283
 Alpha  occ. eigenvalues --   -0.48221  -0.47744  -0.47488  -0.47345  -0.47006
 Alpha  occ. eigenvalues --   -0.46858  -0.46612  -0.46600  -0.46449  -0.46417
 Alpha  occ. eigenvalues --   -0.46222  -0.46167  -0.45992  -0.45880  -0.45734
 Alpha  occ. eigenvalues --   -0.45263  -0.45108  -0.44635  -0.44553  -0.44419
 Alpha  occ. eigenvalues --   -0.44372  -0.44206  -0.44135  -0.44064  -0.44024
 Alpha  occ. eigenvalues --   -0.43980  -0.43827  -0.43549  -0.43466  -0.43439
 Alpha  occ. eigenvalues --   -0.43284  -0.43083  -0.42840  -0.42806  -0.42758
 Alpha  occ. eigenvalues --   -0.42718  -0.42459  -0.42078  -0.41876  -0.41759
 Alpha  occ. eigenvalues --   -0.41582  -0.41569  -0.41360  -0.41193  -0.40925
 Alpha  occ. eigenvalues --   -0.40883  -0.40855  -0.40637  -0.40618  -0.40588
 Alpha  occ. eigenvalues --   -0.40402  -0.40273  -0.40125  -0.39529  -0.39348
 Alpha  occ. eigenvalues --   -0.38533  -0.38258  -0.37793  -0.37557  -0.37384
 Alpha  occ. eigenvalues --   -0.37311  -0.37171  -0.37094  -0.36766  -0.36688
 Alpha  occ. eigenvalues --   -0.36249  -0.36123  -0.34343  -0.34149  -0.33820
 Alpha  occ. eigenvalues --   -0.33775  -0.33242  -0.33069  -0.31373  -0.31150
 Alpha  occ. eigenvalues --   -0.31089  -0.30865  -0.30087  -0.29860  -0.29499
 Alpha  occ. eigenvalues --   -0.29379  -0.29212  -0.29106  -0.24137  -0.23929
 Alpha  occ. eigenvalues --   -0.21184  -0.21009
 Alpha virt. eigenvalues --   -0.08828  -0.08681  -0.01804  -0.01575  -0.00100
 Alpha virt. eigenvalues --    0.00090   0.02142   0.02307   0.03054   0.03324
 Alpha virt. eigenvalues --    0.04667   0.04836   0.05050   0.05251   0.06137

 Mulliken charges:
               1
     1  Mg   0.838579
     2  C   -0.002898
     3  C   -0.094027
     4  C   -0.045842
     5  C   -0.064184
     6  N   -0.256785
     7  C   -0.052505
     8  C   -0.014000
     9  C   -0.087033
    10  C    0.046389
    11  C    0.104778
    12  C    0.053468
    13  C   -0.071939
    14  H    0.036385
    15  N   -0.433227
    16  C    0.168510
    17  C   -0.176998
    18  C   -0.003807
    19  C    0.148770
    20  C    0.110149
    21  C    0.012500
    22  O   -0.249303
    23  C    0.062372
    24  N   -0.341102
    25  C    0.041227
    26  C   -0.028287
    27  C   -0.023844
    28  C    0.074673
    29  C    0.076101
    30  C    0.035205
    31  C   -0.004418
    32  N   -0.310362
    33  C    0.080177
    34  C   -0.170189
    35  C    0.008294
    36  C    0.082756
    37  C    0.127432
    38  C    0.045906
    39  O   -0.188649
    40  C   -0.005241
    41  C    0.212831
    42  O   -0.257202
    43  O   -0.304777
    44  C    0.157627
    45  H   -0.017391
    46  H   -0.016617
    47  H   -0.041890
    48  H    0.001009
    49  H   -0.003918
    50  H    0.025511
    51  H    0.016470
    52  H    0.016822
    53  H    0.011135
    54  H    0.044120
    55  H    0.017933
    56  H    0.017964
    57  H    0.005922
    58  H    0.027087
    59  H    0.039795
    60  H    0.037346
    61  H    0.036288
    62  H    0.031628
    63  H    0.016630
    64  H    0.009491
    65  H    0.023424
    66  H    0.012735
    67  H    0.004747
    68  H    0.006438
    69  H    0.004320
    70  H    0.009175
    71  H    0.016778
    72  H    0.029093
    73  H    0.047049
    74  H    0.008689
    75  H    0.046131
    76  H    0.035237
    77  H    0.042999
    78  H    0.046541
    79  H    0.053806
    80  Mg   0.838047
    81  C   -0.016801
    82  C   -0.087415
    83  C   -0.045047
    84  C   -0.065071
    85  N   -0.254560
    86  C   -0.049904
    87  C   -0.015093
    88  C   -0.090531
    89  C    0.045737
    90  C    0.114188
    91  C    0.062551
    92  C   -0.077748
    93  H    0.034546
    94  N   -0.423685
    95  C    0.162992
    96  C   -0.173760
    97  C   -0.007461
    98  C    0.152331
    99  C    0.098980
   100  C    0.015940
   101  O   -0.253176
   102  C    0.061113
   103  N   -0.349979
   104  C    0.037719
   105  C   -0.019911
   106  C   -0.034598
   107  C    0.088852
   108  C    0.073532
   109  C    0.034818
   110  C   -0.007598
   111  N   -0.323996
   112  C    0.078286
   113  C   -0.163485
   114  C    0.002162
   115  C    0.096031
   116  C    0.131512
   117  C    0.042223
   118  O   -0.188305
   119  C    0.000931
   120  C    0.211191
   121  O   -0.251169
   122  O   -0.305572
   123  C    0.152121
   124  H   -0.018991
   125  H   -0.015429
   126  H   -0.041077
   127  H   -0.000763
   128  H   -0.004419
   129  H    0.022450
   130  H    0.015410
   131  H    0.016170
   132  H    0.013890
   133  H    0.037540
   134  H    0.020693
   135  H    0.019582
   136  H    0.008929
   137  H    0.027499
   138  H    0.039597
   139  H    0.039094
   140  H    0.036290
   141  H    0.033564
   142  H    0.014193
   143  H    0.011876
   144  H    0.024842
   145  H    0.013003
   146  H    0.005067
   147  H    0.005881
   148  H    0.003218
   149  H    0.010915
   150  H    0.017598
   151  H    0.030317
   152  H    0.045711
   153  H    0.008058
   154  H    0.046581
   155  H    0.035143
   156  H    0.043755
   157  H    0.049449
   158  H    0.053426
 Sum of Mulliken charges =  -0.00000

 Dipole moment (field-independent basis, Debye):
    X=              4.1955    Y=              0.3683    Z=              0.3784  Tot=              4.2286
 Quadrupole moment (field-independent basis, Debye-Ang):
   XX=           -522.2501   YY=           -547.4276   ZZ=           -449.6521
   XY=            -21.3887   XZ=             60.6182   YZ=             42.7437

 Normal termination of Gaussian 16 at Sat Sep 11 06:07:19 2021.
