 Gaussian 16, Revision A.03,
 Gaussian 16:  ES64L-G16RevA.03 25-Dec-2016

 -----------------------------------
 #p cam-b3lyp/Def2SVP td=(nstates=5)
 -----------------------------------

 --------------------------------
 TDDFT excited states in gaussian
 --------------------------------
 Symbolic Z-matrix:
 Charge =  0 Multiplicity = 1

                         Standard orientation:
 ---------------------------------------------------------------------
 Center     Atomic      Atomic             Coordinates (Angstroms)
 Number     Number       Type             X           Y           Z
 ---------------------------------------------------------------------
      1         12           0        7.639960   -1.047772    0.357138
      2          6           0        8.040930    2.269069   -0.927385
      3          6           0        8.443172    0.204409    3.427962
      4          6           0        7.737147   -4.031159    1.427922
      5          6           0        7.987986   -2.198052   -2.914160
      6          7           0        8.154587    0.995113    1.037157
      7          6           0        8.214503    2.189267    0.456143
      8          6           0        8.404328    3.359406    1.467140
      9          6           0        9.073263    2.549670    2.666662
     10          6           0        8.495722    1.174189    2.383072
     11          6           0       10.593885    2.472114    2.576122
     12          6           0        7.041980    3.999932    1.897795
     13          6           0        7.152162    5.345625    2.620515
     14          1           0        6.128211    6.352487    2.385779
     15          7           0        7.552294   -1.750538    2.201396
     16          6           0        7.903504   -1.096720    3.334736
     17          6           0        7.656106   -2.042514    4.444217
     18          6           0        7.312430   -3.363347    3.848078
     19          6           0        7.548850   -3.104614    2.450744
     20          6           0        7.707677   -1.648330    5.888415
     21          6           0        6.855172   -4.656984    4.444357
     22          8           0        6.836283   -5.745712    3.774365
     23          6           0        6.509297   -4.634021    5.877146
     24          7           0        8.052838   -2.874621   -0.564702
     25          6           0        7.969043   -4.024342    0.113608
     26          6           0        8.027607   -5.207030   -0.807131
     27          6           0        7.924597   -4.619620   -2.288377
     28          6           0        7.905847   -3.110137   -1.942862
     29          6           0        9.282425   -6.083469   -0.691816
     30          6           0        6.799302   -5.183515   -3.191788
     31          6           0        5.450051   -4.761245   -2.654843
     32          7           0        7.781261   -0.148080   -1.613047
     33          6           0        7.944026   -0.816125   -2.835298
     34          6           0        8.096787    0.217568   -3.875593
     35          6           0        8.028420    1.422797   -3.179465
     36          6           0        7.870910    1.158333   -1.788946
     37          6           0        8.329792   -0.020298   -5.258909
     38          6           0        8.076494    2.872155   -3.283895
     39          8           0        8.100972    3.673858   -4.218863
     40          6           0        8.208778    3.476139   -1.816403
     41          6           0        7.203003    4.587788   -1.690066
     42          8           0        5.978517    4.347452   -1.705509
     43          8           0        7.832347    5.718470   -1.335063
     44          6           0        6.887504    6.854308   -1.163901
     45          1           0        8.908911    0.436783    4.387665
     46          1           0        7.666537   -5.075157    1.740206
     47          1           0        8.015917   -2.480555   -3.968136
     48          1           0        9.077354    4.147520    1.129005
     49          1           0        8.735832    2.909322    3.638522
     50          1           0       10.957902    2.876513    1.631732
     51          1           0       10.836482    1.412209    2.655127
     52          1           0       11.058202    2.950877    3.438661
     53          1           0        6.597197    3.399167    2.691086
     54          1           0        6.376713    4.104781    1.040035
     55          1           0        8.146523    5.778501    2.507492
     56          1           0        7.054526    5.167169    3.691413
     57          1           0        8.146846   -0.660003    6.018364
     58          1           0        8.409033   -2.323723    6.377958
     59          1           0        6.731707   -1.720557    6.368623
     60          1           0        7.377425   -4.310460    6.451786
     61          1           0        6.119026   -5.624556    6.108187
     62          1           0        5.735672   -3.883424    6.041637
     63          1           0        7.190483   -5.881360   -0.631265
     64          1           0        8.836407   -4.791487   -2.860861
     65          1           0        9.067185   -7.129759   -0.473521
     66          1           0        9.927659   -5.649451    0.071461
     67          1           0        9.935256   -6.064067   -1.564085
     68          1           0        6.819628   -6.272788   -3.187460
     69          1           0        6.874061   -4.854528   -4.228335
     70          1           0        5.248433   -5.508514   -1.888181
     71          1           0        4.698074   -4.798549   -3.443735
     72          1           0        5.504599   -3.791996   -2.158792
     73          1           0        7.682695    0.669725   -5.800297
     74          1           0        8.115417   -1.055285   -5.524330
     75          1           0        9.391144    0.217435   -5.328709
     76          1           0        9.232120    3.836680   -1.716888
     77          1           0        7.230404    7.658054   -1.815550
     78          1           0        6.837225    7.057015   -0.093954
     79          1           0        5.875874    6.700853   -1.541256
     80         12           0       -8.213014   -0.349200   -0.305644
     81          6           0       -5.879637    2.377133   -0.266267
     82          6           0       -9.765101    1.136796    2.343405
     83          6           0      -10.007456   -2.950866   -0.024980
     84          6           0       -5.864128   -2.150829   -2.144811
     85          7           0       -7.784102    1.514691    0.805310
     86          6           0       -6.907997    2.501463    0.691055
     87          6           0       -7.194756    3.724910    1.602372
     88          6           0       -8.055020    2.982921    2.737389
     89          6           0       -8.602098    1.821854    1.909547
     90          6           0       -7.204626    2.410605    3.859279
     91          6           0       -8.037553    4.829191    0.872799
     92          6           0       -8.091676    6.177941    1.593701
     93          1           0       -8.114586    7.396597    0.789451
     94          7           0       -9.943739   -0.621139    0.626668
     95          6           0      -10.427004    0.087671    1.668456
     96          6           0      -11.725321   -0.519270    2.000326
     97          6           0      -11.893505   -1.747030    1.176288
     98          6           0      -10.583669   -1.833932    0.562393
     99          6           0      -12.697553    0.110311    2.955221
    100          6           0      -13.038879   -2.694276    0.983808
    101          8           0      -12.885512   -3.827407    0.404725
    102          6           0      -14.324700   -2.297057    1.575733
    103          7           0       -7.892808   -2.342978   -0.800265
    104          6           0       -8.857188   -3.262894   -0.622333
    105          6           0       -8.501469   -4.564312   -1.300688
    106          6           0       -7.202571   -4.249934   -2.179093
    107          6           0       -6.969507   -2.779298   -1.768865
    108          6           0       -8.213462   -5.742411   -0.370356
    109          6           0       -7.276554   -4.592354   -3.692349
    110          6           0       -8.271620   -3.684634   -4.378849
    111          7           0       -6.309704    0.073811   -1.236514
    112          6           0       -5.481668   -0.832106   -1.934907
    113          6           0       -4.241133   -0.109039   -2.282315
    114          6           0       -4.425377    1.170726   -1.737549
    115          6           0       -5.682785    1.234183   -1.078472
    116          6           0       -3.121448   -0.659563   -2.967384
    117          6           0       -3.837519    2.479142   -1.561016
    118          8           0       -2.823387    3.038957   -1.975590
    119          6           0       -4.698592    3.279900   -0.491555
    120          6           0       -4.962396    4.654349   -1.042745
    121          8           0       -5.665814    4.804161   -2.057320
    122          8           0       -4.524993    5.573413   -0.162767
    123          6           0       -4.774518    6.952720   -0.659842
    124          1           0      -10.189249    1.397476    3.313473
    125          1           0      -10.633795   -3.845548   -0.051732
    126          1           0       -5.124726   -2.613031   -2.802336
    127          1           0       -6.315193    4.180742    2.040949
    128          1           0       -8.866091    3.612875    3.093327
    129          1           0       -6.149017    2.494729    3.647762
    130          1           0       -7.491659    1.370734    3.944845
    131          1           0       -7.473482    2.876804    4.811498
    132          1           0       -9.099149    4.552988    0.911008
    133          1           0       -7.691410    4.970483   -0.132616
    134          1           0       -7.335222    6.253399    2.384284
    135          1           0       -9.043447    6.249075    2.125769
    136          1           0      -12.229955    0.918812    3.530615
    137          1           0      -12.945892   -0.648393    3.705269
    138          1           0      -13.617226    0.437348    2.465400
    139          1           0      -14.201463   -2.158144    2.647172
    140          1           0      -15.040644   -3.056762    1.256138
    141          1           0      -14.613898   -1.323936    1.163420
    142          1           0       -9.299471   -4.889002   -1.957099
    143          1           0       -6.327082   -4.816350   -1.829039
    144          1           0       -8.859310   -6.619580   -0.564087
    145          1           0       -8.325929   -5.405694    0.651658
    146          1           0       -7.185582   -6.100857   -0.383714
    147          1           0       -7.639916   -5.613400   -3.832270
    148          1           0       -6.320154   -4.518596   -4.199158
    149          1           0       -9.229516   -4.175838   -4.183330
    150          1           0       -8.066936   -3.629458   -5.446139
    151          1           0       -8.302221   -2.699631   -3.898755
    152          1           0       -2.807864    0.077815   -3.694326
    153          1           0       -3.371923   -1.605807   -3.442434
    154          1           0       -2.427230   -0.790254   -2.132975
    155          1           0       -4.122490    3.313596    0.433945
    156          1           0       -3.811355    7.472331   -0.657395
    157          1           0       -5.570647    7.364475   -0.011466
    158          1           0       -5.073252    7.065878   -1.695416
 ---------------------------------------------------------------------

 SCF Done:  E(RCAM-B3LYP) =  -4069.81126342     A.U. after   19 cycles

 Excitation energies and oscillator strengths:

 Excited State   1:      Singlet-A      1.6716 eV  741.71 nm  f=0.2049  <S**2>=0.000
     309 -> 316        0.14026
     310 -> 315       -0.10110
     311 -> 313        0.55753
     312 -> 314       -0.40009
 This state for optimization and/or second-order correction.
 Total Energy, E(TD-HF/TD-DFT) =  -4069.74983304
 Copying the excited state density for this state as the 1-particle RhoCI density.

 Excited State   2:      Singlet-A      1.6839 eV  736.30 nm  f=0.5703  <S**2>=0.000
     309 -> 316        0.10230
     310 -> 315        0.14320
     311 -> 313        0.39976
     312 -> 314        0.55686

 Excited State   3:      Singlet-A      2.1859 eV  567.21 nm  f=0.0406  <S**2>=0.000
     309 -> 313        0.61042
     310 -> 314       -0.20123
     311 -> 316       -0.25929

 Excited State   4:      Singlet-A      2.1923 eV  565.55 nm  f=0.1511  <S**2>=0.000
     309 -> 313        0.20005
     310 -> 314        0.60848
     312 -> 315       -0.26441

 Excited State   5:      Singlet-A      2.7635 eV  448.65 nm  f=0.0000  <S**2>=0.000
     312 -> 313        0.70686

 The electronic state is 1-A.
 Alpha  occ. eigenvalues --  -46.87649 -46.87571 -19.26229 -19.26058 -19.19039
 Alpha  occ. eigenvalues --  -19.18777 -19.18700 -19.18636 -19.17996 -19.17902
 Alpha  occ. eigenvalues --  -14.42412 -14.42304 -14.41310 -14.41271 -14.39262
 Alpha  occ. eigenvalues --  -14.39260 -14.38503 -14.38434 -10.38970 -10.38846
 Alpha  occ. eigenvalues --  -10.35336 -10.35315 -10.34214 -10.34082 -10.31641
 Alpha  occ. eigenvalues --  -10.31448 -10.31252 -10.31215 -10.30942 -10.30762
 Alpha  occ. eigenvalues --  -10.30418 -10.30362 -10.30300 -10.30260 -10.30080
 Alpha  occ. eigenvalues --  -10.30062 -10.29800 -10.29780 -10.29486 -10.29350
 Alpha  occ. eigenvalues --  -10.29303 -10.29118 -10.28646 -10.28593 -10.28592
 Alpha  occ. eigenvalues --  -10.28369 -10.28310 -10.28215 -10.28070 -10.27971
 Alpha  occ. eigenvalues --  -10.27896 -10.27646 -10.27585 -10.27584 -10.27445
 Alpha  occ. eigenvalues --  -10.27441 -10.27395 -10.27392 -10.27389 -10.27373
 Alpha  occ. eigenvalues --  -10.27367 -10.27337 -10.27298 -10.27251 -10.26977
 Alpha  occ. eigenvalues --  -10.26930 -10.26621 -10.26525 -10.26352 -10.26318
 Alpha  occ. eigenvalues --  -10.26103 -10.26082 -10.26063 -10.25970 -10.25881
 Alpha  occ. eigenvalues --  -10.25845 -10.25697 -10.25688 -10.25335 -10.25328
 Alpha  occ. eigenvalues --  -10.24765 -10.24680 -10.24656 -10.24649 -10.24600
 Alpha  occ. eigenvalues --  -10.24586  -3.16391  -3.16321  -1.91273  -1.91204
 Alpha  occ. eigenvalues --   -1.90860  -1.90792  -1.90702  -1.90629  -1.16523
 Alpha  occ. eigenvalues --   -1.16405  -1.08506  -1.08447  -1.07104  -1.06889
 Alpha  occ. eigenvalues --   -1.06822  -1.06404  -1.04433  -1.04408  -1.03619
 Alpha  occ. eigenvalues --   -1.03573  -1.03089  -1.02947  -1.02266  -1.02019
 Alpha  occ. eigenvalues --   -0.91886  -0.91814  -0.89407  -0.89390  -0.89077
 Alpha  occ. eigenvalues --   -0.89036  -0.88161  -0.88138  -0.87719  -0.87677
 Alpha  occ. eigenvalues --   -0.87597  -0.87528  -0.87146  -0.87037  -0.84920
 Alpha  occ. eigenvalues --   -0.84832  -0.83811  -0.83792  -0.82855  -0.82853
 Alpha  occ. eigenvalues --   -0.82572  -0.82501  -0.81491  -0.81409  -0.80440
 Alpha  occ. eigenvalues --   -0.80347  -0.78661  -0.78542  -0.77080  -0.77060
 Alpha  occ. eigenvalues --   -0.76812  -0.76779  -0.75765  -0.75748  -0.74767
 Alpha  occ. eigenvalues --   -0.74718  -0.72631  -0.72601  -0.71530  -0.71494
 Alpha  occ. eigenvalues --   -0.69790  -0.69679  -0.68745  -0.68726  -0.67507
 Alpha  occ. eigenvalues --   -0.67496  -0.67122  -0.67069  -0.65186  -0.65130
 Alpha  occ. eigenvalues --   -0.64700  -0.64678  -0.64562  -0.64468  -0.64137
 Alpha  occ. eigenvalues --   -0.64117  -0.62173  -0.62113  -0.60314  -0.60254
 Alpha  occ. eigenvalues --   -0.59713  -0.59654  -0.58899  -0.58841  -0.58354
 Alpha  occ. eigenvalues --   -0.58329  -0.57437  -0.57405  -0.57162  -0.57143
 Alpha  occ. eigenvalues --   -0.56165  -0.56106  -0.55789  -0.55786  -0.55382
 Alpha  occ. eigenvalues --   -0.55359  -0.55192  -0.55153  -0.54391  -0.54358
 Alpha  occ. eigenvalues --   -0.53836  -0.53741  -0.53162  -0.53136  -0.53075
 Alpha  occ. eigenvalues --   -0.53052  -0.52809  -0.52749  -0.52625  -0.52594
 Alpha  occ. eigenvalues --   -0.52318  -0.52316  -0.51758  -0.51752  -0.51577
 Alpha  occ. eigenvalues --   -0.51464  -0.51095  -0.51042  -0.50460  -0.50402
 Alpha  occ. eigenvalues --   -0.49912  -0.49902  -0.49789  -0.49785  -0.49406
 Alpha  occ. eigenvalues --   -0.49371  -0.49108  -0.49061  -0.49006  -0.48946
 Alpha  occ. eigenvalues --   -0.48458  -0.48431  -0.48336  -0.48298  -0.48285
 Alpha  occ. eigenvalues --   -0.48244  -0.47554  -0.47508  -0.47158  -0.47033
 Alpha  occ. eigenvalues --   -0.46656  -0.46621  -0.46476  -0.46402  -0.46216
 Alpha  occ. eigenvalues --   -0.46178  -0.46008  -0.45986  -0.45709  -0.45653
 Alpha  occ. eigenvalues --   -0.45126  -0.45076  -0.44420  -0.44416  -0.44383
 Alpha  occ. eigenvalues --   -0.44377  -0.44037  -0.44011  -0.43990  -0.43945
 Alpha  occ. eigenvalues --   -0.43864  -0.43842  -0.43453  -0.43322  -0.43295
 Alpha  occ. eigenvalues --   -0.43245  -0.42879  -0.42830  -0.42790  -0.42557
 Alpha  occ. eigenvalues --   -0.42471  -0.42465  -0.41881  -0.41870  -0.41561
 Alpha  occ. eigenvalues --   -0.41552  -0.41385  -0.41380  -0.40999  -0.40903
 Alpha  occ. eigenvalues --   -0.40730  -0.40700  -0.40647  -0.40623  -0.40440
 Alpha  occ. eigenvalues --   -0.40410  -0.40156  -0.40074  -0.39347  -0.39327
 Alpha  occ. eigenvalues --   -0.38342  -0.38272  -0.37589  -0.37577  -0.37188
 Alpha  occ. eigenvalues --   -0.37182  -0.37114  -0.37106  -0.36661  -0.36521
 Alpha  occ. eigenvalues --   -0.36125  -0.36020  -0.34160  -0.34138  -0.33745
 Alpha  occ. eigenvalues --   -0.33544  -0.33083  -0.33032  -0.31229  -0.31195
 Alpha  occ. eigenvalues --   -0.30889  -0.30883  -0.29853  -0.29805  -0.29309
 Alpha  occ. eigenvalues --   -0.29234  -0.29168  -0.29102  -0.23945  -0.23933
 Alpha  occ. eigenvalues --   -0.21026  -0.20984
 Alpha virt. eigenvalues --   -0.08697  -0.08631  -0.01610  -0.01597   0.00060
 Alpha virt. eigenvalues --    0.00078   0.02324   0.02357   0.03296   0.03315
 Alpha virt. eigenvalues --    0.04810   0.04866   0.05287   0.05320   0.06255

 Mulliken charges:
               1
     1  Mg   0.839275
     2  C   -0.002369
     3  C   -0.094133
     4  C   -0.046076
     5  C   -0.064123
     6  N   -0.256719
     7  C   -0.052282
     8  C   -0.014043
     9  C   -0.086999
    10  C    0.046386
    11  C    0.104900
    12  C    0.053442
    13  C   -0.071760
    14  H    0.036661
    15  N   -0.433031
    16  C    0.168370
    17  C   -0.177364
    18  C   -0.004267
    19  C    0.148672
    20  C    0.110289
    21  C    0.012087
    22  O   -0.250054
    23  C    0.062556
    24  N   -0.341156
    25  C    0.041124
    26  C   -0.028036
    27  C   -0.023976
    28  C    0.074957
    29  C    0.076288
    30  C    0.035189
    31  C   -0.004456
    32  N   -0.310661
    33  C    0.080821
    34  C   -0.169336
    35  C    0.008614
    36  C    0.083528
    37  C    0.127147
    38  C    0.046810
    39  O   -0.187884
    40  C   -0.005604
    41  C    0.212645
    42  O   -0.255275
    43  O   -0.305303
    44  C    0.157401
    45  H   -0.017947
    46  H   -0.017251
    47  H   -0.041605
    48  H    0.000852
    49  H   -0.004238
    50  H    0.025405
    51  H    0.016254
    52  H    0.016315
    53  H    0.011200
    54  H    0.045289
    55  H    0.017468
    56  H    0.017455
    57  H    0.005717
    58  H    0.026439
    59  H    0.039190
    60  H    0.037208
    61  H    0.035197
    62  H    0.031385
    63  H    0.016217
    64  H    0.009304
    65  H    0.022854
    66  H    0.012499
    67  H    0.004561
    68  H    0.005939
    69  H    0.004778
    70  H    0.008342
    71  H    0.017865
    72  H    0.029619
    73  H    0.048288
    74  H    0.008956
    75  H    0.045758
    76  H    0.034800
    77  H    0.042600
    78  H    0.045935
    79  H    0.055101
    80  Mg   0.837704
    81  C   -0.016828
    82  C   -0.087927
    83  C   -0.045587
    84  C   -0.064943
    85  N   -0.254496
    86  C   -0.049883
    87  C   -0.015007
    88  C   -0.090494
    89  C    0.045632
    90  C    0.114463
    91  C    0.062588
    92  C   -0.077748
    93  H    0.034891
    94  N   -0.423444
    95  C    0.162741
    96  C   -0.174859
    97  C   -0.008003
    98  C    0.151958
    99  C    0.099464
   100  C    0.015421
   101  O   -0.253421
   102  C    0.061266
   103  N   -0.350083
   104  C    0.037357
   105  C   -0.019755
   106  C   -0.034843
   107  C    0.089033
   108  C    0.073720
   109  C    0.034750
   110  C   -0.007647
   111  N   -0.324232
   112  C    0.078565
   113  C   -0.163036
   114  C    0.002778
   115  C    0.096170
   116  C    0.131676
   117  C    0.042641
   118  O   -0.185545
   119  C    0.000757
   120  C    0.211644
   121  O   -0.251029
   122  O   -0.305680
   123  C    0.151985
   124  H   -0.020027
   125  H   -0.015787
   126  H   -0.040280
   127  H   -0.000740
   128  H   -0.004543
   129  H    0.022352
   130  H    0.014340
   131  H    0.015832
   132  H    0.013858
   133  H    0.037880
   134  H    0.020552
   135  H    0.019370
   136  H    0.008522
   137  H    0.025822
   138  H    0.039566
   139  H    0.038096
   140  H    0.036176
   141  H    0.033830
   142  H    0.014268
   143  H    0.012437
   144  H    0.024944
   145  H    0.011530
   146  H    0.005625
   147  H    0.006083
   148  H    0.003733
   149  H    0.010808
   150  H    0.017937
   151  H    0.030209
   152  H    0.047102
   153  H    0.008179
   154  H    0.047581
   155  H    0.035081
   156  H    0.044211
   157  H    0.048954
   158  H    0.053784
 Sum of Mulliken charges =  -0.00000

 Dipole moment (field-independent basis, Debye):
    X=             -0.2626    Y=              0.2788    Z=              7.8546  Tot=              7.8640
 Quadrupole moment (field-independent basis, Debye-Ang):
   XX=           -465.2203   YY=           -502.4018   ZZ=           -489.6302
   XY=            -26.2278   XZ=             -0.7462   YZ=             58.1682

 Normal termination of Gaussian 16 at Sun Sep 12 03:46:49 2021.
