 Gaussian 16, Revision A.03,
 Gaussian 16:  ES64L-G16RevA.03 25-Dec-2016

 -----------------------------------
 #p cam-b3lyp/Def2SVP td=(nstates=5)
 -----------------------------------

 --------------------------------
 TDDFT excited states in gaussian
 --------------------------------
 Symbolic Z-matrix:
 Charge =  0 Multiplicity = 1

                         Standard orientation:
 ---------------------------------------------------------------------
 Center     Atomic      Atomic             Coordinates (Angstroms)
 Number     Number       Type             X           Y           Z
 ---------------------------------------------------------------------
      1         12           0        5.309591   -0.586117    0.864551
      2          6           0        5.841581    2.245119   -1.259903
      3          6           0        5.725215    1.515888    3.520092
      4          6           0        5.295809   -3.137844    2.747400
      5          6           0        6.060332   -2.599898   -1.878938
      6          7           0        5.724103    1.585054    0.986387
      7          6           0        5.846227    2.567353    0.099063
      8          6           0        5.903945    3.982555    0.748098
      9          6           0        6.427507    3.573626    2.197463
     10          6           0        5.897910    2.151596    2.254752
     11          6           0        7.948342    3.536184    2.307740
     12          6           0        4.495109    4.662219    0.818575
     13          6           0        4.507646    6.160780    1.134030
     14          1           0        3.513123    7.017066    0.505503
     15          7           0        5.003097   -0.741167    2.810025
     16          6           0        5.209574    0.220539    3.741571
     17          6           0        4.835470   -0.381912    5.039176
     18          6           0        4.575624   -1.830423    4.810285
     19          6           0        4.978405   -1.968256    3.434005
     20          6           0        4.708484    0.406668    6.306364
     21          6           0        4.057921   -2.920061    5.695046
     22          8           0        4.127876   -4.153715    5.366747
     23          6           0        3.540310   -2.506762    7.011976
     24          7           0        5.843639   -2.580594    0.557161
     25          6           0        5.685691   -3.493761    1.521610
     26          6           0        5.863626   -4.885233    0.990495
     27          6           0        5.937509   -4.745817   -0.598485
     28          6           0        5.866828   -3.202365   -0.703499
     29          6           0        7.100944   -5.640854    1.494571
     30          6           0        4.934155   -5.588097   -1.425689
     31          6           0        3.526856   -5.086953   -1.190186
     32          7           0        5.683315   -0.275801   -1.250887
     33          6           0        5.997892   -1.255178   -2.204059
     34          6           0        6.269067   -0.552809   -3.471817
     35          6           0        6.108552    0.796290   -3.161959
     36          6           0        5.784960    0.929946   -1.781483
     37          6           0        6.670069   -1.162672   -4.693168
     38          6           0        6.159290    2.157532   -3.670194
     39          8           0        6.291883    2.662138   -4.786118
     40          6           0        6.108187    3.157059   -2.431582
     41          6           0        5.087117    4.216695   -2.744469
     42          8           0        3.875219    3.931698   -2.830753
     43          8           0        5.661085    5.426491   -2.657890
     44          6           0        4.694885    6.524496   -2.928066
     45          1           0        6.069287    2.029317    4.420062
     46          1           0        5.194732   -4.052755    3.334903
     47          1           0        6.218051   -3.167753   -2.797697
     48          1           0        6.607808    4.669714    0.278189
     49          1           0        5.972055    4.179445    2.980578
     50          1           0        8.421744    3.671370    1.335354
     51          1           0        8.186604    2.552880    2.713742
     52          1           0        8.301169    4.258151    3.044661
     53          1           0        3.961218    4.292784    1.694098
     54          1           0        3.938351    4.492580   -0.103688
     55          1           0        5.505461    6.584457    1.016675
     56          1           0        4.281758    6.288853    2.192696
     57          1           0        5.121997    1.408543    6.197741
     58          1           0        5.349627   -0.073137    7.045574
     59          1           0        3.681886    0.433253    6.672043
     60          1           0        4.329974   -1.998397    7.565641
     61          1           0        3.131468   -3.406575    7.470271
     62          1           0        2.747436   -1.772758    6.865218
     63          1           0        5.015852   -5.516031    1.254688
     64          1           0        6.913270   -5.035056   -0.989516
     65          1           0        6.867752   -6.590507    1.976738
     66          1           0        7.645707   -4.982419    2.170581
     67          1           0        7.854815   -5.842302    0.733970
     68          1           0        4.961073   -6.629812   -1.107804
     69          1           0        5.132156   -5.563144   -2.497334
     70          1           0        3.238535   -5.594314   -0.270248
     71          1           0        2.876610   -5.376879   -2.016221
     72          1           0        3.514235   -4.015551   -0.989124
     73          1           0        6.088986   -0.681291   -5.479668
     74          1           0        6.496456   -2.238361   -4.674332
     75          1           0        7.730425   -0.911001   -4.705930
     76          1           0        7.109416    3.572766   -2.322729
     77          1           0        5.109080    7.124333   -3.738543
     78          1           0        4.513575    7.019489   -1.973858
     79          1           0        3.737671    6.229071   -3.359117
     80         12           0       -5.117791   -0.697146   -0.895277
     81          6           0       -6.715655    1.633895    1.316548
     82          6           0       -4.656280    1.900106   -3.057665
     83          6           0       -4.113768   -2.799102   -3.049598
     84          6           0       -6.692486   -3.248863    0.880888
     85          7           0       -5.659342    1.443900   -0.773230
     86          6           0       -6.208967    2.227983    0.141917
     87          6           0       -6.143816    3.743678   -0.186679
     88          6           0       -6.014375    3.638125   -1.783855
     89          6           0       -5.370721    2.256854   -1.886170
     90          6           0       -7.356733    3.593397   -2.494791
     91          6           0       -4.887952    4.439157    0.446679
     92          6           0       -4.922192    5.968938    0.427929
     93          1           0       -4.335896    6.692099    1.552995
     94          7           0       -4.050366   -0.432677   -2.547309
     95          6           0       -3.959185    0.693292   -3.285670
     96          6           0       -3.067053    0.366698   -4.408878
     97          6           0       -2.770525   -1.090950   -4.363892
     98          6           0       -3.669699   -1.510400   -3.307660
     99          6           0       -2.520670    1.406944   -5.343114
    100          6           0       -1.841880   -1.965149   -5.151042
    101          8           0       -1.919854   -3.243682   -5.105163
    102          6           0       -0.900093   -1.280420   -6.048642
    103          7           0       -5.529933   -2.712329   -1.197774
    104          6           0       -4.918882   -3.403718   -2.175788
    105          6           0       -5.160819   -4.886989   -2.028314
    106          6           0       -5.864107   -5.068005   -0.603464
    107          6           0       -5.993490   -3.584212   -0.194792
    108          6           0       -6.029049   -5.530137   -3.109487
    109          6           0       -5.193141   -6.053181    0.392474
    110          6           0       -3.856332   -5.505805    0.838239
    111          7           0       -6.311584   -0.834915    0.900259
    112          6           0       -6.891886   -1.998276    1.451559
    113          6           0       -7.706023   -1.572423    2.608385
    114          6           0       -7.560192   -0.177265    2.636178
    115          6           0       -6.731152    0.239125    1.559699
    116          6           0       -8.487202   -2.427605    3.435761
    117          6           0       -7.927667    1.038924    3.325041
    118          8           0       -8.541263    1.300184    4.358960
    119          6           0       -7.499763    2.277923    2.426057
    120          6           0       -6.785360    3.266089    3.306785
    121          8           0       -5.693341    2.975750    3.826198
    122          8           0       -7.397505    4.460791    3.215427
    123          6           0       -6.718641    5.477031    4.062913
    124          1           0       -4.663752    2.591588   -3.900688
    125          1           0       -3.706124   -3.577192   -3.699121
    126          1           0       -7.135343   -3.994153    1.545040
    127          1           0       -7.032157    4.304485    0.078115
    128          1           0       -5.346511    4.400086   -2.177226
    129          1           0       -8.179076    3.520648   -1.798666
    130          1           0       -7.322741    2.719995   -3.132810
    131          1           0       -7.457348    4.452193   -3.164608
    132          1           0       -4.017601    4.262780   -0.198398
    133          1           0       -4.726145    4.093593    1.449193
    134          1           0       -5.923171    6.356093    0.201903
    135          1           0       -4.305238    6.319688   -0.402941
    136          1           0       -3.044754    2.364030   -5.230268
    137          1           0       -2.763978    1.082363   -6.360622
    138          1           0       -1.438004    1.522259   -5.258322
    139          1           0       -1.455630   -0.678596   -6.763933
    140          1           0       -0.261195   -2.066200   -6.456372
    141          1           0       -0.294343   -0.585704   -5.456141
    142          1           0       -4.225696   -5.433460   -2.030600
    143          1           0       -6.888120   -5.457508   -0.701059
    144          1           0       -5.527746   -6.367117   -3.631242
    145          1           0       -6.320719   -4.762827   -3.814267
    146          1           0       -6.991256   -5.906146   -2.766011
    147          1           0       -4.989445   -7.007935   -0.098548
    148          1           0       -5.800031   -6.263691    1.266749
    149          1           0       -3.183992   -5.807717    0.029596
    150          1           0       -3.557685   -5.949057    1.786061
    151          1           0       -3.868797   -4.409995    0.864749
    152          1           0       -8.315257   -2.114778    4.457073
    153          1           0       -8.222557   -3.472738    3.289364
    154          1           0       -9.488558   -2.201189    3.059883
    155          1           0       -8.408450    2.697747    1.992929
    156          1           0       -7.477716    5.893434    4.732303
    157          1           0       -6.230577    6.176053    3.357987
    158          1           0       -5.980310    5.124594    4.773627
 ---------------------------------------------------------------------

 SCF Done:  E(RCAM-B3LYP) =  -4069.81254412     A.U. after   19 cycles

 Excitation energies and oscillator strengths:

 Excited State   1:      Singlet-A      1.6565 eV  748.47 nm  f=0.0413  <S**2>=0.000
     309 -> 315        0.11515
     310 -> 316        0.12442
     311 -> 313       -0.46562
     312 -> 314        0.50537
 This state for optimization and/or second-order correction.
 Total Energy, E(TD-HF/TD-DFT) =  -4069.75166842
 Copying the excited state density for this state as the 1-particle RhoCI density.

 Excited State   2:      Singlet-A      1.6974 eV  730.42 nm  f=0.6879  <S**2>=0.000
     309 -> 315       -0.13253
     310 -> 316        0.12144
     311 -> 313        0.50348
     312 -> 314        0.46404

 Excited State   3:      Singlet-A      2.1864 eV  567.07 nm  f=0.0157  <S**2>=0.000
     309 -> 313        0.31589
     310 -> 314        0.56041
     311 -> 315        0.13328
     312 -> 316       -0.23747

 Excited State   4:      Singlet-A      2.1954 eV  564.75 nm  f=0.1667  <S**2>=0.000
     309 -> 313        0.55758
     310 -> 314       -0.31337
     311 -> 315        0.24441
     312 -> 316        0.13759

 Excited State   5:      Singlet-A      2.5461 eV  486.95 nm  f=0.0000  <S**2>=0.000
     312 -> 313        0.70704

 The electronic state is 1-A.
 Alpha  occ. eigenvalues --  -46.87749 -46.87480 -19.26409 -19.26289 -19.19149
 Alpha  occ. eigenvalues --  -19.19089 -19.18726 -19.18468 -19.18197 -19.17906
 Alpha  occ. eigenvalues --  -14.42409 -14.42319 -14.41395 -14.41185 -14.39351
 Alpha  occ. eigenvalues --  -14.39160 -14.38552 -14.38425 -10.39195 -10.39013
 Alpha  occ. eigenvalues --  -10.35355 -10.35135 -10.34420 -10.34088 -10.31835
 Alpha  occ. eigenvalues --  -10.31730 -10.31382 -10.31145 -10.30871 -10.30832
 Alpha  occ. eigenvalues --  -10.30538 -10.30465 -10.30224 -10.30183 -10.30130
 Alpha  occ. eigenvalues --  -10.29947 -10.29875 -10.29743 -10.29587 -10.29230
 Alpha  occ. eigenvalues --  -10.29202 -10.29195 -10.28742 -10.28573 -10.28569
 Alpha  occ. eigenvalues --  -10.28557 -10.28331 -10.28216 -10.28098 -10.27982
 Alpha  occ. eigenvalues --  -10.27810 -10.27759 -10.27682 -10.27530 -10.27480
 Alpha  occ. eigenvalues --  -10.27400 -10.27378 -10.27376 -10.27367 -10.27366
 Alpha  occ. eigenvalues --  -10.27312 -10.27251 -10.27237 -10.27195 -10.27086
 Alpha  occ. eigenvalues --  -10.26923 -10.26717 -10.26555 -10.26269 -10.26217
 Alpha  occ. eigenvalues --  -10.26036 -10.26033 -10.25997 -10.25959 -10.25883
 Alpha  occ. eigenvalues --  -10.25841 -10.25757 -10.25715 -10.25363 -10.25277
 Alpha  occ. eigenvalues --  -10.24811 -10.24738 -10.24693 -10.24581 -10.24519
 Alpha  occ. eigenvalues --  -10.24480  -3.16492  -3.16230  -1.91374  -1.91112
 Alpha  occ. eigenvalues --   -1.90960  -1.90802  -1.90701  -1.90537  -1.16756
 Alpha  occ. eigenvalues --   -1.16579  -1.08667  -1.08524  -1.07124  -1.06872
 Alpha  occ. eigenvalues --   -1.06767  -1.06722  -1.04544  -1.04317  -1.03710
 Alpha  occ. eigenvalues --   -1.03483  -1.03189  -1.02860  -1.02367  -1.01933
 Alpha  occ. eigenvalues --   -0.91959  -0.91824  -0.89444  -0.89331  -0.89172
 Alpha  occ. eigenvalues --   -0.88997  -0.88209  -0.88065  -0.87848  -0.87633
 Alpha  occ. eigenvalues --   -0.87628  -0.87508  -0.87198  -0.86850  -0.84961
 Alpha  occ. eigenvalues --   -0.84839  -0.83857  -0.83729  -0.82870  -0.82688
 Alpha  occ. eigenvalues --   -0.82618  -0.82447  -0.81615  -0.81473  -0.80578
 Alpha  occ. eigenvalues --   -0.80281  -0.78739  -0.78407  -0.77171  -0.76967
 Alpha  occ. eigenvalues --   -0.76925  -0.76763  -0.75919  -0.75683  -0.74841
 Alpha  occ. eigenvalues --   -0.74652  -0.72733  -0.72523  -0.71639  -0.71422
 Alpha  occ. eigenvalues --   -0.69796  -0.69605  -0.68845  -0.68659  -0.67608
 Alpha  occ. eigenvalues --   -0.67428  -0.67191  -0.67012  -0.65274  -0.65119
 Alpha  occ. eigenvalues --   -0.64839  -0.64613  -0.64593  -0.64504  -0.64199
 Alpha  occ. eigenvalues --   -0.64047  -0.62336  -0.62163  -0.60370  -0.60112
 Alpha  occ. eigenvalues --   -0.59781  -0.59631  -0.58954  -0.58829  -0.58476
 Alpha  occ. eigenvalues --   -0.58263  -0.57622  -0.57429  -0.57262  -0.57057
 Alpha  occ. eigenvalues --   -0.56285  -0.56029  -0.56024  -0.55761  -0.55474
 Alpha  occ. eigenvalues --   -0.55309  -0.55256  -0.55108  -0.54513  -0.54363
 Alpha  occ. eigenvalues --   -0.53882  -0.53758  -0.53252  -0.53190  -0.53052
 Alpha  occ. eigenvalues --   -0.52957  -0.52916  -0.52749  -0.52687  -0.52393
 Alpha  occ. eigenvalues --   -0.52320  -0.52249  -0.51907  -0.51738  -0.51593
 Alpha  occ. eigenvalues --   -0.51470  -0.51175  -0.51050  -0.50465  -0.50178
 Alpha  occ. eigenvalues --   -0.49943  -0.49852  -0.49767  -0.49686  -0.49480
 Alpha  occ. eigenvalues --   -0.49281  -0.49195  -0.49086  -0.49011  -0.48955
 Alpha  occ. eigenvalues --   -0.48602  -0.48428  -0.48411  -0.48378  -0.48235
 Alpha  occ. eigenvalues --   -0.48103  -0.47652  -0.47407  -0.47250  -0.46914
 Alpha  occ. eigenvalues --   -0.46750  -0.46547  -0.46542  -0.46388  -0.46322
 Alpha  occ. eigenvalues --   -0.46136  -0.46088  -0.45937  -0.45841  -0.45696
 Alpha  occ. eigenvalues --   -0.45132  -0.45055  -0.44583  -0.44443  -0.44369
 Alpha  occ. eigenvalues --   -0.44308  -0.44109  -0.44044  -0.43982  -0.43969
 Alpha  occ. eigenvalues --   -0.43907  -0.43707  -0.43516  -0.43438  -0.43346
 Alpha  occ. eigenvalues --   -0.43230  -0.42998  -0.42822  -0.42775  -0.42746
 Alpha  occ. eigenvalues --   -0.42567  -0.42377  -0.41948  -0.41814  -0.41680
 Alpha  occ. eigenvalues --   -0.41513  -0.41508  -0.41303  -0.41109  -0.40830
 Alpha  occ. eigenvalues --   -0.40829  -0.40746  -0.40558  -0.40498  -0.40481
 Alpha  occ. eigenvalues --   -0.40344  -0.40222  -0.40054  -0.39316  -0.39273
 Alpha  occ. eigenvalues --   -0.38399  -0.38202  -0.37744  -0.37514  -0.37255
 Alpha  occ. eigenvalues --   -0.37247  -0.37106  -0.37031  -0.36779  -0.36683
 Alpha  occ. eigenvalues --   -0.36180  -0.36077  -0.34250  -0.34084  -0.33871
 Alpha  occ. eigenvalues --   -0.33771  -0.33152  -0.33000  -0.31259  -0.31036
 Alpha  occ. eigenvalues --   -0.30996  -0.30796  -0.30061  -0.29817  -0.29402
 Alpha  occ. eigenvalues --   -0.29291  -0.29121  -0.29025  -0.24041  -0.23862
 Alpha  occ. eigenvalues --   -0.21082  -0.20932
 Alpha virt. eigenvalues --   -0.08730  -0.08599  -0.01696  -0.01502  -0.00003
 Alpha virt. eigenvalues --    0.00190   0.02214   0.02370   0.03161   0.03441
 Alpha virt. eigenvalues --    0.04745   0.04886   0.04999   0.05253   0.06161

 Mulliken charges:
               1
     1  Mg   0.839159
     2  C   -0.003514
     3  C   -0.093798
     4  C   -0.045588
     5  C   -0.063487
     6  N   -0.256870
     7  C   -0.052657
     8  C   -0.014095
     9  C   -0.087125
    10  C    0.046535
    11  C    0.104793
    12  C    0.053371
    13  C   -0.071467
    14  H    0.034618
    15  N   -0.433271
    16  C    0.168919
    17  C   -0.176504
    18  C   -0.003461
    19  C    0.148963
    20  C    0.110019
    21  C    0.012835
    22  O   -0.249491
    23  C    0.062073
    24  N   -0.341233
    25  C    0.041553
    26  C   -0.028174
    27  C   -0.023966
    28  C    0.074888
    29  C    0.076209
    30  C    0.035014
    31  C   -0.005004
    32  N   -0.310114
    33  C    0.079962
    34  C   -0.170557
    35  C    0.007493
    36  C    0.082389
    37  C    0.127609
    38  C    0.044832
    39  O   -0.189989
    40  C   -0.004944
    41  C    0.212841
    42  O   -0.258994
    43  O   -0.304253
    44  C    0.158264
    45  H   -0.017436
    46  H   -0.016549
    47  H   -0.041299
    48  H    0.000538
    49  H   -0.003758
    50  H    0.025292
    51  H    0.016632
    52  H    0.016711
    53  H    0.012204
    54  H    0.043092
    55  H    0.017835
    56  H    0.018643
    57  H    0.005888
    58  H    0.026863
    59  H    0.041274
    60  H    0.037142
    61  H    0.035989
    62  H    0.033090
    63  H    0.016944
    64  H    0.009181
    65  H    0.023259
    66  H    0.012339
    67  H    0.004705
    68  H    0.006168
    69  H    0.004928
    70  H    0.008300
    71  H    0.021536
    72  H    0.028470
    73  H    0.046027
    74  H    0.009703
    75  H    0.045909
    76  H    0.035184
    77  H    0.042761
    78  H    0.046819
    79  H    0.051832
    80  Mg   0.837780
    81  C   -0.017024
    82  C   -0.086445
    83  C   -0.045672
    84  C   -0.064979
    85  N   -0.254557
    86  C   -0.050312
    87  C   -0.015136
    88  C   -0.090654
    89  C    0.045800
    90  C    0.114398
    91  C    0.062169
    92  C   -0.077381
    93  H    0.033094
    94  N   -0.423752
    95  C    0.163543
    96  C   -0.172942
    97  C   -0.007192
    98  C    0.152199
    99  C    0.098534
   100  C    0.015837
   101  O   -0.254629
   102  C    0.060240
   103  N   -0.350068
   104  C    0.037791
   105  C   -0.019752
   106  C   -0.034600
   107  C    0.088587
   108  C    0.073826
   109  C    0.034855
   110  C   -0.007533
   111  N   -0.323833
   112  C    0.077792
   113  C   -0.163774
   114  C    0.001826
   115  C    0.095710
   116  C    0.131648
   117  C    0.041749
   118  O   -0.189161
   119  C    0.001049
   120  C    0.211209
   121  O   -0.251676
   122  O   -0.305474
   123  C    0.152386
   124  H   -0.019253
   125  H   -0.015922
   126  H   -0.041028
   127  H   -0.001220
   128  H   -0.003769
   129  H    0.022119
   130  H    0.014495
   131  H    0.016150
   132  H    0.015421
   133  H    0.036982
   134  H    0.020488
   135  H    0.020144
   136  H    0.008665
   137  H    0.025573
   138  H    0.046595
   139  H    0.038248
   140  H    0.035290
   141  H    0.039436
   142  H    0.014064
   143  H    0.011959
   144  H    0.024695
   145  H    0.011677
   146  H    0.005399
   147  H    0.005711
   148  H    0.003355
   149  H    0.010626
   150  H    0.018163
   151  H    0.030312
   152  H    0.045216
   153  H    0.008198
   154  H    0.046428
   155  H    0.034676
   156  H    0.043474
   157  H    0.049453
   158  H    0.052706
 Sum of Mulliken charges =  -0.00000

 Dipole moment (field-independent basis, Debye):
    X=              1.8846    Y=              3.0728    Z=              0.2445  Tot=              3.6129
 Quadrupole moment (field-independent basis, Debye-Ang):
   XX=           -511.7572   YY=           -462.0432   ZZ=           -527.1609
   XY=              4.2376   XZ=             52.6150   YZ=             11.6165

 Normal termination of Gaussian 16 at Fri Sep 10 12:13:21 2021.
