 Gaussian 16, Revision A.03,
 Gaussian 16:  ES64L-G16RevA.03 25-Dec-2016

 -----------------------------------
 #p cam-b3lyp/Def2SVP td=(nstates=5)
 -----------------------------------

 --------------------------------
 TDDFT excited states in gaussian
 --------------------------------
 Symbolic Z-matrix:
 Charge =  0 Multiplicity = 1

                         Standard orientation:
 ---------------------------------------------------------------------
 Center     Atomic      Atomic             Coordinates (Angstroms)
 Number     Number       Type             X           Y           Z
 ---------------------------------------------------------------------
      1         12           0        5.497088    0.381416    0.908753
      2          6           0        5.916472   -2.609974   -1.011642
      3          6           0        6.791704    2.089832   -1.746120
      4          6           0        5.560759    2.967475    2.743110
      5          6           0        5.318943   -1.638924    3.742858
      6          7           0        6.223518   -0.286767   -1.072781
      7          6           0        6.274631   -1.453449   -1.707929
      8          6           0        6.672958   -1.323039   -3.208496
      9          6           0        7.451171    0.066934   -3.142483
     10          6           0        6.757781    0.676501   -1.936845
     11          6           0        8.937137   -0.080922   -2.831764
     12          6           0        5.424573   -1.236535   -4.149656
     13          6           0        5.714913   -1.435523   -5.640112
     14          1           0        4.731158   -2.127767   -6.458876
     15          7           0        5.623045    2.292648    0.424836
     16          6           0        6.166587    2.808130   -0.703936
     17          6           0        6.018284    4.275340   -0.594474
     18          6           0        5.516144    4.581091    0.773906
     19          6           0        5.572195    3.277852    1.385302
     20          6           0        6.292916    5.216853   -1.726676
     21          6           0        5.068337    5.848778    1.430086
     22          8           0        4.891089    5.934983    2.693307
     23          6           0        4.926039    7.026637    0.555192
     24          7           0        5.667147    0.655664    2.971155
     25          6           0        5.608579    1.877589    3.511945
     26          6           0        5.467519    1.808303    5.003669
     27          6           0        5.196313    0.273575    5.351249
     28          6           0        5.316925   -0.316398    3.924486
     29          6           0        6.670864    2.310086    5.813722
     30          6           0        3.924813   -0.046428    6.176662
     31          6           0        2.690872    0.251507    5.354638
     32          7           0        5.418647   -1.750106    1.310634
     33          6           0        5.370025   -2.369860    2.567700
     34          6           0        5.439668   -3.824234    2.335288
     35          6           0        5.541327   -3.949683    0.951174
     36          6           0        5.561991   -2.654851    0.358489
     37          6           0        5.464231   -4.828892    3.342508
     38          6           0        5.662110   -4.875699   -0.163170
     39          8           0        5.605474   -6.100417   -0.282974
     40          6           0        6.032450   -4.042803   -1.468911
     41          6           0        5.122958   -4.503669   -2.575137
     42          8           0        3.895832   -4.281441   -2.528847
     43          8           0        5.862622   -4.917836   -3.615283
     44          6           0        5.021028   -5.361035   -4.758720
     45          1           0        7.398935    2.698778   -2.418724
     46          1           0        5.470983    3.829914    3.406870
     47          1           0        5.183644   -2.334164    4.573393
     48          1           0        7.339181   -2.105823   -3.571568
     49          1           0        7.273826    0.675130   -4.029257
     50          1           0        9.190800   -1.110336   -2.579013
     51          1           0        9.123741    0.576652   -1.982489
     52          1           0        9.544431    0.306838   -3.650063
     53          1           0        5.058284   -0.210096   -4.167417
     54          1           0        4.654612   -1.941871   -3.835034
     55          1           0        6.708431   -1.855341   -5.800062
     56          1           0        5.755751   -0.454742   -6.114035
     57          1           0        6.804837    4.716992   -2.548030
     58          1           0        7.013085    5.949861   -1.363682
     59          1           0        5.390202    5.725164   -2.065878
     60          1           0        5.883292    7.238542    0.078419
     61          1           0        4.512264    7.817220    1.180186
     62          1           0        4.229464    6.787192   -0.248798
     63          1           0        4.623517    2.406366    5.344854
     64          1           0        6.008066   -0.163645    5.933116
     65          1           0        6.424975    3.108820    6.513914
     66          1           0        7.440561    2.628885    5.111422
     67          1           0        7.196708    1.539087    6.376274
     68          1           0        3.879588    0.584856    7.063443
     69          1           0        3.875222   -1.084483    6.505649
     70          1           0        2.552409    1.321912    5.502598
     71          1           0        1.836120   -0.308953    5.734761
     72          1           0        2.872076    0.090228    4.291792
     73          1           0        4.791411   -5.616725    3.003977
     74          1           0        5.152960   -4.429741    4.307595
     75          1           0        6.518142   -5.106092    3.325560
     76          1           0        7.079644   -4.250425   -1.686627
     77          1           0        5.318483   -6.381698   -4.999554
     78          1           0        5.131616   -4.604964   -5.536237
     79          1           0        3.959507   -5.499705   -4.550675
     80         12           0       -4.983767    0.590503   -0.572252
     81          6           0       -7.642424   -1.618392    0.392848
     82          6           0       -7.377090    2.903825   -1.317345
     83          6           0       -2.704766    2.391009   -1.849651
     84          6           0       -2.935827   -2.216556   -0.840769
     85          7           0       -7.190692    0.532677   -0.436522
     86          6           0       -8.087014   -0.337906    0.002825
     87          6           0       -9.531896    0.220823    0.101264
     88          6           0       -9.406796    1.402690   -0.978753
     89          6           0       -7.904200    1.660266   -0.886256
     90          6           0       -9.729036    0.959314   -2.396108
     91          6           0       -9.860264    0.780571    1.529856
     92          6           0      -11.343197    1.057375    1.786866
     93          1           0      -11.874473    0.816106    3.125529
     94          7           0       -4.963728    2.529898   -0.992838
     95          6           0       -6.029099    3.318727   -1.245847
     96          6           0       -5.483010    4.657424   -1.517542
     97          6           0       -3.998968    4.557623   -1.566322
     98          6           0       -3.828797    3.120483   -1.490491
     99          6           0       -6.345019    5.881875   -1.622887
    100          6           0       -2.913197    5.584732   -1.677389
    101          8           0       -1.702218    5.258525   -1.941846
    102          6           0       -3.326355    6.990798   -1.559958
    103          7           0       -3.155350    0.136909   -1.451718
    104          6           0       -2.332266    1.111248   -1.877307
    105          6           0       -0.967350    0.562236   -2.217867
    106          6           0       -0.971656   -0.951041   -1.700606
    107          6           0       -2.432792   -1.046381   -1.209300
    108          6           0       -0.588521    0.592659   -3.698384
    109          6           0        0.164498   -1.364747   -0.725572
    110          6           0       -0.000818   -0.646143    0.594146
    111          7           0       -5.158755   -1.512545   -0.108949
    112          6           0       -4.189967   -2.517014   -0.324784
    113          6           0       -4.810506   -3.806436    0.042295
    114          6           0       -6.115089   -3.462590    0.427413
    115          6           0       -6.301304   -2.060518    0.289523
    116          6           0       -4.190546   -5.084372   -0.050729
    117          6           0       -7.380379   -3.968247    0.909134
    118          8           0       -7.789415   -5.064085    1.290653
    119          6           0       -8.465395   -2.813069    0.787910
    120          6           0       -9.219296   -2.745662    2.087766
    121          8           0       -8.642830   -2.405333    3.135845
    122          8           0      -10.535078   -2.881633    1.841577
    123          6           0      -11.325779   -2.810420    3.099173
    124          1           0       -8.051156    3.615536   -1.794826
    125          1           0       -1.850437    2.979425   -2.192230
    126          1           0       -2.332066   -3.125811   -0.803407
    127          1           0      -10.308670   -0.473574   -0.195734
    128          1           0       -9.964304    2.282430   -0.667933
    129          1           0       -9.874753   -0.108729   -2.460846
    130          1           0       -8.883106    1.262962   -2.998817
    131          1           0      -10.588051    1.517351   -2.779542
    132          1           0       -9.461337    1.799515    1.615587
    133          1           0       -9.476861    0.129746    2.291457
    134          1           0      -11.986406    0.594044    1.028876
    135          1           0      -11.521361    2.129185    1.670708
    136          1           0       -7.406833    5.620083   -1.709139
    137          1           0       -6.104866    6.360751   -2.578329
    138          1           0       -6.164908    6.594549   -0.815236
    139          1           0       -4.060266    7.217039   -2.329802
    140          1           0       -2.400836    7.569623   -1.575670
    141          1           0       -3.828780    7.128462   -0.595994
    142          1           0       -0.189967    1.108965   -1.698381
    143          1           0       -0.871989   -1.665688   -2.530768
    144          1           0        0.348588    1.145933   -3.897856
    145          1           0       -1.410916    1.025479   -4.252324
    146          1           0       -0.482138   -0.383738   -4.168014
    147          1           0        1.135382   -1.061184   -1.124778
    148          1           0        0.210576   -2.433454   -0.544634
    149          1           0        0.464735    0.325915    0.405852
    150          1           0        0.513028   -1.182468    1.389361
    151          1           0       -1.059549   -0.467321    0.814987
    152          1           0       -4.438495   -5.617545    0.857416
    153          1           0       -3.113793   -4.995499   -0.179112
    154          1           0       -4.680077   -5.473833   -0.947361
    155          1           0       -9.116768   -3.062134   -0.050691
    156          1           0      -11.925895   -3.724104    3.151415
    157          1           0      -11.873132   -1.850155    3.053935
    158          1           0      -10.783076   -2.859992    4.035908
 ---------------------------------------------------------------------

 SCF Done:  E(RCAM-B3LYP) =  -4069.81280992     A.U. after   19 cycles

 Excitation energies and oscillator strengths:

 Excited State   1:      Singlet-A      1.6537 eV  749.73 nm  f=0.0054  <S**2>=0.000
     309 -> 315       -0.11137
     310 -> 316        0.12637
     311 -> 313       -0.45223
     312 -> 314        0.51751
 This state for optimization and/or second-order correction.
 Total Energy, E(TD-HF/TD-DFT) =  -4069.75203681
 Copying the excited state density for this state as the 1-particle RhoCI density.

 Excited State   2:      Singlet-A      1.6970 eV  730.63 nm  f=0.7098  <S**2>=0.000
     309 -> 315        0.13575
     310 -> 316        0.11750
     311 -> 313        0.51565
     312 -> 314        0.45055

 Excited State   3:      Singlet-A      2.1836 eV  567.80 nm  f=0.1001  <S**2>=0.000
     310 -> 314        0.63798
     312 -> 316       -0.26912

 Excited State   4:      Singlet-A      2.1963 eV  564.50 nm  f=0.1000  <S**2>=0.000
     309 -> 313        0.63522
     311 -> 315       -0.27780

 Excited State   5:      Singlet-A      2.4925 eV  497.42 nm  f=0.0000  <S**2>=0.000
     312 -> 313        0.70655

 The electronic state is 1-A.
 Alpha  occ. eigenvalues --  -46.87832 -46.87449 -19.26427 -19.26213 -19.19196
 Alpha  occ. eigenvalues --  -19.19015 -19.18725 -19.18590 -19.18211 -19.17871
 Alpha  occ. eigenvalues --  -14.42481 -14.42296 -14.41459 -14.41122 -14.39413
 Alpha  occ. eigenvalues --  -14.39151 -14.38625 -14.38387 -10.39239 -10.38941
 Alpha  occ. eigenvalues --  -10.35352 -10.35273 -10.34439 -10.34048 -10.31816
 Alpha  occ. eigenvalues --  -10.31637 -10.31450 -10.31103 -10.30933 -10.30850
 Alpha  occ. eigenvalues --  -10.30599 -10.30518 -10.30181 -10.30181 -10.30142
 Alpha  occ. eigenvalues --  -10.29933 -10.29879 -10.29644 -10.29629 -10.29243
 Alpha  occ. eigenvalues --  -10.29231 -10.29194 -10.28815 -10.28641 -10.28566
 Alpha  occ. eigenvalues --  -10.28538 -10.28387 -10.28219 -10.28163 -10.27981
 Alpha  occ. eigenvalues --  -10.27799 -10.27796 -10.27742 -10.27567 -10.27469
 Alpha  occ. eigenvalues --  -10.27458 -10.27437 -10.27415 -10.27390 -10.27323
 Alpha  occ. eigenvalues --  -10.27285 -10.27272 -10.27230 -10.27083 -10.27069
 Alpha  occ. eigenvalues --  -10.26879 -10.26828 -10.26556 -10.26336 -10.26266
 Alpha  occ. eigenvalues --  -10.26225 -10.26111 -10.26019 -10.25881 -10.25846
 Alpha  occ. eigenvalues --  -10.25653 -10.25548 -10.25494 -10.25399 -10.25154
 Alpha  occ. eigenvalues --  -10.24851 -10.24791 -10.24674 -10.24596 -10.24478
 Alpha  occ. eigenvalues --  -10.24335  -3.16573  -3.16199  -1.91455  -1.91082
 Alpha  occ. eigenvalues --   -1.91041  -1.90883  -1.90670  -1.90507  -1.16778
 Alpha  occ. eigenvalues --   -1.16504  -1.08681  -1.08481  -1.07120  -1.06848
 Alpha  occ. eigenvalues --   -1.06807  -1.06799  -1.04611  -1.04299  -1.03771
 Alpha  occ. eigenvalues --   -1.03450  -1.03247  -1.02811  -1.02427  -1.01894
 Alpha  occ. eigenvalues --   -0.92010  -0.91789  -0.89504  -0.89242  -0.89192
 Alpha  occ. eigenvalues --   -0.88975  -0.88267  -0.87898  -0.87883  -0.87695
 Alpha  occ. eigenvalues --   -0.87563  -0.87472  -0.87219  -0.86955  -0.85020
 Alpha  occ. eigenvalues --   -0.84823  -0.83915  -0.83562  -0.82888  -0.82756
 Alpha  occ. eigenvalues --   -0.82652  -0.82467  -0.81646  -0.81407  -0.80617
 Alpha  occ. eigenvalues --   -0.80255  -0.78770  -0.78442  -0.77222  -0.76975
 Alpha  occ. eigenvalues --   -0.76942  -0.76679  -0.75962  -0.75657  -0.74890
 Alpha  occ. eigenvalues --   -0.74554  -0.72781  -0.72471  -0.71689  -0.71373
 Alpha  occ. eigenvalues --   -0.69865  -0.69370  -0.68896  -0.68642  -0.67651
 Alpha  occ. eigenvalues --   -0.67402  -0.67244  -0.67048  -0.65336  -0.65093
 Alpha  occ. eigenvalues --   -0.64887  -0.64645  -0.64547  -0.64445  -0.64257
 Alpha  occ. eigenvalues --   -0.63882  -0.62369  -0.62075  -0.60404  -0.60141
 Alpha  occ. eigenvalues --   -0.59844  -0.59617  -0.59005  -0.58770  -0.58522
 Alpha  occ. eigenvalues --   -0.58206  -0.57658  -0.57372  -0.57304  -0.56993
 Alpha  occ. eigenvalues --   -0.56319  -0.56058  -0.55993  -0.55715  -0.55497
 Alpha  occ. eigenvalues --   -0.55356  -0.55289  -0.54991  -0.54560  -0.54223
 Alpha  occ. eigenvalues --   -0.53949  -0.53747  -0.53296  -0.53217  -0.53031
 Alpha  occ. eigenvalues --   -0.52964  -0.52949  -0.52710  -0.52702  -0.52530
 Alpha  occ. eigenvalues --   -0.52391  -0.51977  -0.51931  -0.51639  -0.51629
 Alpha  occ. eigenvalues --   -0.51502  -0.51220  -0.50970  -0.50470  -0.50322
 Alpha  occ. eigenvalues --   -0.49997  -0.49886  -0.49808  -0.49589  -0.49513
 Alpha  occ. eigenvalues --   -0.49328  -0.49226  -0.49128  -0.49030  -0.48915
 Alpha  occ. eigenvalues --   -0.48639  -0.48464  -0.48394  -0.48382  -0.48197
 Alpha  occ. eigenvalues --   -0.48125  -0.47692  -0.47394  -0.47285  -0.46924
 Alpha  occ. eigenvalues --   -0.46806  -0.46600  -0.46474  -0.46369  -0.46367
 Alpha  occ. eigenvalues --   -0.46181  -0.46037  -0.45871  -0.45848  -0.45612
 Alpha  occ. eigenvalues --   -0.45183  -0.44969  -0.44615  -0.44486  -0.44349
 Alpha  occ. eigenvalues --   -0.44256  -0.44142  -0.44102  -0.44005  -0.43957
 Alpha  occ. eigenvalues --   -0.43817  -0.43779  -0.43544  -0.43407  -0.43348
 Alpha  occ. eigenvalues --   -0.43188  -0.43042  -0.42798  -0.42759  -0.42687
 Alpha  occ. eigenvalues --   -0.42630  -0.42270  -0.42013  -0.41727  -0.41684
 Alpha  occ. eigenvalues --   -0.41565  -0.41462  -0.41241  -0.41158  -0.40891
 Alpha  occ. eigenvalues --   -0.40793  -0.40765  -0.40588  -0.40556  -0.40485
 Alpha  occ. eigenvalues --   -0.40292  -0.40144  -0.40087  -0.39392  -0.39050
 Alpha  occ. eigenvalues --   -0.38462  -0.38061  -0.37812  -0.37486  -0.37315
 Alpha  occ. eigenvalues --   -0.37309  -0.37028  -0.36964  -0.36818  -0.36589
 Alpha  occ. eigenvalues --   -0.36236  -0.35960  -0.34311  -0.34036  -0.33920
 Alpha  occ. eigenvalues --   -0.33703  -0.33209  -0.32960  -0.31265  -0.31149
 Alpha  occ. eigenvalues --   -0.31047  -0.30766  -0.30078  -0.29774  -0.29441
 Alpha  occ. eigenvalues --   -0.29335  -0.29142  -0.29007  -0.24106  -0.23822
 Alpha  occ. eigenvalues --   -0.21138  -0.20902
 Alpha virt. eigenvalues --   -0.08775  -0.08590  -0.01754  -0.01473  -0.00031
 Alpha virt. eigenvalues --    0.00132   0.02165   0.02339   0.02610   0.03469
 Alpha virt. eigenvalues --    0.04674   0.04924   0.04951   0.05319   0.06076

 Mulliken charges:
               1
     1  Mg   0.833133
     2  C   -0.003731
     3  C   -0.093714
     4  C   -0.044984
     5  C   -0.063531
     6  N   -0.256852
     7  C   -0.054383
     8  C   -0.013358
     9  C   -0.087022
    10  C    0.046018
    11  C    0.104722
    12  C    0.053010
    13  C   -0.071833
    14  H    0.035382
    15  N   -0.433675
    16  C    0.168665
    17  C   -0.175923
    18  C   -0.002678
    19  C    0.149159
    20  C    0.109763
    21  C    0.014132
    22  O   -0.249371
    23  C    0.061214
    24  N   -0.340803
    25  C    0.041453
    26  C   -0.028357
    27  C   -0.023922
    28  C    0.074537
    29  C    0.076117
    30  C    0.035003
    31  C   -0.005020
    32  N   -0.310460
    33  C    0.079231
    34  C   -0.170572
    35  C    0.007992
    36  C    0.081028
    37  C    0.127525
    38  C    0.044989
    39  O   -0.188812
    40  C   -0.005112
    41  C    0.213458
    42  O   -0.260196
    43  O   -0.304126
    44  C    0.157738
    45  H   -0.017269
    46  H   -0.016254
    47  H   -0.041334
    48  H    0.001013
    49  H   -0.003725
    50  H    0.025545
    51  H    0.016777
    52  H    0.016925
    53  H    0.010950
    54  H    0.041960
    55  H    0.018468
    56  H    0.018708
    57  H    0.005591
    58  H    0.026806
    59  H    0.042596
    60  H    0.036476
    61  H    0.035829
    62  H    0.035688
    63  H    0.017250
    64  H    0.009488
    65  H    0.023511
    66  H    0.012447
    67  H    0.004870
    68  H    0.006701
    69  H    0.004829
    70  H    0.009473
    71  H    0.019154
    72  H    0.028456
    73  H    0.047005
    74  H    0.009533
    75  H    0.046145
    76  H    0.035554
    77  H    0.043610
    78  H    0.046687
    79  H    0.052561
    80  Mg   0.837447
    81  C   -0.017317
    82  C   -0.088315
    83  C   -0.045535
    84  C   -0.065014
    85  N   -0.254603
    86  C   -0.049847
    87  C   -0.015097
    88  C   -0.090410
    89  C    0.045584
    90  C    0.114543
    91  C    0.062617
    92  C   -0.077634
    93  H    0.034441
    94  N   -0.423293
    95  C    0.162624
    96  C   -0.175213
    97  C   -0.008477
    98  C    0.152078
    99  C    0.099566
   100  C    0.015449
   101  O   -0.255043
   102  C    0.061506
   103  N   -0.350096
   104  C    0.037529
   105  C   -0.019911
   106  C   -0.037581
   107  C    0.088032
   108  C    0.074744
   109  C    0.034995
   110  C   -0.012538
   111  N   -0.324228
   112  C    0.078743
   113  C   -0.162415
   114  C    0.002020
   115  C    0.096451
   116  C    0.130851
   117  C    0.042456
   118  O   -0.187997
   119  C    0.000926
   120  C    0.211180
   121  O   -0.251149
   122  O   -0.305659
   123  C    0.152152
   124  H   -0.020452
   125  H   -0.016837
   126  H   -0.036107
   127  H   -0.000928
   128  H   -0.004769
   129  H    0.022277
   130  H    0.014319
   131  H    0.015699
   132  H    0.013896
   133  H    0.037613
   134  H    0.020619
   135  H    0.019368
   136  H    0.008434
   137  H    0.025194
   138  H    0.039232
   139  H    0.037877
   140  H    0.034687
   141  H    0.034341
   142  H    0.012841
   143  H    0.016839
   144  H    0.022332
   145  H    0.009954
   146  H    0.007421
   147  H    0.012335
   148  H    0.013949
   149  H    0.007503
   150  H    0.022271
   151  H    0.027850
   152  H    0.045837
   153  H    0.012116
   154  H    0.046794
   155  H    0.034680
   156  H    0.043682
   157  H    0.049295
   158  H    0.053420
 Sum of Mulliken charges =  -0.00000

 Dipole moment (field-independent basis, Debye):
    X=              0.8178    Y=              6.6381    Z=             -4.2096  Tot=              7.9028
 Quadrupole moment (field-independent basis, Debye-Ang):
   XX=           -444.5935   YY=           -542.2759   ZZ=           -482.6837
   XY=            -28.5521   XZ=             -3.4324   YZ=             -6.6319

 Normal termination of Gaussian 16 at Fri Sep 10 09:53:40 2021.
