 Gaussian 16, Revision A.03,
 Gaussian 16:  ES64L-G16RevA.03 25-Dec-2016

 -----------------------------------
 #p cam-b3lyp/Def2SVP td=(nstates=5)
 -----------------------------------

 --------------------------------
 TDDFT excited states in gaussian
 --------------------------------
 Symbolic Z-matrix:
 Charge =  0 Multiplicity = 1

                         Standard orientation:
 ---------------------------------------------------------------------
 Center     Atomic      Atomic             Coordinates (Angstroms)
 Number     Number       Type             X           Y           Z
 ---------------------------------------------------------------------
      1         12           0       -5.185641    0.639539    0.507366
      2          6           0       -5.628235   -2.197356   -1.630004
      3          6           0       -5.772010   -1.443669    3.145449
      4          6           0       -5.249885    3.201078    2.375791
      5          6           0       -5.759762    2.646287   -2.283513
      6          7           0       -5.629690   -1.526478    0.616154
      7          6           0       -5.712483   -2.512205   -0.271911
      8          6           0       -5.821713   -3.923210    0.379632
      9          6           0       -6.421219   -3.501018    1.795381
     10          6           0       -5.880378   -2.084332    1.875473
     11          6           0       -7.945352   -3.447038    1.820015
     12          6           0       -4.426441   -4.617220    0.532258
     13          6           0       -4.472772   -6.113848    0.853682
     14          1           0       -3.453879   -6.983886    0.286022
     15          7           0       -4.986974    0.801835    2.466203
     16          6           0       -5.255664   -0.152624    3.389295
     17          6           0       -4.948380    0.452846    4.702940
     18          6           0       -4.660531    1.897299    4.482051
     19          6           0       -4.984065    2.031939    3.084705
     20          6           0       -4.901090   -0.330192    5.979015
     21          6           0       -4.181504    2.986195    5.389228
     22          8           0       -4.219664    4.218729    5.051622
     23          6           0       -3.742970    2.574584    6.735076
     24          7           0       -5.680115    2.637823    0.160968
     25          6           0       -5.566622    3.554461    1.128376
     26          6           0       -5.699524    4.944844    0.581465
     27          6           0       -5.685763    4.797661   -1.008472
     28          6           0       -5.625939    3.253009   -1.101968
     29          6           0       -6.954929    5.716100    1.011737
     30          6           0       -4.628627    5.624909   -1.782127
     31          6           0       -3.242212    5.110310   -1.465678
     32          7           0       -5.443579    0.321779   -1.624192
     33          6           0       -5.693692    1.299256   -2.598181
     34          6           0       -5.900964    0.592956   -3.875775
     35          6           0       -5.772602   -0.756065   -3.550951
     36          6           0       -5.528319   -0.885675   -2.153876
     37          6           0       -6.226316    1.200408   -5.120597
     38          6           0       -5.809445   -2.119416   -4.054711
     39          8           0       -5.884736   -2.628603   -5.173886
     40          6           0       -5.838585   -3.112743   -2.810412
     41          6           0       -4.813063   -4.184696   -3.060470
     42          8           0       -3.595234   -3.912891   -3.080018
     43          8           0       -5.403978   -5.387923   -3.000426
     44          6           0       -4.436041   -6.497438   -3.210735
     45          1           0       -6.171473   -1.948610    4.027155
     46          1           0       -5.172034    4.118028    2.963653
     47          1           0       -5.859633    3.210812   -3.212379
     48          1           0       -6.505504   -4.605469   -0.125716
     49          1           0       -6.016910   -4.107356    2.605695
     50          1           0       -8.364961   -3.582484    0.823269
     51          1           0       -8.195382   -2.459119    2.207306
     52          1           0       -8.346669   -4.161289    2.539437
     53          1           0       -3.938493   -4.248697    1.434565
     54          1           0       -3.817092   -4.458394   -0.358132
     55          1           0       -5.466951   -6.527664    0.682583
     56          1           0       -4.307945   -6.238582    1.923950
     57          1           0       -5.318635   -1.328245    5.852169
     58          1           0       -5.577436    0.160283    6.678801
     59          1           0       -3.896938   -0.365571    6.401813
     60          1           0       -4.567844    2.077516    7.246011
     61          1           0       -3.350779    3.472515    7.211266
     62          1           0       -2.951072    1.831527    6.636528
     63          1           0       -4.861138    5.568131    0.889764
     64          1           0       -6.634912    5.095007   -1.454988
     65          1           0       -6.738902    6.665837    1.501672
     66          1           0       -7.543771    5.067062    1.659276
     67          1           0       -7.662788    5.921346    0.209100
     68          1           0       -4.662090    6.668545   -1.471242
     69          1           0       -4.766533    5.596266   -2.863059
     70          1           0       -3.000436    5.619564   -0.533457
     71          1           0       -2.543623    5.388952   -2.255325
     72          1           0       -3.252417    4.039933   -1.259099
     73          1           0       -5.607300    0.708734   -5.870960
     74          1           0       -6.042455    2.274303   -5.097203
     75          1           0       -7.286941    0.959805   -5.191600
     76          1           0       -6.848760   -3.517336   -2.755892
     77          1           0       -4.810615   -7.097252   -4.040284
     78          1           0       -4.313818   -6.989162   -2.245503
     79          1           0       -3.453054   -6.214391   -3.588836
     80         12           0        5.340604    0.640371   -0.659982
     81          6           0        5.344063   -2.409184    1.231916
     82          6           0        4.785878    2.285949    2.275821
     83          6           0        4.883877    3.289203   -2.345958
     84          6           0        4.754109   -1.287257   -3.503565
     85          7           0        5.113980   -0.078742    1.419389
     86          6           0        5.195584   -1.253190    2.026315
     87          6           0        5.194017   -1.177446    3.576739
     88          6           0        4.448774    0.234727    3.747751
     89          6           0        4.831003    0.875767    2.415216
     90          6           0        2.934961    0.113566    3.802679
     91          6           0        6.644147   -1.137781    4.174699
     92          6           0        6.723939   -1.374779    5.684416
     93          1           0        7.871336   -2.106214    6.214454
     94          7           0        5.387105    2.543555   -0.099392
     95          6           0        5.160162    3.033289    1.137515
     96          6           0        5.293023    4.493874    1.022563
     97          6           0        5.454247    4.838424   -0.416191
     98          6           0        5.222079    3.543936   -1.024871
     99          6           0        5.340047    5.403104    2.216089
    100          6           0        5.753571    6.123243   -1.127421
    101          8           0        5.612878    6.239159   -2.396117
    102          6           0        6.126354    7.268143   -0.283776
    103          7           0        4.675971    0.979579   -2.600486
    104          6           0        4.620110    2.224952   -3.104324
    105          6           0        4.378915    2.200060   -4.594825
    106          6           0        4.526008    0.667722   -5.028311
    107          6           0        4.748381    0.031799   -3.638504
    108          6           0        3.022893    2.731862   -5.058259
    109          6           0        5.544007    0.350451   -6.157774
    110          6           0        6.951599    0.611954   -5.672314
    111          7           0        5.273253   -1.469067   -1.122389
    112          6           0        4.985107   -2.059516   -2.372354
    113          6           0        4.943622   -3.521470   -2.164048
    114          6           0        5.189690   -3.680113   -0.791909
    115          6           0        5.351661   -2.405892   -0.183947
    116          6           0        4.656033   -4.495964   -3.160933
    117          6           0        5.338715   -4.635266    0.282424
    118          8           0        5.388693   -5.862567    0.352927
    119          6           0        5.319786   -3.849165    1.663750
    120          6           0        6.466438   -4.349641    2.498753
    121          8           0        7.641382   -4.152088    2.142253
    122          8           0        5.993728   -4.784368    3.681099
    123          6           0        7.094931   -5.280550    4.548828
    124          1           0        4.386467    2.876343    3.100921
    125          1           0        4.823591    4.166091   -2.994737
    126          1           0        4.674264   -1.961888   -4.358653
    127          1           0        4.627620   -1.958797    4.069142
    128          1           0        4.863422    0.802327    4.576764
    129          1           0        2.603726   -0.893751    3.598353
    130          1           0        2.557833    0.795477    3.051798
    131          1           0        2.561637    0.484610    4.761474
    132          1           0        7.023651   -0.109038    4.125691
    133          1           0        7.285240   -1.831011    3.665720
    134          1           0        5.788855   -1.782120    6.087699
    135          1           0        6.831862   -0.408038    6.182205
    136          1           0        5.031486    4.882285    3.130940
    137          1           0        4.570224    6.167776    2.066068
    138          1           0        6.308244    5.894562    2.333321
    139          1           0        5.324834    7.472780    0.422017
    140          1           0        6.388895    8.069144   -0.977563
    141          1           0        7.005749    6.993858    0.309544
    142          1           0        5.125043    2.786197   -5.117167
    143          1           0        3.579312    0.260283   -5.412488
    144          1           0        3.104855    3.561775   -5.785312
    145          1           0        2.462618    3.043689   -4.186828
    146          1           0        2.363163    1.989058   -5.503444
    147          1           0        5.381776    1.013548   -7.011079
    148          1           0        5.478457   -0.668424   -6.524650
    149          1           0        7.067464    1.689798   -5.820369
    150          1           0        7.671701    0.052357   -6.265899
    151          1           0        7.040106    0.415469   -4.597505
    152          1           0        5.366704   -5.300192   -3.024338
    153          1           0        4.720898   -4.072674   -4.161128
    154          1           0        3.628762   -4.754432   -2.890410
    155          1           0        4.355432   -4.040081    2.136144
    156          1           0        6.840907   -6.306687    4.832029
    157          1           0        7.187758   -4.540772    5.366060
    158          1           0        8.067732   -5.421729    4.092567
 ---------------------------------------------------------------------

 SCF Done:  E(RCAM-B3LYP) =  -4069.81194054     A.U. after   19 cycles

 Excitation energies and oscillator strengths:

 Excited State   1:      Singlet-A      1.6678 eV  743.39 nm  f=0.2365  <S**2>=0.000
     309 -> 315       -0.10678
     310 -> 316        0.13460
     311 -> 313        0.42534
     312 -> 314        0.53853
 This state for optimization and/or second-order correction.
 Total Energy, E(TD-HF/TD-DFT) =  -4069.75064884
 Copying the excited state density for this state as the 1-particle RhoCI density.

 Excited State   2:      Singlet-A      1.6832 eV  736.58 nm  f=0.4648  <S**2>=0.000
     309 -> 315       -0.13798
     310 -> 316       -0.10922
     311 -> 313        0.53777
     312 -> 314       -0.42493

 Excited State   3:      Singlet-A      2.1852 eV  567.37 nm  f=0.0899  <S**2>=0.000
     309 -> 313       -0.10560
     310 -> 314        0.63384
     312 -> 316       -0.26926

 Excited State   4:      Singlet-A      2.1910 eV  565.87 nm  f=0.1069  <S**2>=0.000
     309 -> 313        0.63222
     310 -> 314        0.10470
     311 -> 315        0.27336

 Excited State   5:      Singlet-A      2.4856 eV  498.81 nm  f=0.0000  <S**2>=0.000
     312 -> 313        0.70709

 The electronic state is 1-A.
 Alpha  occ. eigenvalues --  -46.87877 -46.87503 -19.26308 -19.26298 -19.19097
 Alpha  occ. eigenvalues --  -19.19051 -19.18959 -19.18580 -19.18244 -19.17930
 Alpha  occ. eigenvalues --  -14.42523 -14.42351 -14.41528 -14.41192 -14.39491
 Alpha  occ. eigenvalues --  -14.39198 -14.38667 -14.38440 -10.39112 -10.39023
 Alpha  occ. eigenvalues --  -10.35596 -10.35259 -10.34461 -10.34109 -10.31742
 Alpha  occ. eigenvalues --  -10.31664 -10.31469 -10.31168 -10.30982 -10.30897
 Alpha  occ. eigenvalues --  -10.30646 -10.30595 -10.30294 -10.30235 -10.30202
 Alpha  occ. eigenvalues --  -10.29998 -10.29963 -10.29722 -10.29719 -10.29347
 Alpha  occ. eigenvalues --  -10.29274 -10.29243 -10.28781 -10.28643 -10.28633
 Alpha  occ. eigenvalues --  -10.28494 -10.28449 -10.28261 -10.28157 -10.28056
 Alpha  occ. eigenvalues --  -10.27882 -10.27846 -10.27802 -10.27684 -10.27599
 Alpha  occ. eigenvalues --  -10.27571 -10.27527 -10.27520 -10.27477 -10.27341
 Alpha  occ. eigenvalues --  -10.27323 -10.27312 -10.27301 -10.27214 -10.27178
 Alpha  occ. eigenvalues --  -10.26948 -10.26706 -10.26635 -10.26604 -10.26299
 Alpha  occ. eigenvalues --  -10.26273 -10.26238 -10.26098 -10.25968 -10.25939
 Alpha  occ. eigenvalues --  -10.25924 -10.25752 -10.25632 -10.25511 -10.25177
 Alpha  occ. eigenvalues --  -10.24918 -10.24872 -10.24733 -10.24717 -10.24561
 Alpha  occ. eigenvalues --  -10.24531  -3.16620  -3.16253  -1.91502  -1.91135
 Alpha  occ. eigenvalues --   -1.91088  -1.90931  -1.90724  -1.90560  -1.16650
 Alpha  occ. eigenvalues --   -1.16596  -1.08698  -1.08543  -1.07364  -1.06882
 Alpha  occ. eigenvalues --   -1.06834  -1.06672  -1.04654  -1.04354  -1.03840
 Alpha  occ. eigenvalues --   -1.03508  -1.03318  -1.02873  -1.02493  -1.01951
 Alpha  occ. eigenvalues --   -0.92044  -0.91849  -0.89592  -0.89322  -0.89227
 Alpha  occ. eigenvalues --   -0.89058  -0.88360  -0.88040  -0.87952  -0.87740
 Alpha  occ. eigenvalues --   -0.87622  -0.87537  -0.87389  -0.86974  -0.85031
 Alpha  occ. eigenvalues --   -0.84894  -0.84004  -0.83702  -0.83097  -0.82788
 Alpha  occ. eigenvalues --   -0.82709  -0.82542  -0.81632  -0.81491  -0.80665
 Alpha  occ. eigenvalues --   -0.80320  -0.78896  -0.78482  -0.77284  -0.77018
 Alpha  occ. eigenvalues --   -0.76973  -0.76779  -0.75973  -0.75731  -0.74966
 Alpha  occ. eigenvalues --   -0.74636  -0.72852  -0.72539  -0.71740  -0.71438
 Alpha  occ. eigenvalues --   -0.69971  -0.69577  -0.68933  -0.68716  -0.67725
 Alpha  occ. eigenvalues --   -0.67462  -0.67271  -0.67100  -0.65333  -0.65168
 Alpha  occ. eigenvalues --   -0.64919  -0.64677  -0.64629  -0.64533  -0.64340
 Alpha  occ. eigenvalues --   -0.64035  -0.62339  -0.62174  -0.60545  -0.60185
 Alpha  occ. eigenvalues --   -0.59860  -0.59684  -0.59059  -0.58843  -0.58577
 Alpha  occ. eigenvalues --   -0.58284  -0.57643  -0.57444  -0.57386  -0.57082
 Alpha  occ. eigenvalues --   -0.56394  -0.56061  -0.56011  -0.55798  -0.55614
 Alpha  occ. eigenvalues --   -0.55400  -0.55334  -0.55097  -0.54574  -0.54352
 Alpha  occ. eigenvalues --   -0.53936  -0.53822  -0.53394  -0.53293  -0.53081
 Alpha  occ. eigenvalues --   -0.53026  -0.52981  -0.52849  -0.52791  -0.52549
 Alpha  occ. eigenvalues --   -0.52501  -0.52226  -0.51994  -0.51695  -0.51677
 Alpha  occ. eigenvalues --   -0.51557  -0.51258  -0.51066  -0.50707  -0.50338
 Alpha  occ. eigenvalues --   -0.50104  -0.50022  -0.49861  -0.49695  -0.49589
 Alpha  occ. eigenvalues --   -0.49368  -0.49294  -0.49145  -0.49087  -0.48990
 Alpha  occ. eigenvalues --   -0.48650  -0.48571  -0.48520  -0.48445  -0.48222
 Alpha  occ. eigenvalues --   -0.48196  -0.47768  -0.47466  -0.47379  -0.46971
 Alpha  occ. eigenvalues --   -0.46863  -0.46600  -0.46566  -0.46447  -0.46436
 Alpha  occ. eigenvalues --   -0.46229  -0.46115  -0.45924  -0.45875  -0.45694
 Alpha  occ. eigenvalues --   -0.45275  -0.45040  -0.44648  -0.44590  -0.44406
 Alpha  occ. eigenvalues --   -0.44348  -0.44223  -0.44138  -0.44095  -0.44012
 Alpha  occ. eigenvalues --   -0.43930  -0.43818  -0.43548  -0.43449  -0.43445
 Alpha  occ. eigenvalues --   -0.43259  -0.43096  -0.42840  -0.42760  -0.42756
 Alpha  occ. eigenvalues --   -0.42694  -0.42388  -0.42066  -0.41825  -0.41775
 Alpha  occ. eigenvalues --   -0.41577  -0.41537  -0.41343  -0.41207  -0.40956
 Alpha  occ. eigenvalues --   -0.40904  -0.40860  -0.40634  -0.40610  -0.40585
 Alpha  occ. eigenvalues --   -0.40327  -0.40256  -0.40150  -0.39502  -0.39242
 Alpha  occ. eigenvalues --   -0.38532  -0.38185  -0.37777  -0.37567  -0.37391
 Alpha  occ. eigenvalues --   -0.37310  -0.37107  -0.37072  -0.36754  -0.36688
 Alpha  occ. eigenvalues --   -0.36244  -0.36072  -0.34363  -0.34102  -0.33812
 Alpha  occ. eigenvalues --   -0.33780  -0.33263  -0.33019  -0.31486  -0.31139
 Alpha  occ. eigenvalues --   -0.31113  -0.30826  -0.30100  -0.29837  -0.29550
 Alpha  occ. eigenvalues --   -0.29408  -0.29175  -0.29052  -0.24158  -0.23879
 Alpha  occ. eigenvalues --   -0.21209  -0.20960
 Alpha virt. eigenvalues --   -0.08863  -0.08637  -0.01835  -0.01525  -0.00163
 Alpha virt. eigenvalues --    0.00107   0.02118   0.02356   0.03023   0.03376
 Alpha virt. eigenvalues --    0.04667   0.04859   0.05062   0.05238   0.06173

 Mulliken charges:
               1
     1  Mg   0.838636
     2  C   -0.002849
     3  C   -0.094065
     4  C   -0.046162
     5  C   -0.063973
     6  N   -0.256845
     7  C   -0.052163
     8  C   -0.013994
     9  C   -0.087002
    10  C    0.046332
    11  C    0.104786
    12  C    0.053434
    13  C   -0.072575
    14  H    0.038204
    15  N   -0.433034
    16  C    0.168150
    17  C   -0.177424
    18  C   -0.004542
    19  C    0.148559
    20  C    0.110182
    21  C    0.011441
    22  O   -0.250038
    23  C    0.062892
    24  N   -0.341187
    25  C    0.041333
    26  C   -0.028083
    27  C   -0.024071
    28  C    0.075069
    29  C    0.076165
    30  C    0.035083
    31  C   -0.004499
    32  N   -0.310513
    33  C    0.080613
    34  C   -0.169797
    35  C    0.008389
    36  C    0.083079
    37  C    0.127331
    38  C    0.046048
    39  O   -0.188197
    40  C   -0.005236
    41  C    0.212906
    42  O   -0.257201
    43  O   -0.304794
    44  C    0.157588
    45  H   -0.017476
    46  H   -0.017163
    47  H   -0.041296
    48  H    0.001172
    49  H   -0.003778
    50  H    0.025548
    51  H    0.016268
    52  H    0.016885
    53  H    0.011034
    54  H    0.044322
    55  H    0.017721
    56  H    0.018082
    57  H    0.006294
    58  H    0.026859
    59  H    0.038481
    60  H    0.037956
    61  H    0.034788
    62  H    0.030063
    63  H    0.016193
    64  H    0.009619
    65  H    0.023055
    66  H    0.012554
    67  H    0.004954
    68  H    0.006496
    69  H    0.004954
    70  H    0.008251
    71  H    0.019290
    72  H    0.028676
    73  H    0.047391
    74  H    0.009268
    75  H    0.046283
    76  H    0.035388
    77  H    0.043066
    78  H    0.047035
    79  H    0.053790
    80  Mg   0.838252
    81  C   -0.017037
    82  C   -0.088002
    83  C   -0.045431
    84  C   -0.062765
    85  N   -0.254491
    86  C   -0.049867
    87  C   -0.015035
    88  C   -0.090525
    89  C    0.045611
    90  C    0.114567
    91  C    0.062646
    92  C   -0.077537
    93  H    0.034493
    94  N   -0.423443
    95  C    0.162743
    96  C   -0.174601
    97  C   -0.008013
    98  C    0.152111
    99  C    0.099363
   100  C    0.015360
   101  O   -0.253508
   102  C    0.061256
   103  N   -0.349892
   104  C    0.037815
   105  C   -0.020084
   106  C   -0.035308
   107  C    0.088939
   108  C    0.073294
   109  C    0.034648
   110  C   -0.007590
   111  N   -0.324270
   112  C    0.078420
   113  C   -0.161901
   114  C    0.002116
   115  C    0.096501
   116  C    0.131331
   117  C    0.042520
   118  O   -0.188680
   119  C    0.000847
   120  C    0.211105
   121  O   -0.250999
   122  O   -0.305929
   123  C    0.152152
   124  H   -0.019756
   125  H   -0.015795
   126  H   -0.039293
   127  H   -0.001635
   128  H   -0.004770
   129  H    0.021850
   130  H    0.015587
   131  H    0.014595
   132  H    0.014083
   133  H    0.037682
   134  H    0.019925
   135  H    0.019471
   136  H    0.008645
   137  H    0.026404
   138  H    0.039299
   139  H    0.038302
   140  H    0.035969
   141  H    0.033717
   142  H    0.013910
   143  H    0.014935
   144  H    0.024193
   145  H    0.011521
   146  H    0.007843
   147  H    0.006249
   148  H    0.004153
   149  H    0.010594
   150  H    0.017600
   151  H    0.029796
   152  H    0.045078
   153  H    0.008953
   154  H    0.049215
   155  H    0.034372
   156  H    0.043318
   157  H    0.049194
   158  H    0.053611
 Sum of Mulliken charges =  -0.00000

 Dipole moment (field-independent basis, Debye):
    X=             -3.3802    Y=              1.8535    Z=              6.4879  Tot=              7.5468
 Quadrupole moment (field-independent basis, Debye-Ang):
   XX=           -519.2396   YY=           -518.0881   ZZ=           -481.0947
   XY=             26.0085   XZ=             -3.8560   YZ=            -17.7323

 Normal termination of Gaussian 16 at Fri Sep 10 19:37:58 2021.
