 Gaussian 16, Revision A.03,
 Gaussian 16:  ES64L-G16RevA.03 25-Dec-2016

 -----------------------------------
 #p cam-b3lyp/Def2SVP td=(nstates=5)
 -----------------------------------

 --------------------------------
 TDDFT excited states in gaussian
 --------------------------------
 Symbolic Z-matrix:
 Charge =  0 Multiplicity = 1

                         Standard orientation:
 ---------------------------------------------------------------------
 Center     Atomic      Atomic             Coordinates (Angstroms)
 Number     Number       Type             X           Y           Z
 ---------------------------------------------------------------------
      1         12           0        7.808689   -0.895855    0.246351
      2          6           0        8.327255    2.177507   -1.513691
      3          6           0        8.902683    0.701383    3.056168
      4          6           0        7.792128   -3.704841    1.718066
      5          6           0        7.853177   -2.502889   -2.845756
      6          7           0        8.497695    1.178011    0.599899
      7          6           0        8.592014    2.274468   -0.145792
      8          6           0        8.925762    3.554545    0.677245
      9          6           0        9.624680    2.869450    1.935878
     10          6           0        8.942979    1.513529    1.884064
     11          6           0       11.127273    2.670618    1.765045
     12          6           0        7.640131    4.344487    1.095426
     13          6           0        7.885467    5.764529    1.613735
     14          1           0        6.913204    6.801392    1.302334
     15          7           0        7.806339   -1.332814    2.172984
     16          6           0        8.276726   -0.557895    3.179722
     17          6           0        8.048495   -1.323468    4.424105
     18          6           0        7.581152   -2.684842    4.041555
     19          6           0        7.734888   -2.636516    2.609980
     20          6           0        8.225979   -0.741108    5.792720
     21          6           0        7.086052   -3.848805    4.840428
     22          8           0        6.951527   -5.014371    4.332557
     23          6           0        6.843624   -3.606065    6.274077
     24          7           0        8.039738   -2.856207   -0.432818
     25          6           0        7.931274   -3.893791    0.404224
     26          6           0        7.850342   -5.191927   -0.342926
     27          6           0        7.681034   -4.805748   -1.883040
     28          6           0        7.781908   -3.265909   -1.752692
     29          6           0        9.052304   -6.132865   -0.181883
     30          6           0        6.461813   -5.404584   -2.628236
     31          6           0        5.182892   -4.816766   -2.075127
     32          7           0        7.868042   -0.285342   -1.835666
     33          6           0        7.902205   -1.123562   -2.959452
     34          6           0        8.046622   -0.254884   -4.142080
     35          6           0        8.103471    1.035654   -3.619467
     36          6           0        8.027452    0.975036   -2.198608
     37          6           0        8.166584   -0.695067   -5.489775
     38          6           0        8.235528    2.450004   -3.929358
     39          8           0        8.244971    3.113073   -4.967502
     40          6           0        8.508247    3.236995   -2.572119
     41          6           0        7.586012    4.425236   -2.542541
     42          8           0        6.350730    4.274148   -2.449714
     43          8           0        8.308835    5.545262   -2.388882
     44          6           0        7.451930    6.759102   -2.322106
     45          1           0        9.448302    1.027981    3.943622
     46          1           0        7.677804   -4.688748    2.177735
     47          1           0        7.789251   -2.927522   -3.849276
     48          1           0        9.621845    4.238577    0.191454
     49          1           0        9.379602    3.381495    2.866184
     50          1           0       11.448991    2.915313    0.752849
     51          1           0       11.307398    1.616604    1.977419
     52          1           0       11.680223    3.227534    2.521926
     53          1           0        7.215015    3.891037    1.990814
     54          1           0        6.924316    4.379379    0.273406
     55          1           0        8.894801    6.104995    1.380850
     56          1           0        7.852078    5.741051    2.703017
     57          1           0        8.734708    0.221367    5.755533
     58          1           0        8.915880   -1.392464    6.328892
     59          1           0        7.283470   -0.676576    6.336636
     60          1           0        7.768598   -3.270868    6.743773
     61          1           0        6.408744   -4.525111    6.665339
     62          1           0        6.132379   -2.786143    6.378036
     63          1           0        6.986702   -5.773770   -0.023532
     64          1           0        8.537786   -5.119385   -2.479933
     65          1           0        8.787260   -7.121382    0.194003
     66          1           0        9.775579   -5.646745    0.472220
     67          1           0        9.642293   -6.279618   -1.086202
     68          1           0        6.413570   -6.481720   -2.472043
     69          1           0        6.484341   -5.226044   -3.703348
     70          1           0        4.988737   -5.436165   -1.200210
     71          1           0        4.376605   -4.906687   -2.803843
     72          1           0        5.333178   -3.795508   -1.724510
     73          1           0        7.527988   -0.040234   -6.082531
     74          1           0        7.869201   -1.738330   -5.593542
     75          1           0        9.233318   -0.546368   -5.656575
     76          1           0        9.556767    3.532831   -2.586561
     77          1           0        7.798366    7.439752   -3.099880
     78          1           0        7.489689    7.108682   -1.290227
     79          1           0        6.408667    6.629206   -2.612054
     80         12           0       -7.977085    0.842752    0.449788
     81          6           0       -8.151036   -2.448760   -0.969645
     82          6           0       -7.013153    1.956312   -2.626800
     83          6           0       -7.379844    3.666159    1.768534
     84          6           0       -7.832612   -0.668554    3.586794
     85          7           0       -7.659724   -0.206837   -1.471116
     86          6           0       -7.816163   -1.448216   -1.905707
     87          6           0       -7.680294   -1.613348   -3.443179
     88          6           0       -6.777546   -0.320003   -3.745098
     89          6           0       -7.196608    0.551891   -2.563219
     90          6           0       -5.285806   -0.588374   -3.635414
     91          6           0       -9.064437   -1.531910   -4.177719
     92          6           0       -9.045786   -1.990807   -5.637458
     93          1           0      -10.217524   -2.685494   -6.163693
     94          7           0       -7.774957    2.632483   -0.383610
     95          6           0       -7.397211    2.902038   -1.650864
     96          6           0       -7.382774    4.368792   -1.763028
     97          6           0       -7.623033    4.944928   -0.412077
     98          6           0       -7.580308    3.744100    0.398025
     99          6           0       -7.235415    5.083127   -3.075055
    100          6           0       -7.840816    6.346384    0.072383
    101          8           0       -7.792374    6.643298    1.318300
    102          6           0       -8.019685    7.376855   -0.960875
    103          7           0       -7.440367    1.414377    2.375278
    104          6           0       -7.293491    2.711980    2.695564
    105          6           0       -7.178502    2.895309    4.190078
    106          6           0       -7.522659    1.468718    4.825664
    107          6           0       -7.697525    0.649204    3.528279
    108          6           0       -5.815844    3.363948    4.699907
    109          6           0       -8.657212    1.425735    5.885664
    110          6           0       -9.984756    1.738803    5.233717
    111          7           0       -8.172515   -1.166956    1.218530
    112          6           0       -8.051607   -1.581432    2.563027
    113          6           0       -8.149133   -3.055461    2.574656
    114          6           0       -8.298142   -3.400592    1.222924
    115          6           0       -8.273518   -2.226096    0.423252
    116          6           0       -8.049045   -3.886731    3.725786
    117          6           0       -8.459997   -4.492187    0.289700
    118          8           0       -8.634405   -5.705632    0.394031
    119          6           0       -8.245083   -3.934110   -1.182968
    120          6           0       -9.366659   -4.448788   -2.043016
    121          8           0      -10.539011   -4.090181   -1.834166
    122          8           0       -8.848195   -5.102958   -3.098305
    123          6           0       -9.921618   -5.622694   -3.986821
    124          1           0       -6.487316    2.372459   -3.486566
    125          1           0       -7.279605    4.623297    2.285561
    126          1           0       -7.894932   -1.207469    4.534611
    127          1           0       -7.162073   -2.510606   -3.759646
    128          1           0       -7.060528    0.148777   -4.684000
    129          1           0       -5.081420   -1.578410   -3.255675
    130          1           0       -4.900651    0.163299   -2.958878
    131          1           0       -4.798284   -0.406225   -4.597423
    132          1           0       -9.335009   -0.477175   -4.315795
    133          1           0       -9.814978   -2.075566   -3.637579
    134          1           0       -8.129661   -2.540696   -5.885004
    135          1           0       -9.009304   -1.106779   -6.278683
    136          1           0       -6.910569    4.400843   -3.870274
    137          1           0       -6.403351    5.786887   -2.964286
    138          1           0       -8.133011    5.638432   -3.355455
    139          1           0       -7.146131    7.394615   -1.608232
    140          1           0       -8.251099    8.296314   -0.419652
    141          1           0       -8.872030    7.097159   -1.590077
    142          1           0       -7.898040    3.621893    4.547062
    143          1           0       -6.659151    1.039299    5.354611
    144          1           0       -5.867933    4.300191    5.287125
    145          1           0       -5.156469    3.483977    3.850585
    146          1           0       -5.277378    2.640765    5.310040
    147          1           0       -8.495358    2.194701    6.645035
    148          1           0       -8.730572    0.474138    6.401483
    149          1           0       -9.996903    2.832628    5.211479
    150          1           0      -10.806250    1.347004    5.830098
    151          1           0      -10.005845    1.387741    4.195476
    152          1           0       -8.827786   -4.632826    3.639701
    153          1           0       -8.149715   -3.309847    4.642755
    154          1           0       -7.036526   -4.278234    3.596203
    155          1           0       -7.271281   -4.284497   -1.527226
    156          1           0       -9.756040   -6.699379   -4.091826
    157          1           0       -9.868324   -5.012644   -4.908092
    158          1           0      -10.937823   -5.600657   -3.610933
 ---------------------------------------------------------------------

 SCF Done:  E(RCAM-B3LYP) =  -4069.81188478     A.U. after   19 cycles

 Excitation energies and oscillator strengths:

 Excited State   1:      Singlet-A      1.6725 eV  741.29 nm  f=0.1782  <S**2>=0.000
     310 -> 316        0.14565
     311 -> 313        0.36833
     312 -> 314        0.57894
 This state for optimization and/or second-order correction.
 Total Energy, E(TD-HF/TD-DFT) =  -4069.75042001
 Copying the excited state density for this state as the 1-particle RhoCI density.

 Excited State   2:      Singlet-A      1.6826 eV  736.85 nm  f=0.5729  <S**2>=0.000
     309 -> 315        0.14871
     311 -> 313        0.57838
     312 -> 314       -0.36807

 Excited State   3:      Singlet-A      2.1860 eV  567.16 nm  f=0.0871  <S**2>=0.000
     310 -> 314        0.63788
     312 -> 316       -0.27086

 Excited State   4:      Singlet-A      2.1928 eV  565.41 nm  f=0.1104  <S**2>=0.000
     309 -> 313        0.63615
     311 -> 315       -0.27623

 Excited State   5:      Singlet-A      2.7639 eV  448.59 nm  f=0.0000  <S**2>=0.000
     312 -> 313        0.70710

 The electronic state is 1-A.
 Alpha  occ. eigenvalues --  -46.87838 -46.87588 -19.26346 -19.26288 -19.19099
 Alpha  occ. eigenvalues --  -19.19084 -19.18843 -19.18647 -19.18223 -19.17983
 Alpha  occ. eigenvalues --  -14.42491 -14.42421 -14.41489 -14.41290 -14.39443
 Alpha  occ. eigenvalues --  -14.39279 -14.38631 -14.38529 -10.39142 -10.39028
 Alpha  occ. eigenvalues --  -10.35476 -10.35324 -10.34443 -10.34161 -10.31743
 Alpha  occ. eigenvalues --  -10.31699 -10.31449 -10.31229 -10.30948 -10.30943
 Alpha  occ. eigenvalues --  -10.30615 -10.30550 -10.30330 -10.30287 -10.30243
 Alpha  occ. eigenvalues --  -10.30073 -10.29962 -10.29833 -10.29673 -10.29363
 Alpha  occ. eigenvalues --  -10.29330 -10.29293 -10.28789 -10.28632 -10.28576
 Alpha  occ. eigenvalues --  -10.28576 -10.28407 -10.28330 -10.28155 -10.28042
 Alpha  occ. eigenvalues --  -10.27928 -10.27837 -10.27767 -10.27624 -10.27586
 Alpha  occ. eigenvalues --  -10.27535 -10.27513 -10.27480 -10.27472 -10.27446
 Alpha  occ. eigenvalues --  -10.27411 -10.27394 -10.27371 -10.27330 -10.27210
 Alpha  occ. eigenvalues --  -10.26981 -10.26746 -10.26613 -10.26430 -10.26344
 Alpha  occ. eigenvalues --  -10.26270 -10.26219 -10.26104 -10.26061 -10.25902
 Alpha  occ. eigenvalues --  -10.25899 -10.25868 -10.25793 -10.25460 -10.25360
 Alpha  occ. eigenvalues --  -10.24878 -10.24826 -10.24801 -10.24726 -10.24697
 Alpha  occ. eigenvalues --  -10.24622  -3.16581  -3.16338  -1.91463  -1.91220
 Alpha  occ. eigenvalues --   -1.91049  -1.90891  -1.90809  -1.90645  -1.16695
 Alpha  occ. eigenvalues --   -1.16582  -1.08683  -1.08591  -1.07243  -1.06900
 Alpha  occ. eigenvalues --   -1.06883  -1.06706  -1.04622  -1.04418  -1.03800
 Alpha  occ. eigenvalues --   -1.03591  -1.03275  -1.02970  -1.02452  -1.02041
 Alpha  occ. eigenvalues --   -0.92017  -0.91915  -0.89558  -0.89435  -0.89227
 Alpha  occ. eigenvalues --   -0.89062  -0.88323  -0.88166  -0.87919  -0.87726
 Alpha  occ. eigenvalues --   -0.87713  -0.87609  -0.87309  -0.87043  -0.85021
 Alpha  occ. eigenvalues --   -0.84919  -0.83974  -0.83826  -0.82998  -0.82863
 Alpha  occ. eigenvalues --   -0.82688  -0.82575  -0.81636  -0.81530  -0.80640
 Alpha  occ. eigenvalues --   -0.80373  -0.78836  -0.78561  -0.77258  -0.77070
 Alpha  occ. eigenvalues --   -0.76977  -0.76829  -0.75967  -0.75758  -0.74935
 Alpha  occ. eigenvalues --   -0.74746  -0.72817  -0.72629  -0.71712  -0.71509
 Alpha  occ. eigenvalues --   -0.69944  -0.69710  -0.68913  -0.68749  -0.67682
 Alpha  occ. eigenvalues --   -0.67532  -0.67257  -0.67124  -0.65328  -0.65193
 Alpha  occ. eigenvalues --   -0.64898  -0.64701  -0.64663  -0.64583  -0.64308
 Alpha  occ. eigenvalues --   -0.64146  -0.62349  -0.62215  -0.60478  -0.60270
 Alpha  occ. eigenvalues --   -0.59845  -0.59713  -0.59029  -0.58924  -0.58547
 Alpha  occ. eigenvalues --   -0.58357  -0.57636  -0.57487  -0.57349  -0.57173
 Alpha  occ. eigenvalues --   -0.56353  -0.56132  -0.56030  -0.55818  -0.55559
 Alpha  occ. eigenvalues --   -0.55382  -0.55381  -0.55192  -0.54570  -0.54432
 Alpha  occ. eigenvalues --   -0.53935  -0.53826  -0.53339  -0.53261  -0.53160
 Alpha  occ. eigenvalues --   -0.53068  -0.52961  -0.52831  -0.52790  -0.52587
 Alpha  occ. eigenvalues --   -0.52477  -0.52356  -0.51967  -0.51822  -0.51656
 Alpha  occ. eigenvalues --   -0.51579  -0.51241  -0.51135  -0.50602  -0.50399
 Alpha  occ. eigenvalues --   -0.50066  -0.49953  -0.49902  -0.49807  -0.49553
 Alpha  occ. eigenvalues --   -0.49411  -0.49258  -0.49138  -0.49125  -0.49025
 Alpha  occ. eigenvalues --   -0.48639  -0.48498  -0.48484  -0.48483  -0.48321
 Alpha  occ. eigenvalues --   -0.48267  -0.47734  -0.47521  -0.47335  -0.47046
 Alpha  occ. eigenvalues --   -0.46838  -0.46641  -0.46595  -0.46473  -0.46401
 Alpha  occ. eigenvalues --   -0.46207  -0.46202  -0.46025  -0.45873  -0.45757
 Alpha  occ. eigenvalues --   -0.45237  -0.45152  -0.44626  -0.44542  -0.44446
 Alpha  occ. eigenvalues --   -0.44398  -0.44184  -0.44127  -0.44061  -0.44050
 Alpha  occ. eigenvalues --   -0.44016  -0.43866  -0.43545  -0.43490  -0.43424
 Alpha  occ. eigenvalues --   -0.43313  -0.43069  -0.42866  -0.42835  -0.42751
 Alpha  occ. eigenvalues --   -0.42697  -0.42496  -0.42051  -0.41903  -0.41747
 Alpha  occ. eigenvalues --   -0.41600  -0.41573  -0.41385  -0.41180  -0.40913
 Alpha  occ. eigenvalues --   -0.40907  -0.40853  -0.40650  -0.40626  -0.40609
 Alpha  occ. eigenvalues --   -0.40434  -0.40272  -0.40148  -0.39477  -0.39379
 Alpha  occ. eigenvalues --   -0.38504  -0.38293  -0.37788  -0.37578  -0.37358
 Alpha  occ. eigenvalues --   -0.37305  -0.37203  -0.37121  -0.36767  -0.36711
 Alpha  occ. eigenvalues --   -0.36238  -0.36155  -0.34328  -0.34182  -0.33831
 Alpha  occ. eigenvalues --   -0.33798  -0.33229  -0.33104  -0.31373  -0.31206
 Alpha  occ. eigenvalues --   -0.31076  -0.30901  -0.30083  -0.29889  -0.29489
 Alpha  occ. eigenvalues --   -0.29367  -0.29254  -0.29141  -0.24122  -0.23964
 Alpha  occ. eigenvalues --   -0.21169  -0.21044
 Alpha virt. eigenvalues --   -0.08815  -0.08719  -0.01789  -0.01614  -0.00095
 Alpha virt. eigenvalues --    0.00046   0.02153   0.02274   0.03076   0.03290
 Alpha virt. eigenvalues --    0.04678   0.04808   0.05038   0.05229   0.06137

 Mulliken charges:
               1
     1  Mg   0.838651
     2  C   -0.003040
     3  C   -0.094093
     4  C   -0.045795
     5  C   -0.063982
     6  N   -0.256828
     7  C   -0.052473
     8  C   -0.014043
     9  C   -0.086992
    10  C    0.046366
    11  C    0.104785
    12  C    0.053452
    13  C   -0.071861
    14  H    0.036131
    15  N   -0.433178
    16  C    0.168482
    17  C   -0.177069
    18  C   -0.003880
    19  C    0.148740
    20  C    0.110151
    21  C    0.012364
    22  O   -0.249357
    23  C    0.062436
    24  N   -0.341132
    25  C    0.041260
    26  C   -0.028256
    27  C   -0.023936
    28  C    0.074763
    29  C    0.076120
    30  C    0.035124
    31  C   -0.004505
    32  N   -0.310395
    33  C    0.080279
    34  C   -0.169973
    35  C    0.008241
    36  C    0.082836
    37  C    0.127392
    38  C    0.045895
    39  O   -0.188779
    40  C   -0.005225
    41  C    0.212806
    42  O   -0.257400
    43  O   -0.304686
    44  C    0.157779
    45  H   -0.017476
    46  H   -0.016628
    47  H   -0.041602
    48  H    0.000928
    49  H   -0.003940
    50  H    0.025473
    51  H    0.016496
    52  H    0.016772
    53  H    0.011255
    54  H    0.043942
    55  H    0.017906
    56  H    0.018096
    57  H    0.005938
    58  H    0.026984
    59  H    0.039648
    60  H    0.037391
    61  H    0.035905
    62  H    0.031469
    63  H    0.016751
    64  H    0.009488
    65  H    0.023442
    66  H    0.012571
    67  H    0.004791
    68  H    0.006619
    69  H    0.004532
    70  H    0.009134
    71  H    0.017865
    72  H    0.028784
    73  H    0.047137
    74  H    0.009017
    75  H    0.046073
    76  H    0.035212
    77  H    0.042887
    78  H    0.046592
    79  H    0.053372
    80  Mg   0.837902
    81  C   -0.016781
    82  C   -0.087514
    83  C   -0.045466
    84  C   -0.064941
    85  N   -0.254582
    86  C   -0.049773
    87  C   -0.015122
    88  C   -0.090502
    89  C    0.045695
    90  C    0.114199
    91  C    0.062505
    92  C   -0.077857
    93  H    0.034618
    94  N   -0.423572
    95  C    0.162870
    96  C   -0.174181
    97  C   -0.007836
    98  C    0.152251
    99  C    0.099157
   100  C    0.015617
   101  O   -0.253419
   102  C    0.061181
   103  N   -0.350012
   104  C    0.037599
   105  C   -0.019819
   106  C   -0.034737
   107  C    0.088847
   108  C    0.073715
   109  C    0.034819
   110  C   -0.007629
   111  N   -0.324059
   112  C    0.078367
   113  C   -0.163262
   114  C    0.002238
   115  C    0.096126
   116  C    0.131500
   117  C    0.042298
   118  O   -0.188104
   119  C    0.000942
   120  C    0.211265
   121  O   -0.251126
   122  O   -0.305592
   123  C    0.152082
   124  H   -0.018925
   125  H   -0.015750
   126  H   -0.040751
   127  H   -0.000640
   128  H   -0.004208
   129  H    0.022369
   130  H    0.015007
   131  H    0.016944
   132  H    0.013891
   133  H    0.037510
   134  H    0.020889
   135  H    0.019728
   136  H    0.009179
   137  H    0.026723
   138  H    0.039678
   139  H    0.038597
   140  H    0.036176
   141  H    0.033840
   142  H    0.014225
   143  H    0.012179
   144  H    0.024782
   145  H    0.012004
   146  H    0.005337
   147  H    0.005939
   148  H    0.003494
   149  H    0.010847
   150  H    0.017753
   151  H    0.030286
   152  H    0.045832
   153  H    0.008268
   154  H    0.046959
   155  H    0.035124
   156  H    0.043774
   157  H    0.049564
   158  H    0.053469
 Sum of Mulliken charges =  -0.00000

 Dipole moment (field-independent basis, Debye):
    X=              4.4077    Y=              2.8516    Z=              1.1408  Tot=              5.3722
 Quadrupole moment (field-independent basis, Debye-Ang):
   XX=           -520.0393   YY=           -530.5727   ZZ=           -467.9336
   XY=            -19.1808   XZ=             58.3436   YZ=             27.5703

 Normal termination of Gaussian 16 at Sat Sep 11 19:59:33 2021.
