 Gaussian 16, Revision A.03,
 Gaussian 16:  ES64L-G16RevA.03 25-Dec-2016

 -----------------------------------
 #p cam-b3lyp/Def2SVP td=(nstates=5)
 -----------------------------------

 --------------------------------
 TDDFT excited states in gaussian
 --------------------------------
 Symbolic Z-matrix:
 Charge =  0 Multiplicity = 1

                         Standard orientation:
 ---------------------------------------------------------------------
 Center     Atomic      Atomic             Coordinates (Angstroms)
 Number     Number       Type             X           Y           Z
 ---------------------------------------------------------------------
      1         12           0      -15.886529    0.686145    0.450485
      2          6           0      -16.199259   -1.842217   -2.063833
      3          6           0      -16.864369   -1.663313    2.723576
      4          6           0      -16.057316    3.002973    2.609133
      5          6           0      -16.045772    3.044449   -2.110511
      6          7           0      -16.432845   -1.448296    0.235203
      7          6           0      -16.454168   -2.313322   -0.773978
      8          6           0      -16.698869   -3.784093   -0.321952
      9          6           0      -17.440106   -3.502322    1.061222
     10          6           0      -16.851877   -2.138820    1.378671
     11          6           0      -18.953044   -3.364872    0.924738
     12          6           0      -15.361888   -4.569887   -0.105758
     13          6           0      -15.509499   -6.089268    0.016910
     14          1           0      -14.469876   -6.941134   -0.540635
     15          7           0      -15.910000    0.599291    2.423999
     16          6           0      -16.324870   -0.442692    3.183894
     17          6           0      -16.146564   -0.018678    4.589277
     18          6           0      -15.773218    1.423090    4.585687
     19          6           0      -15.926129    1.743591    3.189523
     20          6           0      -16.281533   -0.951386    5.753574
     21          6           0      -15.356500    2.365458    5.670316
     22          8           0      -15.302195    3.629879    5.489032
     23          6           0      -15.095389    1.770120    6.993356
     24          7           0      -16.251107    2.736551    0.307121
     25          6           0      -16.211506    3.521781    1.389170
     26          6           0      -16.220115    4.973298    1.011066
     27          6           0      -16.028061    5.018500   -0.573492
     28          6           0      -16.024191    3.495537   -0.854277
     29          6           0      -17.482709    5.757333    1.394675
     30          6           0      -14.853645    5.871410   -1.115441
     31          6           0      -13.536779    5.244160   -0.716041
     32          7           0      -15.908483    0.643146   -1.719472
     33          6           0      -16.001519    1.743672   -2.583684
     34          6           0      -16.089103    1.209675   -3.955269
     35          6           0      -16.057420   -0.173793   -3.791386
     36          6           0      -15.982901   -0.484757   -2.403568
     37          6           0      -16.241229    1.980457   -5.141518
     38          6           0      -16.094018   -1.462058   -4.464358
     39          8           0      -16.060575   -1.827348   -5.640342
     40          6           0      -16.310171   -2.594982   -3.366365
     41          6           0      -15.309543   -3.685659   -3.635581
     42          8           0      -14.087146   -3.483383   -3.486596
     43          8           0      -15.954571   -4.851666   -3.793406
     44          6           0      -15.017318   -5.981080   -4.034513
     45          1           0      -17.384886   -2.247348    3.485093
     46          1           0      -16.008973    3.836344    3.313118
     47          1           0      -16.012707    3.721702   -2.965898
     48          1           0      -17.347990   -4.360271   -0.981562
     49          1           0      -17.159101   -4.224072    1.827926
     50          1           0      -19.259436   -3.354900   -0.121180
     51          1           0      -19.203705   -2.418265    1.403901
     52          1           0      -19.465536   -4.136655    1.499611
     53          1           0      -14.966699   -4.341369    0.884022
     54          1           0      -14.646962   -4.339794   -0.896495
     55          1           0      -16.493919   -6.422035   -0.313381
     56          1           0      -15.475645   -6.351433    1.074418
     57          1           0      -16.723999   -1.901391    5.456490
     58          1           0      -17.012902   -0.511168    6.431081
     59          1           0      -15.335755   -1.094737    6.276343
     60          1           0      -15.994624    1.262890    7.343559
     61          1           0      -14.722969    2.580188    7.619409
     62          1           0      -14.330060    1.000438    6.889381
     63          1           0      -15.397229    5.505992    1.485958
     64          1           0      -16.905250    5.421197   -1.080493
     65          1           0      -17.284469    6.627134    2.021454
     66          1           0      -18.170130    5.069548    1.886301
     67          1           0      -18.083049    6.097965    0.551479
     68          1           0      -14.878137    6.870104   -0.680750
     69          1           0      -14.866135    5.981322   -2.199883
     70          1           0      -13.383296    5.622581    0.293945
     71          1           0      -12.739858    5.575751   -1.382505
     72          1           0      -13.616887    4.159014   -0.648760
     73          1           0      -15.560923    1.548422   -5.875342
     74          1           0      -16.015369    3.031435   -4.962535
     75          1           0      -17.295772    1.811064   -5.358546
     76          1           0      -17.336281   -2.944922   -3.474819
     77          1           0      -15.318395   -6.454066   -4.969323
     78          1           0      -15.029302   -6.591847   -3.131615
     79          1           0      -13.985814   -5.711003   -4.263416
     80         12           0       15.827906   -0.683620    0.451196
     81          6           0       16.388559    1.863142   -2.014317
     82          6           0       17.022223    1.511067    2.773175
     83          6           0       15.770430   -3.046136    2.568424
     84          6           0       15.772028   -2.998142   -2.153712
     85          7           0       16.577239    1.390309    0.279127
     86          6           0       16.685783    2.276757   -0.699017
     87          6           0       17.061221    3.708356   -0.230905
     88          6           0       17.776818    3.328079    1.155526
     89          6           0       17.060683    2.010929    1.446998
     90          6           0       19.261894    3.041727    1.007556
     91          6           0       15.799234    4.611028    0.002725
     92          6           0       16.096638    6.103806    0.160606
     93          1           0       15.138090    7.065184   -0.377350
     94          7           0       15.853705   -0.631270    2.434920
     95          6           0       16.357308    0.346773    3.216641
     96          6           0       16.150511   -0.099692    4.603022
     97          6           0       15.633004   -1.494714    4.574323
     98          6           0       15.754645   -1.791966    3.161193
     99          6           0       16.363590    0.797840    5.787278
    100          6           0       15.126052   -2.414107    5.643858
    101          8           0       14.950368   -3.665348    5.428541
    102          6           0       14.930277   -1.824669    6.976424
    103          7           0       15.989357   -2.747988    0.265050
    104          6           0       15.878454   -3.549709    1.338766
    105          6           0       15.751166   -4.997243    0.927869
    106          6           0       15.555837   -4.977725   -0.659285
    107          6           0       15.699574   -3.461089   -0.913316
    108          6           0       16.934997   -5.896327    1.283660
    109          6           0       14.305528   -5.706445   -1.223505
    110          6           0       13.049840   -4.975815   -0.805377
    111          7           0       15.853233   -0.596710   -1.707481
    112          6           0       15.849273   -1.686793   -2.605139
    113          6           0       15.990199   -1.130353   -3.966359
    114          6           0       16.090303    0.254231   -3.762871
    115          6           0       16.037228    0.538876   -2.371591
    116          6           0       16.060320   -1.885799   -5.170731
    117          6           0       16.239480    1.538863   -4.407980
    118          8           0       16.250227    1.928951   -5.574799
    119          6           0       16.566335    2.627410   -3.296855
    120          6           0       15.674645    3.815352   -3.533916
    121          8           0       14.442241    3.717507   -3.398965
    122          8           0       16.434958    4.917444   -3.666916
    123          6           0       15.595122    6.123879   -3.892824
    124          1           0       17.589565    2.036076    3.542175
    125          1           0       15.641250   -3.890941    3.248928
    126          1           0       15.664899   -3.646491   -3.025979
    127          1           0       17.756694    4.229936   -0.877469
    128          1           0       17.556703    4.060741    1.927605
    129          1           0       19.567922    3.025843   -0.027930
    130          1           0       19.421765    2.073760    1.464212
    131          1           0       19.843935    3.753987    1.599373
    132          1           0       15.384156    4.396088    0.995825
    133          1           0       15.077887    4.466882   -0.777973
    134          1           0       17.115068    6.357161   -0.158086
    135          1           0       16.079759    6.350320    1.225017
    136          1           0       16.902755    1.711388    5.507788
    137          1           0       17.047264    0.275640    6.465348
    138          1           0       15.436598    1.018371    6.320854
    139          1           0       15.871696   -1.411180    7.330268
    140          1           0       14.479801   -2.613722    7.581682
    141          1           0       14.231227   -0.985493    6.888511
    142          1           0       14.880890   -5.453474    1.383449
    143          1           0       16.394300   -5.464254   -1.179013
    144          1           0       16.650525   -6.767831    1.903035
    145          1           0       17.679099   -5.296300    1.790446
    146          1           0       17.491938   -6.284865    0.432739
    147          1           0       14.232839   -6.713191   -0.804763
    148          1           0       14.314911   -5.806864   -2.303704
    149          1           0       12.864612   -5.360128    0.202130
    150          1           0       12.226772   -5.213886   -1.476135
    151          1           0       13.231797   -3.898288   -0.718874
    152          1           0       15.432103   -1.380519   -5.892216
    153          1           0       15.740034   -2.913790   -5.014463
    154          1           0       17.130771   -1.816990   -5.382073
    155          1           0       17.622495    2.883319   -3.389624
    156          1           0       15.945348    6.587900   -4.820027
    157          1           0       15.678233    6.723399   -2.966857
    158          1           0       14.546069    5.969524   -4.116695
 ---------------------------------------------------------------------

 SCF Done:  E(RCAM-B3LYP) =  -4069.81175574     A.U. after   19 cycles

 Excitation energies and oscillator strengths:

 Excited State   1:      Singlet-A      1.6753 eV  740.06 nm  f=0.2142  <S**2>=0.000
     310 -> 316        0.16864
     311 -> 313        0.66674
     312 -> 314       -0.16163
     310 <- 316        0.10167
 This state for optimization and/or second-order correction.
 Total Energy, E(TD-HF/TD-DFT) =  -4069.75018880
 Copying the excited state density for this state as the 1-particle RhoCI density.

 Excited State   2:      Singlet-A      1.6801 eV  737.95 nm  f=0.5633  <S**2>=0.000
     309 -> 315        0.17066
     311 -> 313        0.16158
     312 -> 314        0.66638
     309 <- 315        0.10217

 Excited State   3:      Singlet-A      2.1861 eV  567.16 nm  f=0.0958  <S**2>=0.000
     310 -> 313        0.64216
     311 -> 316       -0.27296

 Excited State   4:      Singlet-A      2.1925 eV  565.49 nm  f=0.1044  <S**2>=0.000
     309 -> 314        0.64038
     312 -> 315       -0.27815

 Excited State   5:      Singlet-A      3.0591 eV  405.29 nm  f=0.0000  <S**2>=0.000
     312 -> 313        0.70711

 The electronic state is 1-A.
 Alpha  occ. eigenvalues --  -46.87754 -46.87661 -19.26345 -19.26238 -19.19156
 Alpha  occ. eigenvalues --  -19.18973 -19.18775 -19.18716 -19.18126 -19.18050
 Alpha  occ. eigenvalues --  -14.42498 -14.42408 -14.41407 -14.41360 -14.39360
 Alpha  occ. eigenvalues --  -14.39353 -14.38600 -14.38544 -10.39086 -10.39033
 Alpha  occ. eigenvalues --  -10.35408 -10.35393 -10.34346 -10.34227 -10.31750
 Alpha  occ. eigenvalues --  -10.31632 -10.31362 -10.31309 -10.31024 -10.30867
 Alpha  occ. eigenvalues --  -10.30527 -10.30465 -10.30398 -10.30361 -10.30165
 Alpha  occ. eigenvalues --  -10.30142 -10.29895 -10.29879 -10.29588 -10.29438
 Alpha  occ. eigenvalues --  -10.29401 -10.29213 -10.28718 -10.28706 -10.28651
 Alpha  occ. eigenvalues --  -10.28493 -10.28405 -10.28322 -10.28141 -10.28075
 Alpha  occ. eigenvalues --  -10.28001 -10.27751 -10.27685 -10.27670 -10.27542
 Alpha  occ. eigenvalues --  -10.27519 -10.27484 -10.27469 -10.27466 -10.27460
 Alpha  occ. eigenvalues --  -10.27441 -10.27409 -10.27378 -10.27361 -10.27115
 Alpha  occ. eigenvalues --  -10.27049 -10.26690 -10.26660 -10.26418 -10.26371
 Alpha  occ. eigenvalues --  -10.26194 -10.26141 -10.26137 -10.26027 -10.25977
 Alpha  occ. eigenvalues --  -10.25935 -10.25850 -10.25800 -10.25402 -10.25398
 Alpha  occ. eigenvalues --  -10.24873 -10.24790 -10.24746 -10.24728 -10.24691
 Alpha  occ. eigenvalues --  -10.24642  -3.16497  -3.16411  -1.91379  -1.91293
 Alpha  occ. eigenvalues --   -1.90965  -1.90882  -1.90807  -1.90719  -1.16639
 Alpha  occ. eigenvalues --   -1.16587  -1.08656  -1.08584  -1.07176  -1.06968
 Alpha  occ. eigenvalues --   -1.06941  -1.06596  -1.04539  -1.04496  -1.03718
 Alpha  occ. eigenvalues --   -1.03664  -1.03191  -1.03039  -1.02369  -1.02112
 Alpha  occ. eigenvalues --   -0.91987  -0.91929  -0.89495  -0.89477  -0.89151
 Alpha  occ. eigenvalues --   -0.89145  -0.88245  -0.88221  -0.87828  -0.87794
 Alpha  occ. eigenvalues --   -0.87684  -0.87631  -0.87233  -0.87121  -0.84999
 Alpha  occ. eigenvalues --   -0.84939  -0.83894  -0.83876  -0.82933  -0.82926
 Alpha  occ. eigenvalues --   -0.82653  -0.82606  -0.81594  -0.81542  -0.80553
 Alpha  occ. eigenvalues --   -0.80442  -0.78755  -0.78636  -0.77176  -0.77145
 Alpha  occ. eigenvalues --   -0.76898  -0.76891  -0.75880  -0.75838  -0.74857
 Alpha  occ. eigenvalues --   -0.74804  -0.72732  -0.72699  -0.71630  -0.71582
 Alpha  occ. eigenvalues --   -0.69865  -0.69757  -0.68831  -0.68827  -0.67602
 Alpha  occ. eigenvalues --   -0.67599  -0.67199  -0.67177  -0.65271  -0.65243
 Alpha  occ. eigenvalues --   -0.64811  -0.64770  -0.64653  -0.64578  -0.64227
 Alpha  occ. eigenvalues --   -0.64204  -0.62276  -0.62253  -0.60401  -0.60341
 Alpha  occ. eigenvalues --   -0.59797  -0.59762  -0.58993  -0.58945  -0.58461
 Alpha  occ. eigenvalues --   -0.58425  -0.57553  -0.57541  -0.57266  -0.57237
 Alpha  occ. eigenvalues --   -0.56268  -0.56204  -0.55934  -0.55884  -0.55478
 Alpha  occ. eigenvalues --   -0.55452  -0.55297  -0.55247  -0.54487  -0.54480
 Alpha  occ. eigenvalues --   -0.53912  -0.53852  -0.53257  -0.53228  -0.53180
 Alpha  occ. eigenvalues --   -0.53141  -0.52901  -0.52871  -0.52715  -0.52669
 Alpha  occ. eigenvalues --   -0.52400  -0.52395  -0.51884  -0.51872  -0.51658
 Alpha  occ. eigenvalues --   -0.51574  -0.51201  -0.51153  -0.50532  -0.50477
 Alpha  occ. eigenvalues --   -0.49990  -0.49981  -0.49877  -0.49868  -0.49488
 Alpha  occ. eigenvalues --   -0.49473  -0.49202  -0.49172  -0.49104  -0.49054
 Alpha  occ. eigenvalues --   -0.48558  -0.48550  -0.48420  -0.48403  -0.48377
 Alpha  occ. eigenvalues --   -0.48340  -0.47653  -0.47595  -0.47255  -0.47119
 Alpha  occ. eigenvalues --   -0.46755  -0.46709  -0.46554  -0.46512  -0.46317
 Alpha  occ. eigenvalues --   -0.46271  -0.46120  -0.46086  -0.45821  -0.45778
 Alpha  occ. eigenvalues --   -0.45210  -0.45160  -0.44535  -0.44514  -0.44476
 Alpha  occ. eigenvalues --   -0.44465  -0.44127  -0.44102  -0.44078  -0.44046
 Alpha  occ. eigenvalues --   -0.43977  -0.43939  -0.43551  -0.43451  -0.43386
 Alpha  occ. eigenvalues --   -0.43343  -0.42985  -0.42928  -0.42900  -0.42655
 Alpha  occ. eigenvalues --   -0.42611  -0.42554  -0.41966  -0.41963  -0.41669
 Alpha  occ. eigenvalues --   -0.41661  -0.41491  -0.41458  -0.41099  -0.40990
 Alpha  occ. eigenvalues --   -0.40827  -0.40782  -0.40723  -0.40698  -0.40529
 Alpha  occ. eigenvalues --   -0.40494  -0.40226  -0.40190  -0.39425  -0.39398
 Alpha  occ. eigenvalues --   -0.38427  -0.38351  -0.37705  -0.37653  -0.37278
 Alpha  occ. eigenvalues --   -0.37266  -0.37220  -0.37199  -0.36768  -0.36668
 Alpha  occ. eigenvalues --   -0.36217  -0.36149  -0.34254  -0.34243  -0.33858
 Alpha  occ. eigenvalues --   -0.33725  -0.33176  -0.33144  -0.31304  -0.31275
 Alpha  occ. eigenvalues --   -0.30993  -0.30973  -0.29985  -0.29954  -0.29407
 Alpha  occ. eigenvalues --   -0.29328  -0.29279  -0.29212  -0.24038  -0.24037
 Alpha  occ. eigenvalues --   -0.21118  -0.21085
 Alpha virt. eigenvalues --   -0.08793  -0.08732  -0.01708  -0.01684  -0.00030
 Alpha virt. eigenvalues --   -0.00016   0.02207   0.02243   0.03169   0.03228
 Alpha virt. eigenvalues --    0.04730   0.04761   0.05144   0.05169   0.06185

 Mulliken charges:
               1
     1  Mg   0.838858
     2  C   -0.002973
     3  C   -0.094111
     4  C   -0.045895
     5  C   -0.063966
     6  N   -0.256795
     7  C   -0.052441
     8  C   -0.014025
     9  C   -0.087015
    10  C    0.046355
    11  C    0.104821
    12  C    0.053465
    13  C   -0.071820
    14  H    0.036203
    15  N   -0.433145
    16  C    0.168416
    17  C   -0.177156
    18  C   -0.004021
    19  C    0.148717
    20  C    0.110178
    21  C    0.012290
    22  O   -0.249661
    23  C    0.062474
    24  N   -0.341172
    25  C    0.041246
    26  C   -0.028159
    27  C   -0.023965
    28  C    0.074853
    29  C    0.076182
    30  C    0.035113
    31  C   -0.004498
    32  N   -0.310487
    33  C    0.080443
    34  C   -0.169688
    35  C    0.008355
    36  C    0.083024
    37  C    0.127301
    38  C    0.046145
    39  O   -0.188413
    40  C   -0.005343
    41  C    0.212878
    42  O   -0.257036
    43  O   -0.304826
    44  C    0.157678
    45  H   -0.017636
    46  H   -0.016869
    47  H   -0.041489
    48  H    0.000926
    49  H   -0.004031
    50  H    0.025456
    51  H    0.016421
    52  H    0.016624
    53  H    0.011234
    54  H    0.044171
    55  H    0.017829
    56  H    0.017944
    57  H    0.005865
    58  H    0.026773
    59  H    0.039571
    60  H    0.037310
    61  H    0.035611
    62  H    0.031543
    63  H    0.016555
    64  H    0.009425
    65  H    0.023172
    66  H    0.012517
    67  H    0.004719
    68  H    0.006330
    69  H    0.004743
    70  H    0.008765
    71  H    0.018213
    72  H    0.029012
    73  H    0.047623
    74  H    0.009122
    75  H    0.045970
    76  H    0.035118
    77  H    0.042933
    78  H    0.046393
    79  H    0.053753
    80  Mg   0.837901
    81  C   -0.016803
    82  C   -0.087774
    83  C   -0.045509
    84  C   -0.064878
    85  N   -0.254552
    86  C   -0.049839
    87  C   -0.015088
    88  C   -0.090493
    89  C    0.045744
    90  C    0.114383
    91  C    0.062508
    92  C   -0.077923
    93  H    0.034983
    94  N   -0.423497
    95  C    0.162908
    96  C   -0.174640
    97  C   -0.007805
    98  C    0.152129
    99  C    0.099382
   100  C    0.015579
   101  O   -0.253201
   102  C    0.061192
   103  N   -0.350090
   104  C    0.037533
   105  C   -0.019838
   106  C   -0.034836
   107  C    0.088951
   108  C    0.073669
   109  C    0.034742
   110  C   -0.007693
   111  N   -0.324119
   112  C    0.078441
   113  C   -0.163094
   114  C    0.002257
   115  C    0.096209
   116  C    0.131479
   117  C    0.042408
   118  O   -0.187829
   119  C    0.000927
   120  C    0.211266
   121  O   -0.250950
   122  O   -0.305662
   123  C    0.152004
   124  H   -0.019674
   125  H   -0.015589
   126  H   -0.040430
   127  H   -0.000654
   128  H   -0.004311
   129  H    0.022448
   130  H    0.014401
   131  H    0.016276
   132  H    0.013937
   133  H    0.037718
   134  H    0.020766
   135  H    0.019593
   136  H    0.008761
   137  H    0.026116
   138  H    0.039812
   139  H    0.038234
   140  H    0.036378
   141  H    0.033927
   142  H    0.014413
   143  H    0.012401
   144  H    0.025126
   145  H    0.011612
   146  H    0.005657
   147  H    0.006252
   148  H    0.003680
   149  H    0.010923
   150  H    0.018024
   151  H    0.030119
   152  H    0.046081
   153  H    0.008542
   154  H    0.046913
   155  H    0.035003
   156  H    0.043926
   157  H    0.049490
   158  H    0.053649
 Sum of Mulliken charges =  -0.00000

 Dipole moment (field-independent basis, Debye):
    X=              0.0739    Y=             -0.2312    Z=              7.4785  Tot=              7.4824
 Quadrupole moment (field-independent basis, Debye-Ang):
   XX=           -380.6052   YY=           -461.0015   ZZ=           -539.6286
   XY=             54.6367   XZ=              0.7583   YZ=              0.9909

 Normal termination of Gaussian 16 at Sun Sep 12 12:25:48 2021.
