 Gaussian 16, Revision A.03,
 Gaussian 16:  ES64L-G16RevA.03 25-Dec-2016

 -----------------------------------
 #p cam-b3lyp/Def2SVP td=(nstates=5)
 -----------------------------------

 --------------------------------
 TDDFT excited states in gaussian
 --------------------------------
 Symbolic Z-matrix:
 Charge =  0 Multiplicity = 1

                         Standard orientation:
 ---------------------------------------------------------------------
 Center     Atomic      Atomic             Coordinates (Angstroms)
 Number     Number       Type             X           Y           Z
 ---------------------------------------------------------------------
      1         12           0        3.906801   -0.535738    0.315112
      2          6           0        4.084862    2.763579   -1.061482
      3          6           0        4.405119    0.877335    3.380723
      4          6           0        4.206929   -3.463765    1.495454
      5          6           0        4.555932   -1.747450   -2.887393
      6          7           0        4.192817    1.565472    0.950530
      7          6           0        4.180211    2.741958    0.331747
      8          6           0        4.201808    3.954630    1.309671
      9          6           0        4.866575    3.246559    2.574075
     10          6           0        4.433702    1.815802    2.306715
     11          6           0        6.390678    3.306641    2.574678
     12          6           0        2.763566    4.479723    1.637492
     13          6           0        2.707757    5.851075    2.316928
     14          1           0        1.613475    6.751821    1.987457
     15          7           0        3.770496   -1.187516    2.175074
     16          6           0        3.991583   -0.470178    3.302829
     17          6           0        3.763209   -1.400760    4.429126
     18          6           0        3.576950   -2.765040    3.861552
     19          6           0        3.873878   -2.527998    2.471939
     20          6           0        3.690870   -0.960024    5.858905
     21          6           0        3.202606   -4.076665    4.476075
     22          8           0        3.322796   -5.182261    3.845373
     23          6           0        2.769328   -4.042343    5.884668
     24          7           0        4.538066   -2.343840   -0.515494
     25          6           0        4.516997   -3.475360    0.197390
     26          6           0        4.737940   -4.674922   -0.675635
     27          6           0        4.672954   -4.144540   -2.180369
     28          6           0        4.497226   -2.633443   -1.890580
     29          6           0        6.057248   -5.428213   -0.456574
     30          6           0        3.660253   -4.836702   -3.126818
     31          6           0        2.248214   -4.524419   -2.684409
     32          7           0        4.086359    0.313171   -1.674399
     33          6           0        4.382901   -0.373692   -2.860551
     34          6           0        4.505060    0.637753   -3.926443
     35          6           0        4.286041    1.852058   -3.278880
     36          6           0        4.068486    1.616372   -1.891287
     37          6           0        4.842486    0.380643   -5.284557
     38          6           0        4.209599    3.295864   -3.431973
     39          8           0        4.218717    4.067783   -4.391948
     40          6           0        4.197170    3.953547   -1.981758
     41          6           0        3.089492    4.971177   -1.953677
     42          8           0        1.894874    4.618761   -2.031508
     43          8           0        3.591564    6.165215   -1.603335
     44          6           0        2.539543    7.213885   -1.527864
     45          1           0        4.788620    1.180510    4.356916
     46          1           0        4.211764   -4.499909    1.840155
     47          1           0        4.673437   -2.057914   -3.927229
     48          1           0        4.820447    4.790781    0.983233
     49          1           0        4.439464    3.602828    3.511290
     50          1           0        6.773695    3.714104    1.639161
     51          1           0        6.722522    2.276450    2.705369
     52          1           0        6.756491    3.851976    3.445062
     53          1           0        2.327174    3.864813    2.424581
     54          1           0        2.145118    4.496894    0.739409
     55          1           0        3.664101    6.370052    2.246381
     56          1           0        2.561465    5.696842    3.386045
     57          1           0        4.030450    0.068015    5.978766
     58          1           0        4.419062   -1.552863    6.412066
     59          1           0        2.697915   -1.107257    6.283987
     60          1           0        3.568097   -3.623001    6.496769
     61          1           0        2.456537   -5.057165    6.127872
     62          1           0        1.922629   -3.361537    5.977151
     63          1           0        3.955823   -5.417840   -0.524664
     64          1           0        5.629754   -4.248950   -2.692528
     65          1           0        5.924251   -6.482798   -0.213947
     66          1           0        6.612990   -4.913755    0.326864
     67          1           0        6.757656   -5.375163   -1.289659
     68          1           0        3.778347   -5.918845   -3.082471
     69          1           0        3.768144   -4.533714   -4.168359
     70          1           0        2.068368   -5.263559   -1.904563
     71          1           0        1.552179   -4.654633   -3.513740
     72          1           0        2.184846   -3.539714   -2.220915
     73          1           0        4.170074    0.991471   -5.886819
     74          1           0        4.738832   -0.677235   -5.524878
     75          1           0        5.880372    0.712870   -5.301136
     76          1           0        5.175879    4.409623   -1.835999
     77          1           0        2.847729    8.025721   -2.186786
     78          1           0        2.406039    7.443354   -0.470544
     79          1           0        1.570763    6.956600   -1.957525
     80         12           0       -3.988326   -0.931920   -0.479456
     81          6           0       -4.060354    2.497085    0.576847
     82          6           0       -3.394374   -1.765993    2.774171
     83          6           0       -3.472192   -3.911226   -1.441136
     84          6           0       -3.447746    0.223339   -3.722733
     85          7           0       -3.776955    0.296144    1.347945
     86          6           0       -3.885009    1.584086    1.637561
     87          6           0       -3.880787    1.904347    3.156439
     88          6           0       -3.103361    0.598520    3.675368
     89          6           0       -3.471639   -0.367931    2.551533
     90          6           0       -1.592671    0.762866    3.688095
     91          6           0       -5.329274    1.985903    3.754141
     92          6           0       -5.413551    2.596466    5.154804
     93          1           0       -6.577046    3.413102    5.489254
     94          7           0       -3.990980   -2.631081    0.545925
     95          6           0       -3.752157   -2.785776    1.865130
     96          6           0       -3.851670   -4.230264    2.125346
     97          6           0       -4.005838   -4.932125    0.822136
     98          6           0       -3.803691   -3.829712   -0.096516
     99          6           0       -3.877193   -4.807641    3.510774
    100          6           0       -4.276139   -6.361621    0.462063
    101          8           0       -4.133601   -6.792601   -0.736589
    102          6           0       -4.622157   -7.262844    1.570924
    103          7           0       -3.317284   -1.737818   -2.274613
    104          6           0       -3.233278   -3.068753   -2.446369
    105          6           0       -2.993604   -3.417641   -3.895926
    106          6           0       -3.175941   -2.049102   -4.703030
    107          6           0       -3.411960   -1.086332   -3.518645
    108          6           0       -1.626063   -4.019749   -4.217912
    109          6           0       -4.201602   -2.051285   -5.869514
    110          6           0       -5.602561   -2.211862   -5.324624
    111          7           0       -3.969489    0.992051   -1.462329
    112          6           0       -3.695666    1.252134   -2.823008
    113          6           0       -3.687474    2.719638   -2.992685
    114          6           0       -3.936292    3.215872   -1.704149
    115          6           0       -4.068732    2.134409   -0.791790
    116          6           0       -3.422843    3.415300   -4.206003
    117          6           0       -4.106465    4.408878   -0.906366
    118          8           0       -4.184441    5.612489   -1.149219
    119          6           0       -4.068740    3.999685    0.629060
    120          6           0       -5.226034    4.670393    1.317064
    121          8           0       -6.396357    4.363076    1.029853
    122          8           0       -4.762664    5.401214    2.347392
    123          6           0       -5.874409    6.077064    3.067865
    124          1           0       -2.981082   -2.118736    3.719497
    125          1           0       -3.392263   -4.922508   -1.846593
    126          1           0       -3.383860    0.660462   -4.721497
    127          1           0       -3.332103    2.797326    3.430872
    128          1           0       -3.504421    0.250936    4.623885
    129          1           0       -1.284676    1.692368    3.232784
    130          1           0       -1.200512   -0.078830    3.132398
    131          1           0       -1.210391    0.655589    4.707253
    132          1           0       -5.685187    0.970320    3.970151
    133          1           0       -5.986347    2.513012    3.090033
    134          1           0       -4.487790    3.113253    5.435572
    135          1           0       -5.499054    1.785589    5.882250
    136          1           0       -3.580066   -4.065054    4.261565
    137          1           0       -3.090170   -5.568250    3.554746
    138          1           0       -4.833817   -5.274394    3.755020
    139          1           0       -3.815743   -7.264018    2.300416
    140          1           0       -4.866734   -8.219253    1.104745
    141          1           0       -5.507236   -6.866337    2.080857
    142          1           0       -3.726451   -4.133389   -4.247690
    143          1           0       -2.239040   -1.731814   -5.184040
    144          1           0       -1.689464   -5.008588   -4.710082
    145          1           0       -1.058276   -4.087822   -3.299470
    146          1           0       -0.983750   -3.399939   -4.841191
    147          1           0       -4.024771   -2.905496   -6.527690
    148          1           0       -4.159580   -1.157694   -6.483291
    149          1           0       -5.693844   -3.294270   -5.193637
    150          1           0       -6.335627   -1.837180   -6.036159
    151          1           0       -5.694893   -1.751032   -4.334283
    152          1           0       -4.151630    4.212067   -4.273376
    153          1           0       -3.478609    2.750715   -5.065642
    154          1           0       -2.401585    3.756457   -4.016470
    155          1           0       -3.108724    4.325364    1.031393
    156          1           0       -5.643734    7.146798    3.079831
    157          1           0       -5.949812    5.567049    4.046614
    158          1           0       -6.850447    6.076435    2.596923
 ---------------------------------------------------------------------

 SCF Done:  E(RCAM-B3LYP) =  -4069.81187421     A.U. after   19 cycles

 Excitation energies and oscillator strengths:

 Excited State   1:      Singlet-A      1.6438 eV  754.24 nm  f=0.0781  <S**2>=0.000
     309 -> 315       -0.11593
     310 -> 316        0.11817
     311 -> 313        0.48013
     312 -> 314        0.49219
 This state for optimization and/or second-order correction.
 Total Energy, E(TD-HF/TD-DFT) =  -4069.75146495
 Copying the excited state density for this state as the 1-particle RhoCI density.

 Excited State   2:      Singlet-A      1.7017 eV  728.57 nm  f=0.5821  <S**2>=0.000
     309 -> 315       -0.12934
     310 -> 316       -0.12650
     311 -> 313        0.48950
     312 -> 314       -0.47779

 Excited State   3:      Singlet-A      2.1818 eV  568.27 nm  f=0.0289  <S**2>=0.000
     309 -> 313       -0.41725
     310 -> 314        0.49126
     311 -> 315       -0.17346
     312 -> 316       -0.20554

 Excited State   4:      Singlet-A      2.1938 eV  565.16 nm  f=0.1524  <S**2>=0.000
     309 -> 313        0.48718
     310 -> 314        0.41279
     311 -> 315        0.21407
     312 -> 316       -0.18263

 Excited State   5:      Singlet-A      2.2338 eV  555.03 nm  f=0.0000  <S**2>=0.000
     312 -> 313        0.70707

 The electronic state is 1-A.
 Alpha  occ. eigenvalues --  -46.87905 -46.87404 -19.26240 -19.26213 -19.19013
 Alpha  occ. eigenvalues --  -19.19005 -19.18988 -19.18461 -19.18260 -19.17763
 Alpha  occ. eigenvalues --  -14.42558 -14.42259 -14.41551 -14.41108 -14.39524
 Alpha  occ. eigenvalues --  -14.39092 -14.38694 -14.38313 -10.39055 -10.38933
 Alpha  occ. eigenvalues --  -10.35645 -10.35141 -10.34472 -10.33943 -10.31700
 Alpha  occ. eigenvalues --  -10.31511 -10.31504 -10.31064 -10.31019 -10.30819
 Alpha  occ. eigenvalues --  -10.30684 -10.30621 -10.30325 -10.30105 -10.30067
 Alpha  occ. eigenvalues --  -10.30010 -10.29898 -10.29762 -10.29621 -10.29389
 Alpha  occ. eigenvalues --  -10.29165 -10.29100 -10.28826 -10.28630 -10.28600
 Alpha  occ. eigenvalues --  -10.28542 -10.28480 -10.28206 -10.28142 -10.28027
 Alpha  occ. eigenvalues --  -10.27921 -10.27844 -10.27728 -10.27701 -10.27699
 Alpha  occ. eigenvalues --  -10.27576 -10.27513 -10.27502 -10.27435 -10.27296
 Alpha  occ. eigenvalues --  -10.27233 -10.27227 -10.27208 -10.27183 -10.27177
 Alpha  occ. eigenvalues --  -10.26807 -10.26775 -10.26699 -10.26605 -10.26313
 Alpha  occ. eigenvalues --  -10.26234 -10.26184 -10.26132 -10.25980 -10.25976
 Alpha  occ. eigenvalues --  -10.25935 -10.25654 -10.25496 -10.25310 -10.25267
 Alpha  occ. eigenvalues --  -10.24952 -10.24890 -10.24706 -10.24551 -10.24541
 Alpha  occ. eigenvalues --  -10.24436  -3.16647  -3.16154  -1.91528  -1.91115
 Alpha  occ. eigenvalues --   -1.91037  -1.90958  -1.90626  -1.90461  -1.16571
 Alpha  occ. eigenvalues --   -1.16524  -1.08707  -1.08374  -1.07408  -1.06796
 Alpha  occ. eigenvalues --   -1.06716  -1.06609  -1.04689  -1.04259  -1.03866
 Alpha  occ. eigenvalues --   -1.03407  -1.03349  -1.02770  -1.02521  -1.01841
 Alpha  occ. eigenvalues --   -0.92064  -0.91728  -0.89605  -0.89272  -0.89253
 Alpha  occ. eigenvalues --   -0.89016  -0.88367  -0.88001  -0.87994  -0.87778
 Alpha  occ. eigenvalues --   -0.87485  -0.87450  -0.87392  -0.86853  -0.85072
 Alpha  occ. eigenvalues --   -0.84832  -0.84002  -0.83667  -0.83156  -0.82732
 Alpha  occ. eigenvalues --   -0.82698  -0.82472  -0.81611  -0.81393  -0.80673
 Alpha  occ. eigenvalues --   -0.80220  -0.78949  -0.78350  -0.77315  -0.76982
 Alpha  occ. eigenvalues --   -0.76939  -0.76728  -0.75983  -0.75649  -0.74967
 Alpha  occ. eigenvalues --   -0.74610  -0.72885  -0.72416  -0.71758  -0.71377
 Alpha  occ. eigenvalues --   -0.69974  -0.69551  -0.68971  -0.68644  -0.67751
 Alpha  occ. eigenvalues --   -0.67361  -0.67323  -0.67022  -0.65366  -0.65099
 Alpha  occ. eigenvalues --   -0.64930  -0.64685  -0.64536  -0.64459  -0.64349
 Alpha  occ. eigenvalues --   -0.63980  -0.62297  -0.62096  -0.60588  -0.60087
 Alpha  occ. eigenvalues --   -0.59901  -0.59610  -0.59080  -0.58751  -0.58596
 Alpha  occ. eigenvalues --   -0.58189  -0.57640  -0.57392  -0.57315  -0.56993
 Alpha  occ. eigenvalues --   -0.56433  -0.55977  -0.55938  -0.55726  -0.55646
 Alpha  occ. eigenvalues --   -0.55389  -0.55223  -0.55038  -0.54553  -0.54306
 Alpha  occ. eigenvalues --   -0.53978  -0.53773  -0.53438  -0.53329  -0.52998
 Alpha  occ. eigenvalues --   -0.52977  -0.52940  -0.52887  -0.52717  -0.52497
 Alpha  occ. eigenvalues --   -0.52449  -0.52190  -0.52031  -0.51720  -0.51491
 Alpha  occ. eigenvalues --   -0.51426  -0.51270  -0.50961  -0.50790  -0.50249
 Alpha  occ. eigenvalues --   -0.50126  -0.50071  -0.49795  -0.49657  -0.49628
 Alpha  occ. eigenvalues --   -0.49323  -0.49275  -0.49179  -0.49002  -0.48876
 Alpha  occ. eigenvalues --   -0.48656  -0.48612  -0.48517  -0.48345  -0.48166
 Alpha  occ. eigenvalues --   -0.48103  -0.47797  -0.47404  -0.47395  -0.46902
 Alpha  occ. eigenvalues --   -0.46886  -0.46638  -0.46494  -0.46461  -0.46390
 Alpha  occ. eigenvalues --   -0.46232  -0.46024  -0.45877  -0.45824  -0.45569
 Alpha  occ. eigenvalues --   -0.45302  -0.44998  -0.44679  -0.44618  -0.44353
 Alpha  occ. eigenvalues --   -0.44247  -0.44232  -0.44181  -0.44107  -0.43925
 Alpha  occ. eigenvalues --   -0.43856  -0.43703  -0.43533  -0.43476  -0.43374
 Alpha  occ. eigenvalues --   -0.43196  -0.43112  -0.42757  -0.42748  -0.42657
 Alpha  occ. eigenvalues --   -0.42611  -0.42330  -0.42072  -0.41798  -0.41763
 Alpha  occ. eigenvalues --   -0.41612  -0.41431  -0.41284  -0.41231  -0.41007
 Alpha  occ. eigenvalues --   -0.40932  -0.40795  -0.40643  -0.40545  -0.40515
 Alpha  occ. eigenvalues --   -0.40316  -0.40286  -0.40094  -0.39490  -0.39207
 Alpha  occ. eigenvalues --   -0.38540  -0.38161  -0.37813  -0.37526  -0.37407
 Alpha  occ. eigenvalues --   -0.37345  -0.37041  -0.36989  -0.36720  -0.36619
 Alpha  occ. eigenvalues --   -0.36229  -0.36009  -0.34390  -0.33999  -0.33767
 Alpha  occ. eigenvalues --   -0.33689  -0.33283  -0.32913  -0.31529  -0.31138
 Alpha  occ. eigenvalues --   -0.31025  -0.30726  -0.30112  -0.29674  -0.29593
 Alpha  occ. eigenvalues --   -0.29441  -0.29044  -0.28878  -0.24185  -0.23774
 Alpha  occ. eigenvalues --   -0.21243  -0.20849
 Alpha virt. eigenvalues --   -0.08899  -0.08511  -0.01865  -0.01431  -0.00208
 Alpha virt. eigenvalues --    0.00225   0.02089   0.02396   0.02611   0.03591
 Alpha virt. eigenvalues --    0.04636   0.04952   0.05106   0.05335   0.06127

 Mulliken charges:
               1
     1  Mg   0.838717
     2  C   -0.002499
     3  C   -0.094921
     4  C   -0.045279
     5  C   -0.064394
     6  N   -0.256774
     7  C   -0.052296
     8  C   -0.013831
     9  C   -0.086803
    10  C    0.046112
    11  C    0.104816
    12  C    0.053366
    13  C   -0.073186
    14  H    0.040076
    15  N   -0.433206
    16  C    0.168089
    17  C   -0.178353
    18  C   -0.004863
    19  C    0.149053
    20  C    0.110308
    21  C    0.011363
    22  O   -0.249131
    23  C    0.063298
    24  N   -0.341285
    25  C    0.041322
    26  C   -0.028531
    27  C   -0.024528
    28  C    0.075589
    29  C    0.076104
    30  C    0.038904
    31  C   -0.013756
    32  N   -0.310672
    33  C    0.080999
    34  C   -0.170285
    35  C    0.008471
    36  C    0.083446
    37  C    0.127406
    38  C    0.045936
    39  O   -0.187715
    40  C   -0.005218
    41  C    0.212810
    42  O   -0.256804
    43  O   -0.305286
    44  C    0.156521
    45  H   -0.017826
    46  H   -0.016694
    47  H   -0.041603
    48  H    0.001598
    49  H   -0.004475
    50  H    0.025757
    51  H    0.016356
    52  H    0.016749
    53  H    0.008971
    54  H    0.045233
    55  H    0.018124
    56  H    0.016688
    57  H    0.006031
    58  H    0.027172
    59  H    0.036554
    60  H    0.038143
    61  H    0.034976
    62  H    0.028025
    63  H    0.017506
    64  H    0.009619
    65  H    0.023561
    66  H    0.012355
    67  H    0.004867
    68  H    0.006917
    69  H    0.003031
    70  H    0.012046
    71  H    0.022660
    72  H    0.029272
    73  H    0.047107
    74  H    0.008870
    75  H    0.046593
    76  H    0.035379
    77  H    0.043232
    78  H    0.046705
    79  H    0.057024
    80  Mg   0.837215
    81  C   -0.016105
    82  C   -0.087864
    83  C   -0.044924
    84  C   -0.062195
    85  N   -0.254422
    86  C   -0.049730
    87  C   -0.014807
    88  C   -0.090947
    89  C    0.045347
    90  C    0.114033
    91  C    0.062783
    92  C   -0.077254
    93  H    0.034447
    94  N   -0.423488
    95  C    0.162259
    96  C   -0.174185
    97  C   -0.007779
    98  C    0.151331
    99  C    0.099145
   100  C    0.015662
   101  O   -0.254176
   102  C    0.061107
   103  N   -0.349906
   104  C    0.035659
   105  C   -0.014005
   106  C   -0.035788
   107  C    0.089086
   108  C    0.062692
   109  C    0.034668
   110  C   -0.007388
   111  N   -0.325084
   112  C    0.078991
   113  C   -0.157799
   114  C    0.004682
   115  C    0.096432
   116  C    0.128512
   117  C    0.045428
   118  O   -0.188543
   119  C   -0.000080
   120  C    0.210733
   121  O   -0.251214
   122  O   -0.306085
   123  C    0.152245
   124  H   -0.021893
   125  H   -0.016355
   126  H   -0.039017
   127  H   -0.001991
   128  H   -0.005812
   129  H    0.023090
   130  H    0.016857
   131  H    0.011721
   132  H    0.014046
   133  H    0.037888
   134  H    0.019380
   135  H    0.018963
   136  H    0.006800
   137  H    0.027523
   138  H    0.038711
   139  H    0.039160
   140  H    0.035602
   141  H    0.033190
   142  H    0.013213
   143  H    0.013619
   144  H    0.023575
   145  H    0.018464
   146  H    0.005786
   147  H    0.005316
   148  H    0.004341
   149  H    0.010447
   150  H    0.017628
   151  H    0.030328
   152  H    0.043922
   153  H    0.007334
   154  H    0.058679
   155  H    0.035853
   156  H    0.042946
   157  H    0.048790
   158  H    0.053593
 Sum of Mulliken charges =  -0.00000

 Dipole moment (field-independent basis, Debye):
    X=              3.4983    Y=             -1.6423    Z=              7.0285  Tot=              8.0209
 Quadrupole moment (field-independent basis, Debye-Ang):
   XX=           -519.7457   YY=           -537.9315   ZZ=           -461.0677
   XY=             12.2241   XZ=             -3.7840   YZ=             36.2301

 Normal termination of Gaussian 16 at Thu Sep  9 04:59:30 2021.
