 Gaussian 16, Revision A.03,
 Gaussian 16:  ES64L-G16RevA.03 25-Dec-2016

 -----------------------------------
 #p cam-b3lyp/Def2SVP td=(nstates=5)
 -----------------------------------

 --------------------------------
 TDDFT excited states in gaussian
 --------------------------------
 Symbolic Z-matrix:
 Charge =  0 Multiplicity = 1

                         Standard orientation:
 ---------------------------------------------------------------------
 Center     Atomic      Atomic             Coordinates (Angstroms)
 Number     Number       Type             X           Y           Z
 ---------------------------------------------------------------------
      1         12           0       15.779540   -0.714136    0.375924
      2          6           0       16.088455    2.066142   -1.857200
      3          6           0       16.757057    1.382712    2.884062
      4          6           0       15.953721   -3.246038    2.277438
      5          6           0       15.938913   -2.788340   -2.420134
      6          7           0       16.323969    1.431585    0.387166
      7          6           0       16.343883    2.398470   -0.524924
      8          6           0       16.587703    3.813427    0.079908
      9          6           0       17.330135    3.387663    1.425091
     10          6           0       16.743237    1.997723    1.596971
     11          6           0       18.843088    3.266749    1.273919
     12          6           0       15.250234    4.570782    0.378778
     13          6           0       15.396694    6.068809    0.661295
     14          1           0       14.355988    6.973926    0.197566
     15          7           0       15.804320   -0.836384    2.347545
     16          6           0       16.218873    0.119791    3.213087
     17          6           0       16.041894   -0.450579    4.565875
     18          6           0       15.669719   -1.884217    4.410111
     19          6           0       15.821915   -2.055187    2.987795
     20          6           0       16.176918    0.353935    5.822170
     21          6           0       15.254527   -2.936337    5.389290
     22          8           0       15.201124   -4.174555    5.075382
     23          6           0       14.993855   -2.484434    6.768013
     24          7           0       16.145686   -2.737573    0.016375
     25          6           0       16.107481   -3.632829    1.009370
     26          6           0       16.117006   -5.036232    0.479928
     27          6           0       15.923882   -4.913834   -1.100412
     28          6           0       15.918576   -3.369726   -1.218616
     29          6           0       17.380506   -5.855312    0.777731
     30          6           0       14.749781   -5.705707   -1.728777
     31          6           0       13.432686   -5.125359   -1.264502
     32          7           0       15.799942   -0.441956   -1.777340
     33          6           0       15.893271   -1.444868   -2.753112
     34          6           0       15.979461   -0.768786   -4.060610
     35          6           0       15.946766    0.589576   -3.751369
     36          6           0       15.872964    0.752014   -2.338408
     37          6           0       16.131385   -1.409706   -5.321790
     38          6           0       15.981846    1.941799   -4.284398
     39          8           0       15.947284    2.429335   -5.415153
     40          6           0       16.197844    2.952487   -3.072918
     41          6           0       15.196141    4.064628   -3.224711
     42          8           0       13.974014    3.846656   -3.097201
     43          8           0       15.840110    5.241355   -3.258776
     44          6           0       14.901769    6.389102   -3.378561
     45          1           0       17.277630    1.883427    3.702737
     46          1           0       15.906548   -4.149204    2.889404
     47          1           0       15.905801   -3.371397   -3.342306
     48          1           0       17.235893    4.456683   -0.515488
     49          1           0       17.049079    4.024066    2.263972
     50          1           0       19.148757    3.367676    0.232622
     51          1           0       19.094854    2.275012    1.650171
     52          1           0       19.355354    3.973885    1.926851
     53          1           0       14.855922    4.238557    1.339093
     54          1           0       14.534943    4.424942   -0.431417
     55          1           0       16.380611    6.435499    0.367435
     56          1           0       15.363366    6.217677    1.740614
     57          1           0       16.618403    1.330413    5.626915
     58          1           0       16.909118   -0.154796    6.448896
     59          1           0       15.231389    0.440380    6.357740
     60          1           0       15.892922   -2.016276    7.169330
     61          1           0       14.622532   -3.356477    7.305145
     62          1           0       14.227828   -1.708750    6.746457
     63          1           0       15.294886   -5.616872    0.896344
     64          1           0       16.801043   -5.259900   -1.647678
     65          1           0       17.183412   -6.786675    1.309164
     66          1           0       18.067710   -5.222749    1.338895
     67          1           0       17.980533   -6.104364   -0.097116
     68          1           0       14.775390   -6.744738   -1.402117
     69          1           0       14.761604   -5.700347   -2.818769
     70          1           0       13.280216   -5.608568   -0.300088
     71          1           0       12.635568   -5.385338   -1.961801
     72          1           0       13.511958   -4.053336   -1.082926
     73          1           0       15.450215   -0.903114   -6.005413
     74          1           0       15.906505   -2.473915   -5.254781
     75          1           0       17.185638   -1.217387   -5.520336
     76          1           0       17.223593    3.312837   -3.144394
     77          1           0       15.201809    6.958529   -4.258313
     78          1           0       14.913888    6.901004   -2.416161
     79          1           0       13.870326    6.143827   -3.634106
     80         12           0      -15.949440    0.630138    0.530456
     81          6           0      -15.881265   -2.404501   -1.384069
     82          6           0      -15.016732    2.268487   -2.312156
     83          6           0      -15.562442    3.246089    2.283872
     84          6           0      -15.750582   -1.338859    3.399125
     85          7           0      -15.533943   -0.085088   -1.520900
     86          6           0      -15.600350   -1.251066   -2.145725
     87          6           0      -15.430899   -1.165762   -3.686372
     88          6           0      -14.612493    0.213844   -3.762241
     89          6           0      -15.106566    0.862479   -2.470790
     90          6           0      -13.107913    0.027556   -3.657930
     91          6           0      -16.806321   -1.059570   -4.433999
     92          6           0      -16.735289   -1.283420   -5.946150
     93          1           0      -17.849876   -1.961139   -6.602558
     94          7           0      -15.855374    2.537025   -0.011281
     95          6           0      -15.477766    3.024202   -1.211842
     96          6           0      -15.560014    4.488420   -1.095800
     97          6           0      -15.858388    4.830621    0.321451
     98          6           0      -15.747300    3.523504    0.937235
     99          6           0      -15.441395    5.406291   -2.277696
    100          6           0      -16.176793    6.122716    1.010865
    101          8           0      -16.166863    6.224491    2.288505
    102          6           0      -16.408959    7.287956    0.144947
    103          7           0      -15.480893    0.928087    2.533965
    104          6           0      -15.426096    2.166690    3.054338
    105          6           0      -15.345854    2.122029    4.561642
    106          6           0      -15.603013    0.594829    4.960513
    107          6           0      -15.703278   -0.022148    3.548177
    108          6           0      -14.025400    2.591684    5.171725
    109          6           0      -16.747759    0.314884    5.972372
    110          6           0      -18.083470    0.640161    5.343503
    111          7           0      -16.021114   -1.483087    0.974540
    112          6           0      -15.892665   -2.093283    2.241529
    113          6           0      -15.891331   -3.554333    2.022971
    114          6           0      -15.996780   -3.693568    0.630861
    115          6           0      -16.039076   -2.409749    0.022993
    116          6           0      -15.752859   -4.546593    3.034097
    117          6           0      -16.071231   -4.634622   -0.463478
    118          8           0      -16.165442   -5.858136   -0.552165
    119          6           0      -15.872361   -3.841446   -1.826463
    120          6           0      -16.944022   -4.286544   -2.783512
    121          8           0      -18.140737   -4.040511   -2.551262
    122          8           0      -16.367266   -4.733930   -3.913806
    123          6           0      -17.390123   -5.176499   -4.898550
    124          1           0      -14.507255    2.846184   -3.083905
    125          1           0      -15.534268    4.115458    2.944841
    126          1           0      -15.790711   -2.021653    4.250507
    127          1           0      -14.849068   -1.967821   -4.124479
    128          1           0      -14.912284    0.804048   -4.624301
    129          1           0      -12.843286   -0.994414   -3.430606
    130          1           0      -12.784097    0.687779   -2.864015
    131          1           0      -12.619465    0.388067   -4.567752
    132          1           0      -17.144908   -0.015675   -4.414310
    133          1           0      -17.526675   -1.727538   -4.003267
    134          1           0      -15.780787   -1.728363   -6.252577
    135          1           0      -16.748630   -0.309825   -6.442083
    136          1           0      -15.059781    4.878325   -3.160315
    137          1           0      -14.660119    6.135931   -2.038761
    138          1           0      -16.369940    5.939955   -2.491416
    139          1           0      -15.529052    7.462094   -0.469787
    140          1           0      -16.709503    8.095220    0.815670
    141          1           0      -17.231206    7.055744   -0.541069
    142          1           0      -16.117710    2.736671    5.008372
    143          1           0      -14.720616    0.144359    5.438303
    144          1           0      -14.148840    3.419802    5.894958
    145          1           0      -13.363014    2.884394    4.367923
    146          1           0      -13.448790    1.818218    5.676191
    147          1           0      -16.649107    0.964982    6.845180
    148          1           0      -16.764817   -0.708145    6.333085
    149          1           0      -18.168577    1.721061    5.490126
    150          1           0      -18.885625    0.108576    5.851450
    151          1           0      -18.065562    0.454422    4.263305
    152          1           0      -16.478468   -5.318404    2.814342
    153          1           0      -15.905580   -4.127153    4.026322
    154          1           0      -14.714563   -4.847620    2.871047
    155          1           0      -14.872256   -4.070998   -2.196158
    156          1           0      -17.151204   -6.210878   -5.164350
    157          1           0      -17.364159   -4.428290   -5.712964
    158          1           0      -18.410987   -5.278249   -4.549377
 ---------------------------------------------------------------------

 SCF Done:  E(RCAM-B3LYP) =  -4069.81178858     A.U. after   19 cycles

 Excitation energies and oscillator strengths:

 Excited State   1:      Singlet-A      1.6756 eV  739.96 nm  f=0.3715  <S**2>=0.000
     310 -> 316        0.17298
     312 -> 313        0.68367
     310 <- 316        0.10426
 This state for optimization and/or second-order correction.
 Total Energy, E(TD-HF/TD-DFT) =  -4069.75021285
 Copying the excited state density for this state as the 1-particle RhoCI density.

 Excited State   2:      Singlet-A      1.6799 eV  738.05 nm  f=0.4048  <S**2>=0.000
     309 -> 315        0.17496
     311 -> 314        0.68332
     309 <- 315        0.10478

 Excited State   3:      Singlet-A      2.1861 eV  567.15 nm  f=0.1019  <S**2>=0.000
     310 -> 313        0.64246
     312 -> 316       -0.27308

 Excited State   4:      Singlet-A      2.1926 eV  565.47 nm  f=0.0990  <S**2>=0.000
     309 -> 314        0.64069
     311 -> 315       -0.27831

 Excited State   5:      Singlet-A      3.0661 eV  404.38 nm  f=0.0000  <S**2>=0.000
     311 -> 313        0.70711

 The electronic state is 1-A.
 Alpha  occ. eigenvalues --  -46.87796 -46.87660 -19.26346 -19.26289 -19.19158
 Alpha  occ. eigenvalues --  -19.19025 -19.18813 -19.18714 -19.18172 -19.18051
 Alpha  occ. eigenvalues --  -14.42496 -14.42450 -14.41449 -14.41359 -14.39403
 Alpha  occ. eigenvalues --  -14.39352 -14.38600 -14.38587 -10.39088 -10.39084
 Alpha  occ. eigenvalues --  -10.35446 -10.35391 -10.34392 -10.34228 -10.31752
 Alpha  occ. eigenvalues --  -10.31686 -10.31406 -10.31307 -10.31021 -10.30909
 Alpha  occ. eigenvalues --  -10.30570 -10.30508 -10.30398 -10.30360 -10.30206
 Alpha  occ. eigenvalues --  -10.30142 -10.29921 -10.29896 -10.29631 -10.29436
 Alpha  occ. eigenvalues --  -10.29400 -10.29254 -10.28750 -10.28714 -10.28647
 Alpha  occ. eigenvalues --  -10.28541 -10.28404 -10.28365 -10.28135 -10.28117
 Alpha  occ. eigenvalues --  -10.28001 -10.27793 -10.27727 -10.27668 -10.27584
 Alpha  occ. eigenvalues --  -10.27521 -10.27500 -10.27483 -10.27479 -10.27466
 Alpha  occ. eigenvalues --  -10.27462 -10.27448 -10.27404 -10.27379 -10.27161
 Alpha  occ. eigenvalues --  -10.27048 -10.26706 -10.26688 -10.26414 -10.26406
 Alpha  occ. eigenvalues --  -10.26235 -10.26182 -10.26143 -10.26019 -10.26017
 Alpha  occ. eigenvalues --  -10.25935 -10.25853 -10.25846 -10.25433 -10.25402
 Alpha  occ. eigenvalues --  -10.24872 -10.24833 -10.24787 -10.24736 -10.24690
 Alpha  occ. eigenvalues --  -10.24686  -3.16539  -3.16410  -1.91421  -1.91292
 Alpha  occ. eigenvalues --   -1.91007  -1.90881  -1.90850  -1.90718  -1.16640
 Alpha  occ. eigenvalues --   -1.16638  -1.08658  -1.08630  -1.07214  -1.06967
 Alpha  occ. eigenvalues --   -1.06943  -1.06647  -1.04581  -1.04494  -1.03760
 Alpha  occ. eigenvalues --   -1.03663  -1.03234  -1.03039  -1.02411  -1.02111
 Alpha  occ. eigenvalues --   -0.91986  -0.91973  -0.89519  -0.89496  -0.89189
 Alpha  occ. eigenvalues --   -0.89147  -0.88286  -0.88222  -0.87871  -0.87794
 Alpha  occ. eigenvalues --   -0.87683  -0.87673  -0.87273  -0.87119  -0.84997
 Alpha  occ. eigenvalues --   -0.84983  -0.83936  -0.83879  -0.82965  -0.82931
 Alpha  occ. eigenvalues --   -0.82650  -0.82649  -0.81595  -0.81588  -0.80597
 Alpha  occ. eigenvalues --   -0.80441  -0.78797  -0.78635  -0.77219  -0.77143
 Alpha  occ. eigenvalues --   -0.76935  -0.76897  -0.75924  -0.75836  -0.74898
 Alpha  occ. eigenvalues --   -0.74804  -0.72774  -0.72699  -0.71672  -0.71580
 Alpha  occ. eigenvalues --   -0.69906  -0.69761  -0.68873  -0.68825  -0.67641
 Alpha  occ. eigenvalues --   -0.67601  -0.67220  -0.67197  -0.65287  -0.65269
 Alpha  occ. eigenvalues --   -0.64855  -0.64770  -0.64652  -0.64621  -0.64269
 Alpha  occ. eigenvalues --   -0.64205  -0.62300  -0.62277  -0.60441  -0.60339
 Alpha  occ. eigenvalues --   -0.59805  -0.59794  -0.58993  -0.58988  -0.58504
 Alpha  occ. eigenvalues --   -0.58425  -0.57587  -0.57553  -0.57309  -0.57237
 Alpha  occ. eigenvalues --   -0.56310  -0.56203  -0.55982  -0.55884  -0.55520
 Alpha  occ. eigenvalues --   -0.55451  -0.55340  -0.55249  -0.54525  -0.54488
 Alpha  occ. eigenvalues --   -0.53908  -0.53896  -0.53299  -0.53227  -0.53222
 Alpha  occ. eigenvalues --   -0.53140  -0.52916  -0.52900  -0.52755  -0.52666
 Alpha  occ. eigenvalues --   -0.52437  -0.52404  -0.51916  -0.51886  -0.51655
 Alpha  occ. eigenvalues --   -0.51617  -0.51201  -0.51197  -0.50570  -0.50474
 Alpha  occ. eigenvalues --   -0.50030  -0.49978  -0.49917  -0.49869  -0.49514
 Alpha  occ. eigenvalues --   -0.49486  -0.49215  -0.49200  -0.49102  -0.49097
 Alpha  occ. eigenvalues --   -0.48594  -0.48556  -0.48461  -0.48445  -0.48378
 Alpha  occ. eigenvalues --   -0.48338  -0.47695  -0.47593  -0.47296  -0.47118
 Alpha  occ. eigenvalues --   -0.46797  -0.46709  -0.46556  -0.46551  -0.46359
 Alpha  occ. eigenvalues --   -0.46270  -0.46163  -0.46086  -0.45824  -0.45821
 Alpha  occ. eigenvalues --   -0.45210  -0.45200  -0.44579  -0.44513  -0.44506
 Alpha  occ. eigenvalues --   -0.44474  -0.44144  -0.44125  -0.44089  -0.44078
 Alpha  occ. eigenvalues --   -0.44020  -0.43938  -0.43552  -0.43497  -0.43386
 Alpha  occ. eigenvalues --   -0.43384  -0.43028  -0.42929  -0.42900  -0.42701
 Alpha  occ. eigenvalues --   -0.42656  -0.42555  -0.42010  -0.41965  -0.41705
 Alpha  occ. eigenvalues --   -0.41669  -0.41534  -0.41457  -0.41141  -0.40988
 Alpha  occ. eigenvalues --   -0.40869  -0.40821  -0.40721  -0.40697  -0.40571
 Alpha  occ. eigenvalues --   -0.40494  -0.40235  -0.40223  -0.39440  -0.39429
 Alpha  occ. eigenvalues --   -0.38468  -0.38352  -0.37749  -0.37650  -0.37320
 Alpha  occ. eigenvalues --   -0.37267  -0.37264  -0.37197  -0.36769  -0.36716
 Alpha  occ. eigenvalues --   -0.36217  -0.36194  -0.34286  -0.34253  -0.33860
 Alpha  occ. eigenvalues --   -0.33774  -0.33187  -0.33175  -0.31342  -0.31273
 Alpha  occ. eigenvalues --   -0.31036  -0.30972  -0.30031  -0.29955  -0.29449
 Alpha  occ. eigenvalues --   -0.29327  -0.29322  -0.29211  -0.24081  -0.24036
 Alpha  occ. eigenvalues --   -0.21128  -0.21117
 Alpha virt. eigenvalues --   -0.08792  -0.08774  -0.01749  -0.01684  -0.00057
 Alpha virt. eigenvalues --   -0.00028   0.02199   0.02207   0.03122   0.03226
 Alpha virt. eigenvalues --    0.04717   0.04732   0.05094   0.05168   0.06175

 Mulliken charges:
               1
     1  Mg   0.838715
     2  C   -0.002977
     3  C   -0.094134
     4  C   -0.045850
     5  C   -0.063940
     6  N   -0.256781
     7  C   -0.052462
     8  C   -0.014028
     9  C   -0.086994
    10  C    0.046330
    11  C    0.104812
    12  C    0.053461
    13  C   -0.071803
    14  H    0.036092
    15  N   -0.433142
    16  C    0.168445
    17  C   -0.177140
    18  C   -0.003977
    19  C    0.148711
    20  C    0.110179
    21  C    0.012293
    22  O   -0.249585
    23  C    0.062470
    24  N   -0.341138
    25  C    0.041259
    26  C   -0.028196
    27  C   -0.023982
    28  C    0.074823
    29  C    0.076175
    30  C    0.035141
    31  C   -0.004513
    32  N   -0.310458
    33  C    0.080389
    34  C   -0.169740
    35  C    0.008346
    36  C    0.082983
    37  C    0.127320
    38  C    0.046092
    39  O   -0.188511
    40  C   -0.005328
    41  C    0.212868
    42  O   -0.257126
    43  O   -0.304790
    44  C    0.157710
    45  H   -0.017585
    46  H   -0.016808
    47  H   -0.041506
    48  H    0.000922
    49  H   -0.004020
    50  H    0.025464
    51  H    0.016460
    52  H    0.016669
    53  H    0.011224
    54  H    0.044100
    55  H    0.017870
    56  H    0.017977
    57  H    0.005880
    58  H    0.026849
    59  H    0.039587
    60  H    0.037354
    61  H    0.035696
    62  H    0.031517
    63  H    0.016583
    64  H    0.009458
    65  H    0.023241
    66  H    0.012547
    67  H    0.004753
    68  H    0.006390
    69  H    0.004708
    70  H    0.008813
    71  H    0.018133
    72  H    0.028967
    73  H    0.047517
    74  H    0.009106
    75  H    0.045998
    76  H    0.035143
    77  H    0.042912
    78  H    0.046418
    79  H    0.053646
    80  Mg   0.837858
    81  C   -0.016815
    82  C   -0.087755
    83  C   -0.045513
    84  C   -0.064895
    85  N   -0.254578
    86  C   -0.049811
    87  C   -0.015136
    88  C   -0.090482
    89  C    0.045752
    90  C    0.114349
    91  C    0.062527
    92  C   -0.077923
    93  H    0.034906
    94  N   -0.423501
    95  C    0.162900
    96  C   -0.174587
    97  C   -0.007810
    98  C    0.152132
    99  C    0.099354
   100  C    0.015572
   101  O   -0.253206
   102  C    0.061190
   103  N   -0.350041
   104  C    0.037526
   105  C   -0.019858
   106  C   -0.034799
   107  C    0.088910
   108  C    0.073658
   109  C    0.034754
   110  C   -0.007681
   111  N   -0.324106
   112  C    0.078445
   113  C   -0.163156
   114  C    0.002249
   115  C    0.096178
   116  C    0.131496
   117  C    0.042379
   118  O   -0.187866
   119  C    0.000927
   120  C    0.211245
   121  O   -0.251027
   122  O   -0.305609
   123  C    0.152035
   124  H   -0.019571
   125  H   -0.015590
   126  H   -0.040488
   127  H   -0.000603
   128  H   -0.004280
   129  H    0.022483
   130  H    0.014438
   131  H    0.016392
   132  H    0.013914
   133  H    0.037655
   134  H    0.020839
   135  H    0.019627
   136  H    0.008821
   137  H    0.026193
   138  H    0.039814
   139  H    0.038291
   140  H    0.036385
   141  H    0.033908
   142  H    0.014387
   143  H    0.012403
   144  H    0.025112
   145  H    0.011673
   146  H    0.005661
   147  H    0.006230
   148  H    0.003633
   149  H    0.010927
   150  H    0.017916
   151  H    0.030127
   152  H    0.045993
   153  H    0.008482
   154  H    0.046954
   155  H    0.035074
   156  H    0.043926
   157  H    0.049525
   158  H    0.053561
 Sum of Mulliken charges =  -0.00000

 Dipole moment (field-independent basis, Debye):
    X=              4.1912    Y=              4.2051    Z=              1.5084  Tot=              6.1257
 Quadrupole moment (field-independent basis, Debye-Ang):
   XX=           -517.8463   YY=           -516.5387   ZZ=           -482.3564
   XY=            -31.3742   XZ=             99.7391   YZ=             15.4601

 Normal termination of Gaussian 16 at Sun Sep 12 09:46:25 2021.
