 Gaussian 16, Revision A.03,
 Gaussian 16:  ES64L-G16RevA.03 25-Dec-2016

 -----------------------------------
 #p cam-b3lyp/Def2SVP td=(nstates=5)
 -----------------------------------

 --------------------------------
 TDDFT excited states in gaussian
 --------------------------------
 Symbolic Z-matrix:
 Charge =  0 Multiplicity = 1

                         Standard orientation:
 ---------------------------------------------------------------------
 Center     Atomic      Atomic             Coordinates (Angstroms)
 Number     Number       Type             X           Y           Z
 ---------------------------------------------------------------------
      1         12           0       15.685118   -0.744378    0.194774
      2          6           0       15.936281    2.132801   -1.919694
      3          6           0       16.535113    1.283493    2.804048
      4          6           0       15.914122   -3.342892    1.998076
      5          6           0       15.975917   -2.697330   -2.676998
      6          7           0       16.150234    1.417274    0.302366
      7          6           0       16.152833    2.420176   -0.570189
      8          6           0       16.332578    3.817469    0.095122
      9          6           0       17.063230    3.364776    1.437960
     10          6           0       16.524352    1.948917    1.542253
     11          6           0       18.582304    3.304310    1.314421
     12          6           0       14.962584    4.513791    0.395091
     13          6           0       15.048416    6.003519    0.739618
     14          1           0       13.984669    6.888710    0.289920
     15          7           0       15.675172   -0.944911    2.160107
     16          6           0       16.037129   -0.010112    3.071383
     17          6           0       15.854316   -0.640437    4.396506
     18          6           0       15.538087   -2.079053    4.176336
     19          6           0       15.724682   -2.187081    2.751945
     20          6           0       15.934779    0.117183    5.686191
     21          6           0       15.142343   -3.183924    5.104118
     22          8           0       15.140591   -4.409623    4.740479
     23          6           0       14.837940   -2.797503    6.493744
     24          7           0       16.132227   -2.737291   -0.236532
     25          6           0       16.107121   -3.672580    0.719286
     26          6           0       16.178579   -5.052296    0.135147
     27          6           0       16.012546   -4.873389   -1.442883
     28          6           0       15.953020   -3.326957   -1.500089
     29          6           0       17.465072   -5.836917    0.427234
     30          6           0       14.880967   -5.680876   -2.126925
     31          6           0       13.534526   -5.167229   -1.668274
     32          7           0       15.738324   -0.385201   -1.945134
     33          6           0       15.887709   -1.344043   -2.957547
     34          6           0       15.975039   -0.613234   -4.235185
     35          6           0       15.886459    0.729538   -3.873298
     36          6           0       15.778688    0.832230   -2.456919
     37          6           0       16.175379   -1.197024   -5.517171
     38          6           0       15.882559    2.102506   -4.351630
     39          8           0       15.852637    2.633604   -5.462725
     40          6           0       16.037261    3.070705   -3.096845
     41          6           0       14.998699    4.151463   -3.225912
     42          8           0       13.783086    3.884903   -3.133196
     43          8           0       15.599671    5.350916   -3.199734
     44          6           0       14.622475    6.468209   -3.294067
     45          1           0       17.020618    1.769177    3.652775
     46          1           0       15.887918   -4.271066    2.572745
     47          1           0       15.982523   -3.243612   -3.621977
     48          1           0       16.968470    4.506968   -0.460446
     49          1           0       16.742430    3.956427    2.295141
     50          1           0       18.904704    3.457947    0.284676
     51          1           0       18.862709    2.307888    1.656487
     52          1           0       19.055239    4.002489    2.005547
     53          1           0       14.561702    4.129277    1.332909
     54          1           0       14.269360    4.375152   -0.435298
     55          1           0       16.023884    6.416743    0.481515
     56          1           0       14.988212    6.107539    1.823018
     57          1           0       16.343984    1.115915    5.539115
     58          1           0       16.672526   -0.389806    6.307801
     59          1           0       14.976261    0.148083    6.204477
     60          1           0       15.711098   -2.313974    6.932316
     61          1           0       14.488215   -3.703196    6.987973
     62          1           0       14.044587   -2.049514    6.486517
     63          1           0       15.370172   -5.678297    0.510681
     64          1           0       16.912501   -5.165511   -1.984566
     65          1           0       17.291711   -6.795375    0.917142
     66          1           0       18.117351   -5.203244    1.027470
     67          1           0       18.091089   -6.028908   -0.443776
     68          1           0       14.938130   -6.730627   -1.841089
     69          1           0       14.914245   -5.631231   -3.215354
     70          1           0       13.380726   -5.694012   -0.727170
     71          1           0       12.761485   -5.427318   -2.392134
     72          1           0       13.570843   -4.101232   -1.442847
     73          1           0       15.489826   -0.688052   -6.194618
     74          1           0       15.988354   -2.270439   -5.497060
     75          1           0       17.225615   -0.959234   -5.685444
     76          1           0       17.050337    3.470147   -3.132146
     77          1           0       14.918875    7.082962   -4.144044
     78          1           0       14.596701    6.941069   -2.312159
     79          1           0       13.605993    6.196632   -3.581033
     80         12           0      -16.059336   -0.539153   -0.273565
     81          6           0      -14.339554    1.790097    1.846818
     82          6           0      -18.358931    1.913129   -0.850411
     83          6           0      -17.833302   -2.694929   -1.781247
     84          6           0      -14.311891   -3.085862    1.340894
     85          7           0      -16.219458    1.541326    0.460052
     86          6           0      -15.474361    2.337039    1.212391
     87          6           0      -15.928544    3.821333    1.224695
     88          6           0      -17.471197    3.603995    0.835000
     89          6           0      -17.346725    2.288843    0.068496
     90          6           0      -18.369113    3.372049    2.038868
     91          6           0      -15.180380    4.684279    0.148779
     92          6           0      -15.345897    6.197097    0.309191
     93          1           0      -14.217304    7.060367   -0.027719
     94          7           0      -17.548901   -0.301632   -1.563269
     95          6           0      -18.366302    0.766418   -1.674633
     96          6           0      -19.306999    0.441870   -2.758113
     97          6           0      -19.082796   -0.971591   -3.166270
     98          6           0      -18.139879   -1.393093   -2.149740
     99          6           0      -20.240611    1.454200   -3.355601
    100          6           0      -19.636434   -1.809455   -4.278774
    101          8           0      -19.484431   -3.081903   -4.303196
    102          6           0      -20.441404   -1.108131   -5.289551
    103          7           0      -16.232251   -2.602560   -0.087008
    104          6           0      -17.038578   -3.305227   -0.901891
    105          6           0      -16.792305   -4.788919   -0.766266
    106          6           0      -15.479181   -4.925729    0.136272
    107          6           0      -15.234107   -3.434334    0.454184
    108          6           0      -17.927630   -5.597033   -0.138279
    109          6           0      -14.306432   -5.759079   -0.449276
    110          6           0      -13.716956   -5.049829   -1.647141
    111          7           0      -14.459338   -0.652138    1.173947
    112          6           0      -13.896305   -1.819982    1.733617
    113          6           0      -12.919978   -1.386653    2.754121
    114          6           0      -13.000054    0.013936    2.733375
    115          6           0      -13.973184    0.423937    1.782369
    116          6           0      -12.144092   -2.246825    3.581310
    117          6           0      -12.490286    1.238458    3.307278
    118          8           0      -11.589426    1.518541    4.097044
    119          6           0      -13.425503    2.439103    2.848772
    120          6           0      -12.542657    3.558680    2.369555
    121          8           0      -11.839890    3.418602    1.353133
    122          8           0      -12.835669    4.676642    3.058509
    123          6           0      -11.993499    5.817966    2.611349
    124          1           0      -19.253914    2.532242   -0.918190
    125          1           0      -18.338939   -3.477808   -2.351267
    126          1           0      -13.655850   -3.816595    1.818698
    127          1           0      -15.853876    4.311265    2.188109
    128          1           0      -17.828360    4.394611    0.180233
    129          1           0      -17.801204    3.273781    2.952083
    130          1           0      -18.910917    2.458854    1.830142
    131          1           0      -19.123198    4.161613    2.104387
    132          1           0      -15.667703    4.544129   -0.824687
    133          1           0      -14.137251    4.436003    0.119369
    134          1           0      -15.755183    6.465186    1.290809
    135          1           0      -16.103189    6.540445   -0.399784
    136          1           0      -20.297340    2.361094   -2.741014
    137          1           0      -21.248608    1.028457   -3.305234
    138          1           0      -20.004640    1.681541   -4.397378
    139          1           0      -21.284969   -0.621739   -4.805530
    140          1           0      -20.673482   -1.856951   -6.049341
    141          1           0      -19.831384   -0.312965   -5.732502
    142          1           0      -16.602889   -5.239428   -1.732836
    143          1           0      -15.693476   -5.420341    1.095061
    144          1           0      -18.287937   -6.419104   -0.785154
    145          1           0      -18.736432   -4.919745    0.101871
    146          1           0      -17.699747   -6.037571    0.830846
    147          1           0      -14.670427   -6.724800   -0.808502
    148          1           0      -13.517915   -5.958897    0.268576
    149          1           0      -14.383475   -5.346794   -2.462409
    150          1           0      -12.697956   -5.385876   -1.828112
    151          1           0      -13.794394   -3.961857   -1.537752
    152          1           0      -11.142012   -1.839454    3.600746
    153          1           0      -12.151333   -3.269179    3.209144
    154          1           0      -12.685997   -2.150000    4.525895
    155          1           0      -14.027721    2.732402    3.709514
    156          1           0      -11.487743    6.209083    3.499561
    157          1           0      -12.678559    6.504049    2.078685
    158          1           0      -11.150008    5.596575    1.967948
 ---------------------------------------------------------------------

 SCF Done:  E(RCAM-B3LYP) =  -4069.81176676     A.U. after   19 cycles

 Excitation energies and oscillator strengths:

 Excited State   1:      Singlet-A      1.6755 eV  740.00 nm  f=0.3142  <S**2>=0.000
     309 -> 315        0.17141
     311 -> 313        0.67747
     312 -> 314       -0.10818
     309 <- 315        0.10333
 This state for optimization and/or second-order correction.
 Total Energy, E(TD-HF/TD-DFT) =  -4069.75019425
 Copying the excited state density for this state as the 1-particle RhoCI density.

 Excited State   2:      Singlet-A      1.6800 eV  738.00 nm  f=0.4658  <S**2>=0.000
     310 -> 316        0.17339
     311 -> 313        0.10815
     312 -> 314        0.67711
     310 <- 316        0.10383

 Excited State   3:      Singlet-A      2.1861 eV  567.15 nm  f=0.0950  <S**2>=0.000
     309 -> 313        0.64207
     311 -> 315       -0.27295

 Excited State   4:      Singlet-A      2.1925 eV  565.48 nm  f=0.1051  <S**2>=0.000
     310 -> 314        0.64030
     312 -> 316       -0.27814

 Excited State   5:      Singlet-A      3.0483 eV  406.73 nm  f=0.0000  <S**2>=0.000
     312 -> 313        0.70710

 The electronic state is 1-A.
 Alpha  occ. eigenvalues --  -46.87726 -46.87661 -19.26349 -19.26214 -19.19160
 Alpha  occ. eigenvalues --  -19.18948 -19.18744 -19.18714 -19.18101 -19.18053
 Alpha  occ. eigenvalues --  -14.42499 -14.42380 -14.41380 -14.41360 -14.39353
 Alpha  occ. eigenvalues --  -14.39333 -14.38601 -14.38517 -10.39090 -10.39009
 Alpha  occ. eigenvalues --  -10.35391 -10.35377 -10.34321 -10.34230 -10.31756
 Alpha  occ. eigenvalues --  -10.31609 -10.31336 -10.31310 -10.31024 -10.30839
 Alpha  occ. eigenvalues --  -10.30501 -10.30438 -10.30399 -10.30362 -10.30142
 Alpha  occ. eigenvalues --  -10.30138 -10.29896 -10.29852 -10.29561 -10.29438
 Alpha  occ. eigenvalues --  -10.29402 -10.29185 -10.28720 -10.28679 -10.28653
 Alpha  occ. eigenvalues --  -10.28465 -10.28406 -10.28295 -10.28142 -10.28048
 Alpha  occ. eigenvalues --  -10.28002 -10.27724 -10.27671 -10.27658 -10.27519
 Alpha  occ. eigenvalues --  -10.27514 -10.27485 -10.27468 -10.27465 -10.27434
 Alpha  occ. eigenvalues --  -10.27410 -10.27383 -10.27377 -10.27334 -10.27090
 Alpha  occ. eigenvalues --  -10.27052 -10.26692 -10.26631 -10.26413 -10.26337
 Alpha  occ. eigenvalues --  -10.26170 -10.26136 -10.26115 -10.26030 -10.25950
 Alpha  occ. eigenvalues --  -10.25935 -10.25853 -10.25778 -10.25401 -10.25372
 Alpha  occ. eigenvalues --  -10.24874 -10.24764 -10.24727 -10.24719 -10.24691
 Alpha  occ. eigenvalues --  -10.24614  -3.16469  -3.16411  -1.91351  -1.91293
 Alpha  occ. eigenvalues --   -1.90937  -1.90882  -1.90780  -1.90719  -1.16643
 Alpha  occ. eigenvalues --   -1.16563  -1.08660  -1.08559  -1.07145  -1.06966
 Alpha  occ. eigenvalues --   -1.06944  -1.06571  -1.04511  -1.04496  -1.03691
 Alpha  occ. eigenvalues --   -1.03664  -1.03164  -1.03040  -1.02342  -1.02112
 Alpha  occ. eigenvalues --   -0.91988  -0.91903  -0.89495  -0.89451  -0.89153
 Alpha  occ. eigenvalues --   -0.89119  -0.88221  -0.88219  -0.87802  -0.87795
 Alpha  occ. eigenvalues --   -0.87685  -0.87603  -0.87203  -0.87120  -0.85001
 Alpha  occ. eigenvalues --   -0.84912  -0.83876  -0.83868  -0.82931  -0.82896
 Alpha  occ. eigenvalues --   -0.82653  -0.82579  -0.81597  -0.81516  -0.80527
 Alpha  occ. eigenvalues --   -0.80443  -0.78727  -0.78636  -0.77149  -0.77145
 Alpha  occ. eigenvalues --   -0.76899  -0.76865  -0.75854  -0.75840  -0.74831
 Alpha  occ. eigenvalues --   -0.74804  -0.72705  -0.72700  -0.71604  -0.71583
 Alpha  occ. eigenvalues --   -0.69838  -0.69757  -0.68828  -0.68803  -0.67602
 Alpha  occ. eigenvalues --   -0.67572  -0.67200  -0.67148  -0.65273  -0.65217
 Alpha  occ. eigenvalues --   -0.64784  -0.64771  -0.64654  -0.64551  -0.64204
 Alpha  occ. eigenvalues --   -0.64201  -0.62279  -0.62228  -0.60372  -0.60340
 Alpha  occ. eigenvalues --   -0.59798  -0.59735  -0.58994  -0.58918  -0.58435
 Alpha  occ. eigenvalues --   -0.58426  -0.57555  -0.57515  -0.57240  -0.57237
 Alpha  occ. eigenvalues --   -0.56241  -0.56205  -0.55909  -0.55887  -0.55452
 Alpha  occ. eigenvalues --   -0.55450  -0.55271  -0.55248  -0.54488  -0.54454
 Alpha  occ. eigenvalues --   -0.53914  -0.53825  -0.53229  -0.53228  -0.53152
 Alpha  occ. eigenvalues --   -0.53142  -0.52902  -0.52845  -0.52685  -0.52668
 Alpha  occ. eigenvalues --   -0.52400  -0.52368  -0.51886  -0.51847  -0.51659
 Alpha  occ. eigenvalues --   -0.51546  -0.51202  -0.51127  -0.50501  -0.50475
 Alpha  occ. eigenvalues --   -0.49981  -0.49963  -0.49868  -0.49848  -0.49488
 Alpha  occ. eigenvalues --   -0.49445  -0.49203  -0.49145  -0.49106  -0.49028
 Alpha  occ. eigenvalues --   -0.48560  -0.48524  -0.48393  -0.48377  -0.48375
 Alpha  occ. eigenvalues --   -0.48339  -0.47625  -0.47595  -0.47228  -0.47119
 Alpha  occ. eigenvalues --   -0.46728  -0.46710  -0.46555  -0.46485  -0.46290
 Alpha  occ. eigenvalues --   -0.46271  -0.46094  -0.46087  -0.45824  -0.45754
 Alpha  occ. eigenvalues --   -0.45210  -0.45134  -0.44515  -0.44509  -0.44477
 Alpha  occ. eigenvalues --   -0.44436  -0.44129  -0.44078  -0.44075  -0.44019
 Alpha  occ. eigenvalues --   -0.43950  -0.43940  -0.43554  -0.43426  -0.43387
 Alpha  occ. eigenvalues --   -0.43317  -0.42958  -0.42931  -0.42902  -0.42629
 Alpha  occ. eigenvalues --   -0.42585  -0.42553  -0.41964  -0.41940  -0.41671
 Alpha  occ. eigenvalues --   -0.41635  -0.41464  -0.41459  -0.41073  -0.40991
 Alpha  occ. eigenvalues --   -0.40799  -0.40752  -0.40722  -0.40699  -0.40503
 Alpha  occ. eigenvalues --   -0.40494  -0.40227  -0.40162  -0.39425  -0.39371
 Alpha  occ. eigenvalues --   -0.38400  -0.38351  -0.37677  -0.37654  -0.37267
 Alpha  occ. eigenvalues --   -0.37252  -0.37200  -0.37193  -0.36771  -0.36643
 Alpha  occ. eigenvalues --   -0.36218  -0.36123  -0.34255  -0.34217  -0.33861
 Alpha  occ. eigenvalues --   -0.33699  -0.33176  -0.33117  -0.31274  -0.31273
 Alpha  occ. eigenvalues --   -0.30974  -0.30966  -0.29961  -0.29957  -0.29379
 Alpha  occ. eigenvalues --   -0.29328  -0.29253  -0.29213  -0.24037  -0.24011
 Alpha  occ. eigenvalues --   -0.21118  -0.21058
 Alpha virt. eigenvalues --   -0.08793  -0.08705  -0.01685  -0.01680  -0.00029
 Alpha virt. eigenvalues --    0.00012   0.02206   0.02269   0.03196   0.03229
 Alpha virt. eigenvalues --    0.04728   0.04787   0.05165   0.05169   0.06182

 Mulliken charges:
               1
     1  Mg   0.838759
     2  C   -0.002949
     3  C   -0.094099
     4  C   -0.045851
     5  C   -0.063958
     6  N   -0.256787
     7  C   -0.052430
     8  C   -0.014046
     9  C   -0.086975
    10  C    0.046341
    11  C    0.104826
    12  C    0.053447
    13  C   -0.071828
    14  H    0.036227
    15  N   -0.433113
    16  C    0.168454
    17  C   -0.177150
    18  C   -0.003976
    19  C    0.148737
    20  C    0.110195
    21  C    0.012330
    22  O   -0.249635
    23  C    0.062446
    24  N   -0.341134
    25  C    0.041247
    26  C   -0.028179
    27  C   -0.023971
    28  C    0.074853
    29  C    0.076210
    30  C    0.035133
    31  C   -0.004509
    32  N   -0.310451
    33  C    0.080404
    34  C   -0.169719
    35  C    0.008346
    36  C    0.083006
    37  C    0.127308
    38  C    0.046116
    39  O   -0.188501
    40  C   -0.005330
    41  C    0.212871
    42  O   -0.257000
    43  O   -0.304849
    44  C    0.157686
    45  H   -0.017637
    46  H   -0.016857
    47  H   -0.041538
    48  H    0.000878
    49  H   -0.004007
    50  H    0.025426
    51  H    0.016411
    52  H    0.016607
    53  H    0.011290
    54  H    0.044189
    55  H    0.017778
    56  H    0.017973
    57  H    0.005861
    58  H    0.026765
    59  H    0.039665
    60  H    0.037287
    61  H    0.035674
    62  H    0.031629
    63  H    0.016591
    64  H    0.009381
    65  H    0.023179
    66  H    0.012505
    67  H    0.004679
    68  H    0.006312
    69  H    0.004691
    70  H    0.008811
    71  H    0.018197
    72  H    0.029048
    73  H    0.047575
    74  H    0.009095
    75  H    0.045919
    76  H    0.035073
    77  H    0.042869
    78  H    0.046410
    79  H    0.053766
    80  Mg   0.837886
    81  C   -0.016823
    82  C   -0.087787
    83  C   -0.045477
    84  C   -0.064863
    85  N   -0.254575
    86  C   -0.049825
    87  C   -0.015097
    88  C   -0.090506
    89  C    0.045775
    90  C    0.114374
    91  C    0.062518
    92  C   -0.077920
    93  H    0.034969
    94  N   -0.423491
    95  C    0.162932
    96  C   -0.174633
    97  C   -0.007786
    98  C    0.152124
    99  C    0.099381
   100  C    0.015584
   101  O   -0.253163
   102  C    0.061189
   103  N   -0.350055
   104  C    0.037482
   105  C   -0.019816
   106  C   -0.034844
   107  C    0.088933
   108  C    0.073661
   109  C    0.034730
   110  C   -0.007691
   111  N   -0.324110
   112  C    0.078452
   113  C   -0.163112
   114  C    0.002239
   115  C    0.096202
   116  C    0.131475
   117  C    0.042400
   118  O   -0.187881
   119  C    0.000918
   120  C    0.211245
   121  O   -0.250943
   122  O   -0.305662
   123  C    0.152016
   124  H   -0.019664
   125  H   -0.015555
   126  H   -0.040449
   127  H   -0.000675
   128  H   -0.004303
   129  H    0.022431
   130  H    0.014410
   131  H    0.016273
   132  H    0.013956
   133  H    0.037722
   134  H    0.020742
   135  H    0.019605
   136  H    0.008759
   137  H    0.026134
   138  H    0.039847
   139  H    0.038237
   140  H    0.036430
   141  H    0.033941
   142  H    0.014441
   143  H    0.012389
   144  H    0.025157
   145  H    0.011611
   146  H    0.005649
   147  H    0.006270
   148  H    0.003664
   149  H    0.010950
   150  H    0.018018
   151  H    0.030112
   152  H    0.046056
   153  H    0.008542
   154  H    0.046881
   155  H    0.034969
   156  H    0.043872
   157  H    0.049494
   158  H    0.053656
 Sum of Mulliken charges =  -0.00000

 Dipole moment (field-independent basis, Debye):
    X=             -2.0747    Y=              2.7652    Z=              3.2837  Tot=              4.7679
 Quadrupole moment (field-independent basis, Debye-Ang):
   XX=           -336.6297   YY=           -463.9203   ZZ=           -528.5915
   XY=            -31.8091   XZ=             65.6072   YZ=             19.9759

 Normal termination of Gaussian 16 at Sun Sep 12 14:42:04 2021.
