 Gaussian 16, Revision A.03,
 Gaussian 16:  ES64L-G16RevA.03 25-Dec-2016

 -----------------------------------
 #p cam-b3lyp/Def2SVP td=(nstates=5)
 -----------------------------------

 --------------------------------
 TDDFT excited states in gaussian
 --------------------------------
 Symbolic Z-matrix:
 Charge =  0 Multiplicity = 1

                         Standard orientation:
 ---------------------------------------------------------------------
 Center     Atomic      Atomic             Coordinates (Angstroms)
 Number     Number       Type             X           Y           Z
 ---------------------------------------------------------------------
      1         12           0        3.326745   -1.690974    0.637426
      2          6           0        4.630809    1.350573   -0.726619
      3          6           0        4.095870   -0.461108    3.725944
      4          6           0        2.604552   -4.538612    1.831585
      5          6           0        3.714092   -3.102438   -2.525388
      6          7           0        4.242504    0.216593    1.287981
      7          6           0        4.642181    1.323476    0.669727
      8          6           0        5.003619    2.481201    1.647689
      9          6           0        5.338214    1.618643    2.946164
     10          6           0        4.481099    0.399347    2.655315
     11          6           0        6.797974    1.184312    3.029592
     12          6           0        3.796958    3.447398    1.897014
     13          6           0        4.151830    4.775095    2.572764
     14          1           0        3.425340    5.974617    2.184552
     15          7           0        2.891757   -2.231770    2.487068
     16          6           0        3.274138   -1.604572    3.625353
     17          6           0        2.699942   -2.392267    4.737340
     18          6           0        2.112816   -3.633321    4.160136
     19          6           0        2.541520   -3.528697    2.788770
     20          6           0        2.700181   -1.927075    6.161189
     21          6           0        1.304042   -4.743473    4.753078
     22          8           0        1.093280   -5.839545    4.129556
     23          6           0        0.833084   -4.546982    6.136057
     24          7           0        3.382546   -3.620128   -0.158115
     25          6           0        2.960709   -4.671970    0.552283
     26          6           0        2.827318   -5.893643   -0.307754
     27          6           0        3.014593   -5.396726   -1.813661
     28          6           0        3.321305   -3.904853   -1.533462
     29          6           0        3.819756   -7.028034   -0.017525
     30          6           0        1.882859   -5.741828   -2.813912
     31          6           0        0.626375   -4.983516   -2.448799
     32          7           0        3.872908   -0.979777   -1.339174
     33          6           0        3.992571   -1.745969   -2.507637
     34          6           0        4.489374   -0.846462   -3.565059
     35          6           0        4.640954    0.384645   -2.930043
     36          6           0        4.287805    0.255688   -1.556381
     37          6           0        4.795238   -1.222051   -4.902898
     38          6           0        5.042594    1.773170   -3.086695
     39          8           0        5.349801    2.484235   -4.044559
     40          6           0        5.168421    2.424743   -1.639130
     41          6           0        4.448579    3.745394   -1.671016
     42          8           0        3.209835    3.795510   -1.813730
     43          8           0        5.290415    4.719775   -1.293607
     44          6           0        4.630749    6.052687   -1.275141
     45          1           0        4.505878   -0.280874    4.721610
     46          1           0        2.256944   -5.514901    2.175775
     47          1           0        3.778499   -3.452142   -3.557382
     48          1           0        5.874969    3.067574    1.355559
     49          1           0        5.001275    2.109711    3.858878
     50          1           0        7.339653    1.430345    2.116372
     51          1           0        6.772360    0.104565    3.177857
     52          1           0        7.274874    1.597617    3.918705
     53          1           0        3.145525    3.019656    2.659073
     54          1           0        3.264276    3.647438    0.966660
     55          1           0        5.226789    4.956854    2.554415
     56          1           0        3.908725    4.694757    3.632314
     57          1           0        3.346743   -1.061426    6.299585
     58          1           0        3.168545   -2.713311    6.752947
     59          1           0        1.692344   -1.739054    6.531655
     60          1           0        1.691802   -4.396934    6.790761
     61          1           0        0.197404   -5.402476    6.361649
     62          1           0        0.247857   -3.628127    6.182572
     63          1           0        1.840598   -6.342119   -0.199690
     64          1           0        3.911526   -5.812777   -2.273103
     65          1           0        3.341192   -7.979119    0.217248
     66          1           0        4.470668   -6.706671    0.795083
     67          1           0        4.541730   -7.217969   -0.811310
     68          1           0        1.642914   -6.803351   -2.763489
     69          1           0        2.136264   -5.507843   -3.847975
     70          1           0        0.177674   -5.611647   -1.680065
     71          1           0       -0.030744   -4.896777   -3.314756
     72          1           0        0.860433   -4.023071   -1.989181
     73          1           0        4.387926   -0.437616   -5.540650
     74          1           0        4.368219   -2.194063   -5.148765
     75          1           0        5.884205   -1.242395   -4.862976
     76          1           0        6.233073    2.543501   -1.440293
     77          1           0        5.217975    6.710351   -1.916138
     78          1           0        4.524179    6.331189   -0.226578
     79          1           0        3.654266    6.113971   -1.756871
     80         12           0       -4.217901    0.471737   -0.594202
     81          6           0       -1.318669    2.578200   -0.403683
     82          6           0       -5.626966    2.447843    1.802495
     83          6           0       -6.598530   -1.617940   -0.411650
     84          6           0       -2.194466   -1.942659   -2.084878
     85          7           0       -3.470329    2.253732    0.481838
     86          6           0       -2.377724    3.000410    0.426736
     87          6           0       -2.454192    4.314016    1.250232
     88          6           0       -3.574578    3.868101    2.310774
     89          6           0       -4.297217    2.814146    1.474315
     90          6           0       -3.000465    3.188721    3.542922
     91          6           0       -2.933340    5.533583    0.387054
     92          6           0       -2.736312    6.902284    1.042484
     93          1           0       -2.388669    8.037553    0.192322
     94          7           0       -6.047379    0.670849    0.148718
     95          6           0       -6.449095    1.539206    1.100485
     96          6           0       -7.880884    1.273456    1.309109
     97          6           0       -8.253671    0.067035    0.521523
     98          6           0       -6.947851   -0.361716    0.062090
     99          6           0       -8.765253    2.172782    2.123062
    100          6           0       -9.566587   -0.598843    0.240340
    101          8           0       -9.630506   -1.772052   -0.271850
    102          6           0      -10.773205    0.124031    0.668151
    103          7           0       -4.333767   -1.569899   -0.969210
    104          6           0       -5.502073   -2.227014   -0.863461
    105          6           0       -5.400666   -3.617037   -1.444786
    106          6           0       -3.983675   -3.671158   -2.184227
    107          6           0       -3.449334   -2.271210   -1.810027
    108          6           0       -5.495039   -4.766248   -0.441397
    109          6           0       -3.986397   -4.085425   -3.681234
    110          6           0       -4.663716   -3.018426   -4.510779
    111          7           0       -2.185873    0.379247   -1.322455
    112          6           0       -1.532025   -0.737959   -1.886740
    113          6           0       -0.126904   -0.347110   -2.121936
    114          6           0       -0.054527    0.973312   -1.653180
    115          6           0       -1.319764    1.370097   -1.142075
    116          6           0        0.891967   -1.186288   -2.654665
    117          6           0        0.807230    2.118125   -1.464771
    118          8           0        1.961429    2.398721   -1.785426
    119          6           0        0.059605    3.165264   -0.531517
    120          6           0        0.186440    4.524247   -1.163651
    121          8           0       -0.356839    4.766507   -2.255787
    122          8           0        0.740349    5.372238   -0.277962
    123          6           0        0.876773    6.736163   -0.854960
    124          1           0       -6.071060    2.862884    2.707708
    125          1           0       -7.413901   -2.342483   -0.472301
    126          1           0       -1.524745   -2.605990   -2.636365
    127          1           0       -1.539440    4.580854    1.765797
    128          1           0       -4.243694    4.691109    2.548040
    129          1           0       -1.939526    3.011345    3.447672
    130          1           0       -3.533692    2.251841    3.637614
    131          1           0       -3.243848    3.765974    4.439520
    132          1           0       -4.028560    5.514579    0.317286
    133          1           0       -2.465470    5.524435   -0.578167
    134          1           0       -2.065958    6.851644    1.909087
    135          1           0       -3.691809    7.227211    1.461380
    136          1           0       -8.178228    2.886496    2.714159
    137          1           0       -9.260166    1.543316    2.870530
    138          1           0       -9.527408    2.671627    1.520611
    139          1           0      -10.727449    0.300426    1.740185
    140          1           0      -11.613969   -0.467913    0.301270
    141          1           0      -10.780175    1.108541    0.187222
    142          1           0       -6.183780   -3.789833   -2.172789
    143          1           0       -3.307287   -4.401205   -1.715861
    144          1           0       -6.308517   -5.480206   -0.670731
    145          1           0       -5.625064   -4.346402    0.547213
    146          1           0       -4.585856   -5.353682   -0.325181
    147          1           0       -4.566509   -5.001086   -3.819730
    148          1           0       -2.994463   -4.269160   -4.080364
    149          1           0       -5.725511   -3.259862   -4.404093
    150          1           0       -4.346870   -3.082348   -5.549802
    151          1           0       -4.506598   -2.023974   -4.077172
    152          1           0        1.442550   -0.591148   -3.371019
    153          1           0        0.471991   -2.077524   -3.116275
    154          1           0        1.448790   -1.419654   -1.743204
    155          1           0        0.532364    3.124823    0.450536
    156          1           0        1.930752    7.016907   -0.765643
    157          1           0        0.141150    7.363121   -0.316873
    158          1           0        0.717864    6.847496   -1.921174
 ---------------------------------------------------------------------

 SCF Done:  E(RCAM-B3LYP) =  -4069.74089773     A.U. after   19 cycles

 Excitation energies and oscillator strengths:

 Excited State   1:      Singlet-A      1.6178 eV  766.36 nm  f=0.2454  <S**2>=0.000
     311 -> 313        0.34335
     311 -> 314        0.33580
     312 -> 313        0.36637
     312 -> 314       -0.33115
 This state for optimization and/or second-order correction.
 Total Energy, E(TD-HF/TD-DFT) =  -4069.68144345
 Copying the excited state density for this state as the 1-particle RhoCI density.

 Excited State   2:      Singlet-A      1.7064 eV  726.57 nm  f=0.5239  <S**2>=0.000
     309 -> 316        0.11736
     310 -> 315        0.11998
     311 -> 313        0.44407
     311 -> 314        0.20398
     312 -> 313       -0.21999
     312 -> 314        0.42443

 Excited State   3:      Singlet-A      2.1502 eV  576.62 nm  f=0.0225  <S**2>=0.000
     309 -> 313       -0.18713
     309 -> 314       -0.34197
     310 -> 313        0.45230
     310 -> 314        0.13144
     311 -> 314       -0.11577
     311 -> 315       -0.22752
     312 -> 313        0.16189
     312 -> 314        0.10136

 Excited State   4:      Singlet-A      2.1904 eV  566.04 nm  f=0.1170  <S**2>=0.000
     309 -> 313       -0.37406
     309 -> 314        0.30361
     310 -> 313       -0.10979
     310 -> 314        0.37562
     311 -> 314       -0.11615
     312 -> 316       -0.24033

 Excited State   5:      Singlet-A      2.2360 eV  554.49 nm  f=0.0070  <S**2>=0.000
     311 -> 313       -0.39357
     311 -> 314        0.51939
     312 -> 314        0.20232

 The electronic state is 1-A.
 Alpha  occ. eigenvalues --  -46.87515 -46.87284 -19.25957 -19.24809 -19.18559
 Alpha  occ. eigenvalues --  -19.18552 -19.18368 -19.17535 -19.16195 -19.15963
 Alpha  occ. eigenvalues --  -14.42158 -14.42125 -14.41211 -14.40984 -14.39086
 Alpha  occ. eigenvalues --  -14.38969 -14.38230 -14.38181 -10.38564 -10.37034
 Alpha  occ. eigenvalues --  -10.35194 -10.35054 -10.33720 -10.32831 -10.31613
 Alpha  occ. eigenvalues --  -10.31106 -10.31023 -10.30918 -10.30710 -10.30498
 Alpha  occ. eigenvalues --  -10.30185 -10.30160 -10.30010 -10.29969 -10.29915
 Alpha  occ. eigenvalues --  -10.29829 -10.29626 -10.29479 -10.29267 -10.29091
 Alpha  occ. eigenvalues --  -10.28963 -10.28912 -10.28520 -10.28485 -10.28386
 Alpha  occ. eigenvalues --  -10.28293 -10.27958 -10.27918 -10.27906 -10.27793
 Alpha  occ. eigenvalues --  -10.27473 -10.27459 -10.27412 -10.27411 -10.27345
 Alpha  occ. eigenvalues --  -10.27320 -10.27249 -10.27242 -10.27209 -10.27158
 Alpha  occ. eigenvalues --  -10.27099 -10.27050 -10.27045 -10.26936 -10.26472
 Alpha  occ. eigenvalues --  -10.26468 -10.26379 -10.26351 -10.26330 -10.26217
 Alpha  occ. eigenvalues --  -10.26141 -10.25941 -10.25929 -10.25892 -10.25758
 Alpha  occ. eigenvalues --  -10.25576 -10.25548 -10.25319 -10.25084 -10.25061
 Alpha  occ. eigenvalues --  -10.25044 -10.24516 -10.24485 -10.24385 -10.24303
 Alpha  occ. eigenvalues --  -10.24297  -3.16272  -3.16036  -1.91157  -1.90918
 Alpha  occ. eigenvalues --   -1.90738  -1.90580  -1.90507  -1.90342  -1.16153
 Alpha  occ. eigenvalues --   -1.15202  -1.08251  -1.07859  -1.06961  -1.06628
 Alpha  occ. eigenvalues --   -1.06407  -1.04604  -1.04228  -1.04118  -1.03476
 Alpha  occ. eigenvalues --   -1.03283  -1.02911  -1.02638  -1.02088  -1.01700
 Alpha  occ. eigenvalues --   -0.91522  -0.91445  -0.89375  -0.89137  -0.88899
 Alpha  occ. eigenvalues --   -0.88847  -0.88110  -0.87882  -0.87545  -0.87398
 Alpha  occ. eigenvalues --   -0.87350  -0.87248  -0.86982  -0.86755  -0.84709
 Alpha  occ. eigenvalues --   -0.84662  -0.83839  -0.83548  -0.82744  -0.82609
 Alpha  occ. eigenvalues --   -0.82353  -0.82291  -0.81231  -0.81033  -0.80203
 Alpha  occ. eigenvalues --   -0.80033  -0.78481  -0.78237  -0.77025  -0.76822
 Alpha  occ. eigenvalues --   -0.76633  -0.76576  -0.75549  -0.75464  -0.74663
 Alpha  occ. eigenvalues --   -0.74460  -0.72470  -0.72304  -0.71339  -0.71233
 Alpha  occ. eigenvalues --   -0.69929  -0.69465  -0.68561  -0.68520  -0.67295
 Alpha  occ. eigenvalues --   -0.67254  -0.66916  -0.66911  -0.65065  -0.64928
 Alpha  occ. eigenvalues --   -0.64562  -0.64428  -0.64322  -0.64255  -0.64036
 Alpha  occ. eigenvalues --   -0.63887  -0.61952  -0.61740  -0.60179  -0.59994
 Alpha  occ. eigenvalues --   -0.59556  -0.59456  -0.58716  -0.58608  -0.58186
 Alpha  occ. eigenvalues --   -0.58043  -0.57634  -0.57141  -0.56938  -0.56699
 Alpha  occ. eigenvalues --   -0.56037  -0.55953  -0.55763  -0.55378  -0.55330
 Alpha  occ. eigenvalues --   -0.55145  -0.55029  -0.54974  -0.54411  -0.54121
 Alpha  occ. eigenvalues --   -0.53643  -0.53608  -0.53377  -0.53026  -0.52916
 Alpha  occ. eigenvalues --   -0.52854  -0.52760  -0.52572  -0.52497  -0.52448
 Alpha  occ. eigenvalues --   -0.52361  -0.52059  -0.51583  -0.51395  -0.51321
 Alpha  occ. eigenvalues --   -0.51267  -0.50857  -0.50757  -0.50372  -0.50170
 Alpha  occ. eigenvalues --   -0.49999  -0.49859  -0.49657  -0.49627  -0.49463
 Alpha  occ. eigenvalues --   -0.49172  -0.49113  -0.48895  -0.48775  -0.48629
 Alpha  occ. eigenvalues --   -0.48507  -0.48279  -0.48141  -0.48048  -0.48001
 Alpha  occ. eigenvalues --   -0.47400  -0.47375  -0.47041  -0.46915  -0.46827
 Alpha  occ. eigenvalues --   -0.46518  -0.46350  -0.46317  -0.46189  -0.46133
 Alpha  occ. eigenvalues --   -0.45859  -0.45790  -0.45575  -0.45365  -0.45099
 Alpha  occ. eigenvalues --   -0.44932  -0.44718  -0.44326  -0.44212  -0.44168
 Alpha  occ. eigenvalues --   -0.43987  -0.43846  -0.43837  -0.43778  -0.43722
 Alpha  occ. eigenvalues --   -0.43425  -0.43334  -0.43183  -0.43125  -0.42961
 Alpha  occ. eigenvalues --   -0.42862  -0.42635  -0.42579  -0.42531  -0.42431
 Alpha  occ. eigenvalues --   -0.42216  -0.41787  -0.41688  -0.41387  -0.41278
 Alpha  occ. eigenvalues --   -0.41182  -0.41067  -0.40873  -0.40775  -0.40674
 Alpha  occ. eigenvalues --   -0.40587  -0.40421  -0.40403  -0.40289  -0.40165
 Alpha  occ. eigenvalues --   -0.39994  -0.39951  -0.39568  -0.39476  -0.39144
 Alpha  occ. eigenvalues --   -0.38325  -0.38044  -0.37440  -0.37399  -0.37073
 Alpha  occ. eigenvalues --   -0.36966  -0.36880  -0.36847  -0.36297  -0.36131
 Alpha  occ. eigenvalues --   -0.35815  -0.35115  -0.33977  -0.33861  -0.33327
 Alpha  occ. eigenvalues --   -0.32950  -0.32729  -0.31389  -0.31040  -0.30933
 Alpha  occ. eigenvalues --   -0.30609  -0.30015  -0.29374  -0.29118  -0.28997
 Alpha  occ. eigenvalues --   -0.28921  -0.28459  -0.25691  -0.23677  -0.23624
 Alpha  occ. eigenvalues --   -0.20780  -0.20719
 Alpha virt. eigenvalues --   -0.08481  -0.08318  -0.01490  -0.01335   0.00209
 Alpha virt. eigenvalues --    0.00423   0.02501   0.02636   0.03300   0.03769
 Alpha virt. eigenvalues --    0.04935   0.05050   0.05797   0.06076   0.06496

 Mulliken charges:
               1
     1  Mg   0.814413
     2  C    0.007896
     3  C   -0.093930
     4  C   -0.048051
     5  C   -0.053147
     6  N   -0.254392
     7  C   -0.060507
     8  C   -0.010050
     9  C   -0.086588
    10  C    0.044740
    11  C    0.105303
    12  C    0.040324
    13  C   -0.068812
    14  H    0.033908
    15  N   -0.427943
    16  C    0.164592
    17  C   -0.178590
    18  C   -0.005034
    19  C    0.149849
    20  C    0.110529
    21  C    0.011792
    22  O   -0.251199
    23  C    0.062865
    24  N   -0.337752
    25  C    0.040182
    26  C   -0.027080
    27  C   -0.024094
    28  C    0.063641
    29  C    0.076891
    30  C    0.045851
    31  C   -0.020109
    32  N   -0.311755
    33  C    0.062826
    34  C   -0.175029
    35  C    0.015531
    36  C    0.101902
    37  C    0.128446
    38  C    0.051434
    39  O   -0.185717
    40  C   -0.014820
    41  C    0.220824
    42  O   -0.214928
    43  O   -0.310942
    44  C    0.157287
    45  H   -0.019088
    46  H   -0.018417
    47  H   -0.044817
    48  H    0.001137
    49  H   -0.005859
    50  H    0.025688
    51  H    0.015948
    52  H    0.015293
    53  H    0.007656
    54  H    0.055493
    55  H    0.017514
    56  H    0.015008
    57  H    0.004839
    58  H    0.025860
    59  H    0.037624
    60  H    0.036917
    61  H    0.034652
    62  H    0.030754
    63  H    0.014669
    64  H    0.009883
    65  H    0.022316
    66  H    0.013241
    67  H    0.004201
    68  H    0.005824
    69  H    0.002957
    70  H    0.009599
    71  H    0.021408
    72  H    0.024306
    73  H    0.047449
    74  H    0.006256
    75  H    0.045750
    76  H    0.030661
    77  H    0.037341
    78  H    0.044218
    79  H    0.046130
    80  Mg   0.835674
    81  C   -0.017956
    82  C   -0.088305
    83  C   -0.045965
    84  C   -0.064234
    85  N   -0.253821
    86  C   -0.051574
    87  C   -0.013787
    88  C   -0.090226
    89  C    0.044681
    90  C    0.114924
    91  C    0.062884
    92  C   -0.076893
    93  H    0.033924
    94  N   -0.423113
    95  C    0.161709
    96  C   -0.175848
    97  C   -0.008686
    98  C    0.151274
    99  C    0.099848
   100  C    0.014814
   101  O   -0.254333
   102  C    0.061519
   103  N   -0.350063
   104  C    0.037384
   105  C   -0.020093
   106  C   -0.033876
   107  C    0.088205
   108  C    0.073658
   109  C    0.033587
   110  C   -0.007409
   111  N   -0.323687
   112  C    0.080402
   113  C   -0.183855
   114  C    0.005861
   115  C    0.096883
   116  C    0.163459
   117  C    0.064137
   118  O   -0.140738
   119  C   -0.015804
   120  C    0.229703
   121  O   -0.251578
   122  O   -0.310572
   123  C    0.160790
   124  H   -0.021453
   125  H   -0.016509
   126  H   -0.045345
   127  H   -0.002831
   128  H   -0.005298
   129  H    0.020188
   130  H    0.014291
   131  H    0.014318
   132  H    0.013951
   133  H    0.038609
   134  H    0.018956
   135  H    0.019089
   136  H    0.007494
   137  H    0.024745
   138  H    0.038587
   139  H    0.037641
   140  H    0.035358
   141  H    0.033419
   142  H    0.013412
   143  H    0.014190
   144  H    0.023975
   145  H    0.011853
   146  H    0.006354
   147  H    0.005378
   148  H    0.002486
   149  H    0.010854
   150  H    0.016492
   151  H    0.030966
   152  H    0.041536
   153  H    0.000535
   154  H    0.057522
   155  H    0.029842
   156  H    0.021700
   157  H    0.046518
   158  H    0.055308
 Sum of Mulliken charges =  -0.00000

 Dipole moment (field-independent basis, Debye):
    X=             -0.0363    Y=              1.6606    Z=              6.6712  Tot=              6.8749
 Quadrupole moment (field-independent basis, Debye-Ang):
   XX=           -515.3817   YY=           -490.2456   ZZ=           -496.5867
   XY=            -27.5238   XZ=              9.1945   YZ=             51.1939

 Normal termination of Gaussian 16 at Thu Sep  9 03:49:19 2021.
