 Gaussian 16, Revision A.03,
 Gaussian 16:  ES64L-G16RevA.03 25-Dec-2016

 -----------------------------------
 #p cam-b3lyp/Def2SVP td=(nstates=5)
 -----------------------------------

 --------------------------------
 TDDFT excited states in gaussian
 --------------------------------
 Symbolic Z-matrix:
 Charge =  0 Multiplicity = 1

                         Standard orientation:
 ---------------------------------------------------------------------
 Center     Atomic      Atomic             Coordinates (Angstroms)
 Number     Number       Type             X           Y           Z
 ---------------------------------------------------------------------
      1         12           0       -6.499357    0.505262   -0.726256
      2          6           0       -6.887177   -2.392458    1.338938
      3          6           0       -7.682224    2.346304    1.891846
      4          6           0       -6.596012    3.008215   -2.671123
      5          6           0       -6.441989   -1.640688   -3.471664
      6          7           0       -7.165033   -0.065001    1.306555
      7          6           0       -7.207816   -1.201660    1.994558
      8          6           0       -7.552869   -0.999764    3.500397
      9          6           0       -8.316747    0.395994    3.398669
     10          6           0       -7.658137    0.942476    2.144270
     11          6           0       -9.814114    0.253996    3.145231
     12          6           0       -6.271998   -0.888040    4.394051
     13          6           0       -6.513293   -1.017051    5.900864
     14          1           0       -5.510095   -1.685198    6.716045
     15          7           0       -6.586499    2.437524   -0.324234
     16          6           0       -7.084975    3.009529    0.798093
     17          6           0       -6.923542    4.468389    0.618243
     18          6           0       -6.465160    4.706680   -0.778610
     19          6           0       -6.557244    3.378505   -1.328927
     20          6           0       -7.148236    5.462602    1.715878
     21          6           0       -6.025495    5.938112   -1.505522
     22          8           0       -5.890723    5.965998   -2.776597
     23          6           0       -5.839627    7.151575   -0.689431
     24          7           0       -6.736917    0.690167   -2.791930
     25          6           0       -6.682805    1.886089   -3.388442
     26          6           0       -6.593840    1.749010   -4.879493
     27          6           0       -6.352507    0.196985   -5.167119
     28          6           0       -6.430898   -0.327636   -3.712162
     29          6           0       -7.818390    2.230160   -5.670051
     30          6           0       -5.113876   -0.175853   -6.019882
     31          6           0       -3.849082    0.141993   -5.254135
     32          7           0       -6.459434   -1.642801   -1.034923
     33          6           0       -6.461164   -2.318166   -2.263968
     34          6           0       -6.539618   -3.759793   -1.964591
     35          6           0       -6.595156   -3.822520   -0.573611
     36          6           0       -6.580476   -2.502566   -0.039009
     37          6           0       -6.610365   -4.807636   -2.924514
     38          6           0       -6.688331   -4.696650    0.584436
     39          8           0       -6.641796   -5.915501    0.756856
     40          6           0       -7.003970   -3.802004    1.863423
     41          6           0       -6.062440   -4.225326    2.957785
     42          8           0       -4.835136   -4.021446    2.860195
     43          8           0       -6.770712   -4.583334    4.039784
     44          6           0       -5.895555   -4.986472    5.172804
     45          1           0       -8.258923    2.992317    2.556696
     46          1           0       -6.519095    3.839183   -3.375405
     47          1           0       -6.343333   -2.373716   -4.274404
     48          1           0       -8.215253   -1.756924    3.920373
     49          1           0       -8.102042    1.040467    4.250889
     50          1           0      -10.088201   -0.782187    2.947437
     51          1           0      -10.022134    0.875725    2.274213
     52          1           0      -10.388435    0.685508    3.965432
     53          1           0       -5.893458    0.133297    4.353553
     54          1           0       -5.521505   -1.616628    4.085431
     55          1           0       -7.505529   -1.416337    6.112875
     56          1           0       -6.526486   -0.015806    6.331603
     57          1           0       -7.637415    5.006327    2.575565
     58          1           0       -7.871906    6.188192    1.345027
     59          1           0       -6.228588    5.973568    2.001349
     60          1           0       -6.777435    7.396886   -0.190544
     61          1           0       -5.438424    7.908238   -1.362741
     62          1           0       -5.118686    6.938849    0.100468
     63          1           0       -5.755180    2.320288   -5.275369
     64          1           0       -7.188760   -0.254896   -5.701122
     65          1           0       -7.587451    2.993835   -6.413134
     66          1           0       -8.559787    2.589777   -4.957101
     67          1           0       -8.372123    1.441969   -6.179514
     68          1           0       -5.091810    0.414919   -6.935004
     69          1           0       -5.087625   -1.228011   -6.303651
     70          1           0       -3.703398    1.202896   -5.454364
     71          1           0       -3.014426   -0.445883   -5.637491
     72          1           0       -3.995554    0.030296   -4.179633
     73          1           0       -5.935487   -5.588454   -2.574040
     74          1           0       -6.327803   -4.455698   -3.916432
     75          1           0       -7.666212   -5.069994   -2.859613
     76          1           0       -8.045407   -3.986061    2.125441
     77          1           0       -6.196362   -5.991495    5.468908
     78          1           0       -5.970631   -4.195348    5.919055
     79          1           0       -4.843476   -5.148097    4.935429
     80         12           0        6.661222    0.663299    0.682041
     81          6           0        6.767601   -1.749094   -1.972781
     82          6           0        5.592644   -1.851743    2.723451
     83          6           0        6.125882    2.844278    2.923512
     84          6           0        6.622313    3.146463   -1.762971
     85          7           0        6.269670   -1.481142    0.307422
     86          6           0        6.404199   -2.298932   -0.725755
     87          6           0        6.212226   -3.801375   -0.386077
     88          6           0        5.305623   -3.636619    0.929134
     89          6           0        5.771298   -2.252107    1.375161
     90          6           0        3.817491   -3.566407    0.629357
     91          6           0        7.569400   -4.519056   -0.061996
     92          6           0        7.495923   -6.047117   -0.024614
     93          1           0        8.644482   -6.811111   -0.503780
     94          7           0        6.438089    0.460894    2.643627
     95          6           0        6.016288   -0.636875    3.305647
     96          6           0        6.005107   -0.268327    4.729799
     97          6           0        6.296723    1.186835    4.840059
     98          6           0        6.277237    1.566293    3.441585
     99          6           0        5.814128   -1.272899    5.828789
    100          6           0        6.538766    2.090185    6.011207
    101          8           0        6.536690    3.366086    5.889176
    102          6           0        6.685411    1.439777    7.321535
    103          7           0        6.197033    2.688054    0.596949
    104          6           0        6.068232    3.415591    1.720349
    105          6           0        6.008045    4.892229    1.410032
    106          6           0        6.367791    5.019879   -0.142988
    107          6           0        6.491755    3.521877   -0.497993
    108          6           0        4.666983    5.574456    1.679264
    109          6           0        7.539563    5.967889   -0.518369
    110          6           0        8.844294    5.405198   -0.002188
    111          7           0        6.874233    0.733690   -1.466848
    112          6           0        6.799759    1.875454   -2.294442
    113          6           0        6.890331    1.406527   -3.692407
    114          6           0        6.988844    0.011394   -3.581103
    115          6           0        6.941264   -0.364307   -2.211403
    116          6           0        6.827634    2.229963   -4.851772
    117          6           0        7.111561   -1.229729   -4.311360
    118          8           0        7.283594   -1.529504   -5.492149
    119          6           0        6.846525   -2.434293   -3.308780
    120          6           0        7.933826   -3.453978   -3.510082
    121          8           0        9.114708   -3.182401   -3.230084
    122          8           0        7.374461   -4.644845   -3.791670
    123          6           0        8.412597   -5.691374   -3.988885
    124          1           0        5.038260   -2.511514    3.391463
    125          1           0        6.049071    3.646157    3.661456
    126          1           0        6.716054    3.866349   -2.578838
    127          1           0        5.678499   -4.372163   -1.136485
    128          1           0        5.556930   -4.383063    1.678152
    129          1           0        3.621998   -3.520026   -0.431667
    130          1           0        3.460679   -2.669944    1.119344
    131          1           0        3.296546   -4.399863    1.109255
    132          1           0        7.840060   -4.318366    0.982612
    133          1           0        8.336201   -4.210781   -0.745819
    134          1           0        6.568749   -6.426252   -0.471340
    135          1           0        7.440755   -6.366450    1.018940
    136          1           0        5.457475   -2.233829    5.437889
    137          1           0        4.990110   -0.910976    6.453183
    138          1           0        6.703795   -1.390604    6.451137
    139          1           0        5.789219    0.864526    7.541485
    140          1           0        6.940731    2.240523    8.018304
    141          1           0        7.513149    0.723952    7.266121
    142          1           0        6.743581    5.438994    1.987223
    143          1           0        5.521774    5.412102   -0.726306
    144          1           0        4.744829    6.430509    2.375818
    145          1           0        3.978048    4.833618    2.062754
    146          1           0        4.147255    5.936887    0.793978
    147          1           0        7.408970    6.940314   -0.037235
    148          1           0        7.626723    6.145474   -1.585069
    149          1           0        8.861056    5.737289    1.040180
    150          1           0        9.684786    5.813206   -0.559986
    151          1           0        8.826235    4.309155    0.001300
    152          1           0        7.599059    1.879618   -5.524578
    153          1           0        6.964124    3.279977   -4.601518
    154          1           0        5.809178    2.017017   -5.187416
    155          1           0        5.859226   -2.838341   -3.535867
    156          1           0        8.237997   -6.132778   -4.974966
    157          1           0        8.329175   -6.363494   -3.114214
    158          1           0        9.441776   -5.365055   -4.082450
 ---------------------------------------------------------------------

 SCF Done:  E(RCAM-B3LYP) =  -4069.81204315     A.U. after   19 cycles

 Excitation energies and oscillator strengths:

 Excited State   1:      Singlet-A      1.6744 eV  740.46 nm  f=0.3452  <S**2>=0.000
     310 -> 316        0.16822
     311 -> 313       -0.15809
     312 -> 314        0.66761
     310 <- 316        0.10142
 This state for optimization and/or second-order correction.
 Total Energy, E(TD-HF/TD-DFT) =  -4069.75050943
 Copying the excited state density for this state as the 1-particle RhoCI density.

 Excited State   2:      Singlet-A      1.6794 eV  738.26 nm  f=0.3869  <S**2>=0.000
     309 -> 315        0.17086
     311 -> 313        0.66721
     312 -> 314        0.15793
     309 <- 315        0.10237

 Excited State   3:      Singlet-A      2.1853 eV  567.37 nm  f=0.0993  <S**2>=0.000
     310 -> 314        0.64045
     312 -> 316       -0.27105

 Excited State   4:      Singlet-A      2.1929 eV  565.40 nm  f=0.0993  <S**2>=0.000
     309 -> 313        0.63846
     311 -> 315       -0.27744

 Excited State   5:      Singlet-A      2.6457 eV  468.62 nm  f=0.0000  <S**2>=0.000
     312 -> 313        0.70710

 The electronic state is 1-A.
 Alpha  occ. eigenvalues --  -46.87861 -46.87546 -19.26421 -19.26232 -19.19158
 Alpha  occ. eigenvalues --  -19.19047 -19.18869 -19.18638 -19.18257 -19.17946
 Alpha  occ. eigenvalues --  -14.42516 -14.42370 -14.41508 -14.41250 -14.39466
 Alpha  occ. eigenvalues --  -14.39241 -14.38654 -14.38488 -10.39211 -10.38976
 Alpha  occ. eigenvalues --  -10.35501 -10.35317 -10.34479 -10.34121 -10.31834
 Alpha  occ. eigenvalues --  -10.31641 -10.31476 -10.31171 -10.30979 -10.30894
 Alpha  occ. eigenvalues --  -10.30638 -10.30571 -10.30294 -10.30257 -10.30244
 Alpha  occ. eigenvalues --  -10.30038 -10.29979 -10.29796 -10.29695 -10.29327
 Alpha  occ. eigenvalues --  -10.29313 -10.29297 -10.28832 -10.28647 -10.28551
 Alpha  occ. eigenvalues --  -10.28497 -10.28434 -10.28290 -10.28190 -10.27945
 Alpha  occ. eigenvalues --  -10.27892 -10.27859 -10.27790 -10.27647 -10.27535
 Alpha  occ. eigenvalues --  -10.27533 -10.27532 -10.27485 -10.27475 -10.27440
 Alpha  occ. eigenvalues --  -10.27366 -10.27365 -10.27358 -10.27305 -10.27253
 Alpha  occ. eigenvalues --  -10.26932 -10.26805 -10.26542 -10.26457 -10.26354
 Alpha  occ. eigenvalues --  -10.26300 -10.26197 -10.26075 -10.26073 -10.25909
 Alpha  occ. eigenvalues --  -10.25828 -10.25758 -10.25746 -10.25464 -10.25347
 Alpha  occ. eigenvalues --  -10.24903 -10.24847 -10.24764 -10.24697 -10.24670
 Alpha  occ. eigenvalues --  -10.24587  -3.16604  -3.16296  -1.91485  -1.91178
 Alpha  occ. eigenvalues --   -1.91072  -1.90914  -1.90767  -1.90604  -1.16769
 Alpha  occ. eigenvalues --   -1.16527  -1.08720  -1.08553  -1.07269  -1.06893
 Alpha  occ. eigenvalues --   -1.06832  -1.06778  -1.04649  -1.04368  -1.03821
 Alpha  occ. eigenvalues --   -1.03549  -1.03297  -1.02932  -1.02474  -1.02001
 Alpha  occ. eigenvalues --   -0.92048  -0.91870  -0.89567  -0.89399  -0.89265
 Alpha  occ. eigenvalues --   -0.88979  -0.88332  -0.88133  -0.87937  -0.87739
 Alpha  occ. eigenvalues --   -0.87688  -0.87560  -0.87331  -0.87023  -0.85058
 Alpha  occ. eigenvalues --   -0.84854  -0.83981  -0.83795  -0.83017  -0.82849
 Alpha  occ. eigenvalues --   -0.82723  -0.82522  -0.81681  -0.81482  -0.80674
 Alpha  occ. eigenvalues --   -0.80329  -0.78858  -0.78530  -0.77280  -0.77022
 Alpha  occ. eigenvalues --   -0.77013  -0.76771  -0.76004  -0.75693  -0.74950
 Alpha  occ. eigenvalues --   -0.74711  -0.72837  -0.72587  -0.71737  -0.71457
 Alpha  occ. eigenvalues --   -0.69941  -0.69676  -0.68946  -0.68690  -0.67710
 Alpha  occ. eigenvalues --   -0.67494  -0.67298  -0.67074  -0.65365  -0.65131
 Alpha  occ. eigenvalues --   -0.64929  -0.64693  -0.64656  -0.64532  -0.64320
 Alpha  occ. eigenvalues --   -0.64109  -0.62397  -0.62167  -0.60497  -0.60244
 Alpha  occ. eigenvalues --   -0.59877  -0.59647  -0.59054  -0.58881  -0.58573
 Alpha  occ. eigenvalues --   -0.58316  -0.57680  -0.57440  -0.57371  -0.57141
 Alpha  occ. eigenvalues --   -0.56379  -0.56092  -0.56086  -0.55768  -0.55586
 Alpha  occ. eigenvalues --   -0.55405  -0.55345  -0.55154  -0.54601  -0.54392
 Alpha  occ. eigenvalues --   -0.53974  -0.53749  -0.53362  -0.53296  -0.53125
 Alpha  occ. eigenvalues --   -0.53023  -0.52999  -0.52819  -0.52782  -0.52554
 Alpha  occ. eigenvalues --   -0.52472  -0.52324  -0.51985  -0.51786  -0.51695
 Alpha  occ. eigenvalues --   -0.51525  -0.51268  -0.51091  -0.50622  -0.50382
 Alpha  occ. eigenvalues --   -0.50074  -0.49978  -0.49859  -0.49772  -0.49586
 Alpha  occ. eigenvalues --   -0.49367  -0.49289  -0.49173  -0.49080  -0.48955
 Alpha  occ. eigenvalues --   -0.48676  -0.48520  -0.48509  -0.48428  -0.48291
 Alpha  occ. eigenvalues --   -0.48242  -0.47761  -0.47476  -0.47360  -0.47014
 Alpha  occ. eigenvalues --   -0.46858  -0.46635  -0.46595  -0.46424  -0.46406
 Alpha  occ. eigenvalues --   -0.46231  -0.46167  -0.45987  -0.45908  -0.45707
 Alpha  occ. eigenvalues --   -0.45249  -0.45121  -0.44659  -0.44567  -0.44404
 Alpha  occ. eigenvalues --   -0.44339  -0.44205  -0.44158  -0.44093  -0.43990
 Alpha  occ. eigenvalues --   -0.43982  -0.43832  -0.43586  -0.43450  -0.43440
 Alpha  occ. eigenvalues --   -0.43260  -0.43095  -0.42818  -0.42810  -0.42789
 Alpha  occ. eigenvalues --   -0.42705  -0.42464  -0.42067  -0.41859  -0.41775
 Alpha  occ. eigenvalues --   -0.41608  -0.41555  -0.41326  -0.41207  -0.40936
 Alpha  occ. eigenvalues --   -0.40882  -0.40856  -0.40620  -0.40620  -0.40571
 Alpha  occ. eigenvalues --   -0.40387  -0.40321  -0.40085  -0.39471  -0.39346
 Alpha  occ. eigenvalues --   -0.38518  -0.38254  -0.37834  -0.37516  -0.37372
 Alpha  occ. eigenvalues --   -0.37342  -0.37162  -0.37064  -0.36821  -0.36662
 Alpha  occ. eigenvalues --   -0.36271  -0.36110  -0.34352  -0.34139  -0.33896
 Alpha  occ. eigenvalues --   -0.33749  -0.33255  -0.33063  -0.31399  -0.31196
 Alpha  occ. eigenvalues --   -0.31102  -0.30858  -0.30118  -0.29849  -0.29513
 Alpha  occ. eigenvalues --   -0.29391  -0.29224  -0.29104  -0.24146  -0.23921
 Alpha  occ. eigenvalues --   -0.21190  -0.21003
 Alpha virt. eigenvalues --   -0.08838  -0.08682  -0.01810  -0.01575  -0.00122
 Alpha virt. eigenvalues --    0.00078   0.02127   0.02311   0.03051   0.03326
 Alpha virt. eigenvalues --    0.04646   0.04866   0.04974   0.05280   0.06082

 Mulliken charges:
               1
     1  Mg   0.838605
     2  C   -0.003272
     3  C   -0.094114
     4  C   -0.045748
     5  C   -0.063812
     6  N   -0.256818
     7  C   -0.052560
     8  C   -0.014008
     9  C   -0.087028
    10  C    0.046304
    11  C    0.104766
    12  C    0.053471
    13  C   -0.071612
    14  H    0.035251
    15  N   -0.433168
    16  C    0.168477
    17  C   -0.177042
    18  C   -0.003882
    19  C    0.148723
    20  C    0.110121
    21  C    0.012314
    22  O   -0.249436
    23  C    0.062446
    24  N   -0.341145
    25  C    0.041329
    26  C   -0.028240
    27  C   -0.024041
    28  C    0.074844
    29  C    0.076110
    30  C    0.035080
    31  C   -0.004624
    32  N   -0.310375
    33  C    0.080256
    34  C   -0.169840
    35  C    0.008171
    36  C    0.082812
    37  C    0.127375
    38  C    0.045792
    39  O   -0.188909
    40  C   -0.005230
    41  C    0.212886
    42  O   -0.257927
    43  O   -0.304499
    44  C    0.157986
    45  H   -0.017470
    46  H   -0.016615
    47  H   -0.041264
    48  H    0.000877
    49  H   -0.003975
    50  H    0.025475
    51  H    0.016607
    52  H    0.016783
    53  H    0.011359
    54  H    0.043534
    55  H    0.018056
    56  H    0.018258
    57  H    0.005946
    58  H    0.026999
    59  H    0.039764
    60  H    0.037474
    61  H    0.035735
    62  H    0.031525
    63  H    0.016756
    64  H    0.009594
    65  H    0.023442
    66  H    0.012491
    67  H    0.004917
    68  H    0.006766
    69  H    0.004899
    70  H    0.008888
    71  H    0.018787
    72  H    0.028489
    73  H    0.047160
    74  H    0.009398
    75  H    0.046111
    76  H    0.035278
    77  H    0.042944
    78  H    0.046533
    79  H    0.052690
    80  Mg   0.837868
    81  C   -0.016816
    82  C   -0.087400
    83  C   -0.045769
    84  C   -0.064968
    85  N   -0.254659
    86  C   -0.049432
    87  C   -0.015205
    88  C   -0.090490
    89  C    0.045717
    90  C    0.114110
    91  C    0.062466
    92  C   -0.077866
    93  H    0.034319
    94  N   -0.423498
    95  C    0.162835
    96  C   -0.174345
    97  C   -0.008183
    98  C    0.152345
    99  C    0.099305
   100  C    0.015371
   101  O   -0.253715
   102  C    0.061276
   103  N   -0.350015
   104  C    0.037603
   105  C   -0.019783
   106  C   -0.034826
   107  C    0.088927
   108  C    0.073770
   109  C    0.034821
   110  C   -0.007603
   111  N   -0.324077
   112  C    0.078441
   113  C   -0.163288
   114  C    0.002234
   115  C    0.096193
   116  C    0.131510
   117  C    0.042243
   118  O   -0.188177
   119  C    0.000997
   120  C    0.211238
   121  O   -0.251245
   122  O   -0.305433
   123  C    0.152124
   124  H   -0.018595
   125  H   -0.016113
   126  H   -0.040706
   127  H   -0.000197
   128  H   -0.004255
   129  H    0.022660
   130  H    0.015082
   131  H    0.018553
   132  H    0.013681
   133  H    0.037299
   134  H    0.021456
   135  H    0.019720
   136  H    0.009363
   137  H    0.026048
   138  H    0.039470
   139  H    0.038164
   140  H    0.035890
   141  H    0.033933
   142  H    0.014094
   143  H    0.012419
   144  H    0.024459
   145  H    0.011594
   146  H    0.005586
   147  H    0.005876
   148  H    0.003607
   149  H    0.010721
   150  H    0.017725
   151  H    0.030311
   152  H    0.045756
   153  H    0.008327
   154  H    0.046918
   155  H    0.035415
   156  H    0.043741
   157  H    0.049760
   158  H    0.053318
 Sum of Mulliken charges =  -0.00000

 Dipole moment (field-independent basis, Debye):
    X=             -4.7117    Y=              1.5509    Z=              5.2311  Tot=              7.2090
 Quadrupole moment (field-independent basis, Debye-Ang):
   XX=           -518.7557   YY=           -505.3751   ZZ=           -494.0595
   XY=            -31.9535   XZ=              7.0340   YZ=             -6.6670

 Normal termination of Gaussian 16 at Sat Sep 11 17:54:47 2021.
