 Gaussian 16, Revision A.03,
 Gaussian 16:  ES64L-G16RevA.03 25-Dec-2016

 -----------------------------------
 #p cam-b3lyp/Def2SVP td=(nstates=5)
 -----------------------------------

 --------------------------------
 TDDFT excited states in gaussian
 --------------------------------
 Symbolic Z-matrix:
 Charge =  0 Multiplicity = 1

                         Standard orientation:
 ---------------------------------------------------------------------
 Center     Atomic      Atomic             Coordinates (Angstroms)
 Number     Number       Type             X           Y           Z
 ---------------------------------------------------------------------
      1         12           0        6.455221    0.986675    0.277989
      2          6           0        7.203432   -2.434239   -0.463452
      3          6           0        7.265695    1.709854   -2.956699
      4          6           0        6.240735    4.060988    1.025799
      5          6           0        6.806615    0.178864    3.649877
      6          7           0        7.132495   -0.286956   -1.401240
      7          6           0        7.321858   -1.591743   -1.571071
      8          6           0        7.584259   -1.990056   -3.054266
      9          6           0        8.134650   -0.595177   -3.595912
     10          6           0        7.442801    0.335961   -2.615988
     11          6           0        9.643852   -0.435135   -3.443603
     12          6           0        6.272889   -2.415655   -3.796495
     13          6           0        6.481991   -3.125626   -5.137231
     14          1           0        5.563716   -4.188386   -5.517574
     15          7           0        6.240639    2.574414   -0.877819
     16          6           0        6.611924    2.687400   -2.175766
     17          6           0        6.240930    4.058216   -2.587966
     18          6           0        5.797458    4.794726   -1.371834
     19          6           0        6.103998    3.835276   -0.341849
     20          6           0        6.279553    4.528813   -4.009514
     21          6           0        5.202988    6.152513   -1.168971
     22          8           0        5.106625    6.686805   -0.011465
     23          6           0        4.812273    6.887077   -2.385852
     24          7           0        6.729082    2.036819    2.061198
     25          6           0        6.516747    3.355852    2.124821
     26          6           0        6.497314    3.837887    3.545104
     27          6           0        6.499193    2.527017    4.456898
     28          6           0        6.607876    1.461618    3.338246
     29          6           0        7.661409    4.748857    3.958660
     30          6           0        5.358044    2.391617    5.496064
     31          6           0        4.035993    2.206847    4.785331
     32          7           0        6.745595   -0.828586    1.431919
     33          6           0        6.887509   -0.929446    2.823451
     34          6           0        7.170073   -2.344301    3.127440
     35          6           0        7.189450   -2.969314    1.882118
     36          6           0        6.961142   -2.001305    0.862743
     37          6           0        7.426987   -2.884058    4.418599
     38          6           0        7.374365   -4.225454    1.173755
     39          8           0        7.504319   -5.402122    1.514428
     40          6           0        7.511850   -3.908547   -0.380753
     41          6           0        6.609064   -4.858322   -1.119815
     42          8           0        5.368876   -4.784302   -1.002253
     43          8           0        7.327489   -5.542042   -2.023659
     44          6           0        6.486047   -6.481465   -2.812084
     45          1           0        7.718021    2.088374   -3.875429
     46          1           0        6.063683    5.092529    1.337270
     47          1           0        6.844155   -0.162604    4.685948
     48          1           0        8.338119   -2.765746   -3.190003
     49          1           0        7.799000   -0.392437   -4.612749
     50          1           0       10.075420   -1.254639   -2.869075
     51          1           0        9.784946    0.511469   -2.921561
     52          1           0       10.120761   -0.314675   -4.416652
     53          1           0        5.747983   -1.523793   -4.138717
     54          1           0        5.649609   -3.037270   -3.152724
     55          1           0        7.515264   -3.452046   -5.258499
     56          1           0        6.332039   -2.398797   -5.935626
     57          1           0        6.803245    3.821541   -4.651431
     58          1           0        6.898682    5.425424   -4.031378
     59          1           0        5.285347    4.759153   -4.392697
     60          1           0        5.686513    7.016925   -3.024125
     61          1           0        4.324787    7.799062   -2.043084
     62          1           0        4.105956    6.280222   -2.953121
     63          1           0        5.596140    4.414320    3.750133
     64          1           0        7.410193    2.442550    5.049872
     65          1           0        7.343405    5.716870    4.346640
     66          1           0        8.317607    4.869261    3.097151
     67          1           0        8.342477    4.316222    4.691047
     68          1           0        5.277770    3.300355    6.091629
     69          1           0        5.497931    1.556476    6.182520
     70          1           0        3.740482    3.228975    4.551322
     71          1           0        3.310987    1.732785    5.447783
     72          1           0        4.162739    1.679662    3.839553
     73          1           0        6.864963   -3.816095    4.476934
     74          1           0        7.127301   -2.190938    5.204333
     75          1           0        8.507482   -3.018314    4.369998
     76          1           0        8.560087   -4.055439   -0.639101
     77          1           0        6.923457   -7.473830   -2.701998
     78          1           0        6.418373   -6.067109   -3.818133
     79          1           0        5.477975   -6.657948   -2.435277
     80         12           0       -6.622622   -1.052373    0.132104
     81          6           0       -6.929276    2.331093   -1.024259
     82          6           0       -5.970055    0.222617    3.227773
     83          6           0       -5.903742   -3.992967    1.082668
     84          6           0       -6.165412   -1.999713   -3.190428
     85          7           0       -6.494636    1.025357    0.879728
     86          6           0       -6.690715    2.228672    0.362113
     87          6           0       -6.707251    3.381178    1.401827
     88          6           0       -5.841479    2.676189    2.556077
     89          6           0       -6.143397    1.214935    2.230108
     90          6           0       -4.345656    2.899437    2.407760
     91          6           0       -8.157421    3.718974    1.896716
     92          6           0       -8.282302    5.031191    2.674059
     93          1           0       -9.498892    5.822621    2.512809
     94          7           0       -6.507649   -1.819495    1.958814
     95          6           0       -6.257661   -1.154656    3.106323
     96          6           0       -6.257441   -2.172062    4.168892
     97          6           0       -6.364090   -3.513682    3.533749
     98          6           0       -6.238943   -3.154069    2.135494
     99          6           0       -6.242063   -1.823731    5.628979
    100          6           0       -6.535800   -4.893485    4.093076
    101          8           0       -6.364980   -5.938740    3.371205
    102          6           0       -6.818139   -4.986783    5.532895
    103          7           0       -5.899263   -2.722002   -0.873605
    104          6           0       -5.724128   -3.891942   -0.234467
    105          6           0       -5.462255   -5.013320   -1.211367
    106          6           0       -5.738885   -4.394581   -2.659894
    107          6           0       -6.039523   -2.933948   -2.257956
    108          6           0       -4.056829   -5.613146   -1.174396
    109          6           0       -6.762937   -5.139395   -3.559472
    110          6           0       -8.149106   -5.025360   -2.967063
    111          7           0       -6.736878   -0.078010   -1.792896
    112          6           0       -6.482701   -0.654017   -3.056890
    113          6           0       -6.575533    0.430208   -4.056030
    114          6           0       -6.856792    1.575143   -3.295446
    115          6           0       -6.913843    1.232583   -1.917439
    116          6           0       -6.360348    0.291754   -5.456261
    117          6           0       -7.107897    2.997571   -3.343945
    118          8           0       -7.268614    3.821131   -4.243753
    119          6           0       -7.040861    3.573314   -1.863931
    120          6           0       -8.240940    4.455486   -1.653923
    121          8           0       -9.387629    3.974125   -1.657556
    122          8           0       -7.828050    5.676883   -1.269107
    123          6           0       -8.983005    6.584819   -1.037744
    124          1           0       -5.532702    0.517249    4.182132
    125          1           0       -5.754843   -5.042866    1.345357
    126          1           0       -6.132555   -2.231466   -4.257148
    127          1           0       -6.221007    4.293169    1.076836
    128          1           0       -6.216921    2.932023    3.543476
    129          1           0       -4.102645    3.398121    1.481262
    130          1           0       -3.897033    1.915079    2.436567
    131          1           0       -3.956056    3.433810    3.278957
    132          1           0       -8.442513    3.007380    2.682263
    133          1           0       -8.849723    3.717062    1.077362
    134          1           0       -7.394006    5.664250    2.559551
    135          1           0       -8.311261    4.800609    3.741775
    136          1           0       -5.996059   -0.766529    5.787733
    137          1           0       -5.404596   -2.367993    6.078757
    138          1           0       -7.164149   -2.109131    6.139825
    139          1           0       -6.012946   -4.513957    6.090173
    140          1           0       -6.996799   -6.046052    5.727609
    141          1           0       -7.727960   -4.415597    5.748733
    142          1           0       -6.144468   -5.838019   -1.045374
    143          1           0       -4.826401   -4.370172   -3.273577
    144          1           0       -4.052531   -6.703893   -0.989100
    145          1           0       -3.484946   -5.096222   -0.415262
    146          1           0       -3.459158   -5.444704   -2.068608
    147          1           0       -6.528372   -6.206023   -3.597301
    148          1           0       -6.782940   -4.777586   -4.582056
    149          1           0       -8.165659   -5.826328   -2.221902
    150          1           0       -8.906765   -5.182309   -3.732144
    151          1           0       -8.272059   -4.075871   -2.433201
    152          1           0       -7.142228    0.854611   -5.948567
    153          1           0       -6.371019   -0.753310   -5.758732
    154          1           0       -5.364799    0.734716   -5.545329
    155          1           0       -6.105161    4.125668   -1.769367
    156          1           0       -8.826385    7.467386   -1.665633
    157          1           0       -9.022367    6.745374    0.056062
    158          1           0       -9.957099    6.253381   -1.377967
 ---------------------------------------------------------------------

 SCF Done:  E(RCAM-B3LYP) =  -4069.81181073     A.U. after   19 cycles

 Excitation energies and oscillator strengths:

 Excited State   1:      Singlet-A      1.6671 eV  743.72 nm  f=0.0569  <S**2>=0.000
     309 -> 315        0.10602
     310 -> 316        0.13531
     311 -> 313        0.42282
     312 -> 314        0.54090
 This state for optimization and/or second-order correction.
 Total Energy, E(TD-HF/TD-DFT) =  -4069.75054662
 Copying the excited state density for this state as the 1-particle RhoCI density.

 Excited State   2:      Singlet-A      1.6878 eV  734.61 nm  f=0.6844  <S**2>=0.000
     309 -> 315        0.13986
     310 -> 316       -0.10885
     311 -> 313        0.53980
     312 -> 314       -0.42203

 Excited State   3:      Singlet-A      2.1851 eV  567.41 nm  f=0.0513  <S**2>=0.000
     309 -> 313        0.18818
     310 -> 314        0.61499
     312 -> 316       -0.26018

 Excited State   4:      Singlet-A      2.1937 eV  565.18 nm  f=0.1394  <S**2>=0.000
     309 -> 313        0.61246
     310 -> 314       -0.18662
     311 -> 315       -0.26685

 Excited State   5:      Singlet-A      2.6513 eV  467.64 nm  f=0.0000  <S**2>=0.000
     312 -> 313        0.70710

 The electronic state is 1-A.
 Alpha  occ. eigenvalues --  -46.87853 -46.87554 -19.26324 -19.26291 -19.19097
 Alpha  occ. eigenvalues --  -19.19062 -19.18860 -19.18598 -19.18214 -19.17975
 Alpha  occ. eigenvalues --  -14.42503 -14.42392 -14.41511 -14.41248 -14.39457
 Alpha  occ. eigenvalues --  -14.39245 -14.38642 -14.38499 -10.39122 -10.39025
 Alpha  occ. eigenvalues --  -10.35491 -10.35274 -10.34435 -10.34153 -10.31716
 Alpha  occ. eigenvalues --  -10.31707 -10.31456 -10.31213 -10.30956 -10.30917
 Alpha  occ. eigenvalues --  -10.30623 -10.30566 -10.30295 -10.30271 -10.30267
 Alpha  occ. eigenvalues --  -10.30023 -10.29988 -10.29782 -10.29683 -10.29327
 Alpha  occ. eigenvalues --  -10.29307 -10.29304 -10.28790 -10.28625 -10.28583
 Alpha  occ. eigenvalues --  -10.28573 -10.28415 -10.28303 -10.28157 -10.28041
 Alpha  occ. eigenvalues --  -10.27904 -10.27843 -10.27778 -10.27633 -10.27593
 Alpha  occ. eigenvalues --  -10.27565 -10.27537 -10.27505 -10.27456 -10.27391
 Alpha  occ. eigenvalues --  -10.27382 -10.27367 -10.27364 -10.27229 -10.27203
 Alpha  occ. eigenvalues --  -10.26973 -10.26744 -10.26612 -10.26430 -10.26310
 Alpha  occ. eigenvalues --  -10.26299 -10.26270 -10.26083 -10.26034 -10.25911
 Alpha  occ. eigenvalues --  -10.25901 -10.25831 -10.25795 -10.25516 -10.25189
 Alpha  occ. eigenvalues --  -10.24883 -10.24848 -10.24842 -10.24779 -10.24637
 Alpha  occ. eigenvalues --  -10.24575  -3.16596  -3.16304  -1.91478  -1.91186
 Alpha  occ. eigenvalues --   -1.91065  -1.90907  -1.90775  -1.90612  -1.16673
 Alpha  occ. eigenvalues --   -1.16584  -1.08672  -1.08586  -1.07262  -1.06882
 Alpha  occ. eigenvalues --   -1.06848  -1.06684  -1.04633  -1.04392  -1.03820
 Alpha  occ. eigenvalues --   -1.03557  -1.03290  -1.02931  -1.02468  -1.02005
 Alpha  occ. eigenvalues --   -0.92023  -0.91892  -0.89600  -0.89386  -0.89231
 Alpha  occ. eigenvalues --   -0.89054  -0.88367  -0.88098  -0.87924  -0.87726
 Alpha  occ. eigenvalues --   -0.87709  -0.87580  -0.87315  -0.87015  -0.85029
 Alpha  occ. eigenvalues --   -0.84902  -0.84024  -0.83756  -0.83015  -0.82818
 Alpha  occ. eigenvalues --   -0.82695  -0.82553  -0.81635  -0.81516  -0.80646
 Alpha  occ. eigenvalues --   -0.80350  -0.78843  -0.78537  -0.77279  -0.77046
 Alpha  occ. eigenvalues --   -0.76988  -0.76800  -0.75970  -0.75747  -0.74969
 Alpha  occ. eigenvalues --   -0.74672  -0.72831  -0.72600  -0.71728  -0.71467
 Alpha  occ. eigenvalues --   -0.70007  -0.69642  -0.68920  -0.68731  -0.67693
 Alpha  occ. eigenvalues --   -0.67501  -0.67261  -0.67106  -0.65335  -0.65179
 Alpha  occ. eigenvalues --   -0.64910  -0.64679  -0.64672  -0.64559  -0.64344
 Alpha  occ. eigenvalues --   -0.64092  -0.62349  -0.62196  -0.60494  -0.60229
 Alpha  occ. eigenvalues --   -0.59850  -0.59700  -0.59045  -0.58889  -0.58560
 Alpha  occ. eigenvalues --   -0.58327  -0.57633  -0.57476  -0.57370  -0.57130
 Alpha  occ. eigenvalues --   -0.56359  -0.56113  -0.56023  -0.55806  -0.55567
 Alpha  occ. eigenvalues --   -0.55412  -0.55359  -0.55142  -0.54590  -0.54388
 Alpha  occ. eigenvalues --   -0.53939  -0.53817  -0.53353  -0.53265  -0.53128
 Alpha  occ. eigenvalues --   -0.53047  -0.52969  -0.52811  -0.52796  -0.52562
 Alpha  occ. eigenvalues --   -0.52541  -0.52298  -0.51970  -0.51814  -0.51657
 Alpha  occ. eigenvalues --   -0.51565  -0.51255  -0.51112  -0.50608  -0.50365
 Alpha  occ. eigenvalues --   -0.50111  -0.49962  -0.49874  -0.49742  -0.49558
 Alpha  occ. eigenvalues --   -0.49387  -0.49261  -0.49140  -0.49110  -0.49012
 Alpha  occ. eigenvalues --   -0.48644  -0.48527  -0.48490  -0.48469  -0.48258
 Alpha  occ. eigenvalues --   -0.48229  -0.47747  -0.47494  -0.47347  -0.47007
 Alpha  occ. eigenvalues --   -0.46860  -0.46607  -0.46599  -0.46456  -0.46418
 Alpha  occ. eigenvalues --   -0.46223  -0.46169  -0.45981  -0.45873  -0.45740
 Alpha  occ. eigenvalues --   -0.45275  -0.45072  -0.44630  -0.44559  -0.44425
 Alpha  occ. eigenvalues --   -0.44378  -0.44213  -0.44134  -0.44064  -0.44031
 Alpha  occ. eigenvalues --   -0.43974  -0.43843  -0.43546  -0.43471  -0.43442
 Alpha  occ. eigenvalues --   -0.43283  -0.43084  -0.42853  -0.42804  -0.42770
 Alpha  occ. eigenvalues --   -0.42721  -0.42440  -0.42085  -0.41864  -0.41758
 Alpha  occ. eigenvalues --   -0.41583  -0.41573  -0.41361  -0.41195  -0.40930
 Alpha  occ. eigenvalues --   -0.40879  -0.40868  -0.40646  -0.40619  -0.40594
 Alpha  occ. eigenvalues --   -0.40377  -0.40275  -0.40135  -0.39550  -0.39314
 Alpha  occ. eigenvalues --   -0.38546  -0.38227  -0.37794  -0.37564  -0.37392
 Alpha  occ. eigenvalues --   -0.37310  -0.37156  -0.37102  -0.36767  -0.36694
 Alpha  occ. eigenvalues --   -0.36252  -0.36111  -0.34342  -0.34151  -0.33815
 Alpha  occ. eigenvalues --   -0.33791  -0.33242  -0.33072  -0.31391  -0.31156
 Alpha  occ. eigenvalues --   -0.31091  -0.30867  -0.30074  -0.29882  -0.29498
 Alpha  occ. eigenvalues --   -0.29373  -0.29225  -0.29118  -0.24137  -0.23931
 Alpha  occ. eigenvalues --   -0.21183  -0.21012
 Alpha virt. eigenvalues --   -0.08826  -0.08690  -0.01808  -0.01573  -0.00103
 Alpha virt. eigenvalues --    0.00076   0.02148   0.02297   0.03053   0.03323
 Alpha virt. eigenvalues --    0.04666   0.04833   0.05055   0.05233   0.06134

 Mulliken charges:
               1
     1  Mg   0.838587
     2  C   -0.002892
     3  C   -0.093849
     4  C   -0.046093
     5  C   -0.064146
     6  N   -0.256758
     7  C   -0.052464
     8  C   -0.014020
     9  C   -0.087029
    10  C    0.046290
    11  C    0.104764
    12  C    0.053408
    13  C   -0.071812
    14  H    0.035976
    15  N   -0.433198
    16  C    0.168414
    17  C   -0.176882
    18  C   -0.003955
    19  C    0.148719
    20  C    0.110069
    21  C    0.012233
    22  O   -0.249949
    23  C    0.062432
    24  N   -0.341087
    25  C    0.041241
    26  C   -0.028150
    27  C   -0.023884
    28  C    0.074636
    29  C    0.076160
    30  C    0.035269
    31  C   -0.004381
    32  N   -0.310447
    33  C    0.080280
    34  C   -0.169848
    35  C    0.008457
    36  C    0.082880
    37  C    0.127337
    38  C    0.046134
    39  O   -0.188290
    40  C   -0.005349
    41  C    0.212941
    42  O   -0.257157
    43  O   -0.304747
    44  C    0.157668
    45  H   -0.017321
    46  H   -0.017002
    47  H   -0.041762
    48  H    0.001030
    49  H   -0.003817
    50  H    0.025508
    51  H    0.016447
    52  H    0.016865
    53  H    0.011294
    54  H    0.044005
    55  H    0.017979
    56  H    0.018148
    57  H    0.006048
    58  H    0.027001
    59  H    0.040135
    60  H    0.037530
    61  H    0.035769
    62  H    0.031971
    63  H    0.016087
    64  H    0.009548
    65  H    0.023063
    66  H    0.012830
    67  H    0.004792
    68  H    0.006054
    69  H    0.004677
    70  H    0.008322
    71  H    0.017021
    72  H    0.029400
    73  H    0.047605
    74  H    0.008788
    75  H    0.046095
    76  H    0.035264
    77  H    0.043083
    78  H    0.046409
    79  H    0.053628
    80  Mg   0.838080
    81  C   -0.016975
    82  C   -0.087763
    83  C   -0.045009
    84  C   -0.064737
    85  N   -0.254617
    86  C   -0.049895
    87  C   -0.015107
    88  C   -0.090533
    89  C    0.045900
    90  C    0.114353
    91  C    0.062554
    92  C   -0.077797
    93  H    0.034526
    94  N   -0.423651
    95  C    0.163166
    96  C   -0.174333
    97  C   -0.007412
    98  C    0.152236
    99  C    0.099258
   100  C    0.015814
   101  O   -0.252688
   102  C    0.061177
   103  N   -0.349994
   104  C    0.037943
   105  C   -0.020150
   106  C   -0.034572
   107  C    0.088881
   108  C    0.073184
   109  C    0.034752
   110  C   -0.007621
   111  N   -0.323988
   112  C    0.078316
   113  C   -0.163452
   114  C    0.001986
   115  C    0.096147
   116  C    0.131557
   117  C    0.042010
   118  O   -0.188678
   119  C    0.001027
   120  C    0.211162
   121  O   -0.251116
   122  O   -0.305617
   123  C    0.152128
   124  H   -0.019630
   125  H   -0.014998
   126  H   -0.040854
   127  H   -0.000722
   128  H   -0.004522
   129  H    0.022527
   130  H    0.014908
   131  H    0.016314
   132  H    0.013850
   133  H    0.037525
   134  H    0.020867
   135  H    0.019532
   136  H    0.008614
   137  H    0.026555
   138  H    0.039637
   139  H    0.038483
   140  H    0.036498
   141  H    0.033565
   142  H    0.014204
   143  H    0.012494
   144  H    0.025384
   145  H    0.013350
   146  H    0.006270
   147  H    0.006299
   148  H    0.003166
   149  H    0.011012
   150  H    0.017523
   151  H    0.030034
   152  H    0.045611
   153  H    0.008333
   154  H    0.046299
   155  H    0.034800
   156  H    0.043624
   157  H    0.049563
   158  H    0.053431
 Sum of Mulliken charges =  -0.00000

 Dipole moment (field-independent basis, Debye):
    X=              3.7085    Y=              2.6757    Z=              0.6138  Tot=              4.6140
 Quadrupole moment (field-independent basis, Debye-Ang):
   XX=           -522.0293   YY=           -542.3280   ZZ=           -454.9510
   XY=             19.8897   XZ=            -59.6839   YZ=             38.5600

 Normal termination of Gaussian 16 at Sat Sep  4 08:40:53 2021.
