 Gaussian 16, Revision A.03,
 Gaussian 16:  ES64L-G16RevA.03 25-Dec-2016

 -----------------------------------
 #p cam-b3lyp/Def2SVP td=(nstates=5)
 -----------------------------------

 --------------------------------
 TDDFT excited states in gaussian
 --------------------------------
 Symbolic Z-matrix:
 Charge =  0 Multiplicity = 1

                         Standard orientation:
 ---------------------------------------------------------------------
 Center     Atomic      Atomic             Coordinates (Angstroms)
 Number     Number       Type             X           Y           Z
 ---------------------------------------------------------------------
      1         12           0        6.194826    0.868093    0.424813
      2          6           0        6.649892   -2.291402   -1.194669
      3          6           0        7.126061    2.338570   -2.510074
      4          6           0        6.240389    3.644619    1.956299
      5          6           0        6.410615   -0.824903    3.463376
      6          7           0        6.787292    0.024033   -1.534062
      7          6           0        6.863150   -1.202005   -2.042242
      8          6           0        7.116555   -1.219066   -3.579405
      9          6           0        7.798573    0.213307   -3.738010
     10          6           0        7.174123    0.913234   -2.543821
     11          6           0        9.312945    0.190426   -3.557304
     12          6           0        5.786538   -1.314354   -4.400200
     13          6           0        5.956550   -1.663387   -5.881627
     14          1           0        4.954726   -2.501366   -6.523100
     15          7           0        6.143521    2.716225   -0.271338
     16          6           0        6.547337    3.131869   -1.495862
     17          6           0        6.307235    4.590570   -1.530823
     18          6           0        5.908482    5.019028   -0.161329
     19          6           0        6.109489    3.799179    0.578227
     20          6           0        6.413805    5.412326   -2.778665
     21          6           0        5.433283    6.323990    0.394901
     22          8           0        5.363336    6.542144    1.652713
     23          6           0        5.131937    7.384480   -0.583666
     24          7           0        6.527803    1.384040    2.419947
     25          6           0        6.432299    2.653725    2.829537
     26          6           0        6.429460    2.745731    4.326690
     27          6           0        6.298043    1.246892    4.861448
     28          6           0        6.332377    0.507203    3.501319
     29          6           0        7.661996    3.406913    4.958911
     30          6           0        5.130337    0.947354    5.834669
     31          6           0        3.810487    1.076124    5.107682
     32          7           0        6.301442   -1.204984    1.058872
     33          6           0        6.408053   -1.680011    2.374037
     34          6           0        6.558182   -3.144607    2.293502
     35          6           0        6.545029   -3.419892    0.927526
     36          6           0        6.422495   -2.201688    0.200026
     37          6           0        6.742203   -4.025334    3.395723
     38          6           0        6.630748   -4.457425   -0.087379
     39          8           0        6.649367   -5.689013   -0.069013
     40          6           0        6.824585   -3.757364   -1.504478
     41          6           0        5.854860   -4.394038   -2.462385
     42          8           0        4.624182   -4.241500   -2.322637
     43          8           0        6.526339   -4.878655   -3.518228
     44          6           0        5.619538   -5.497981   -4.521374
     45          1           0        7.627143    2.902421   -3.299333
     46          1           0        6.149904    4.569861    2.529167
     47          1           0        6.398497   -1.428316    4.372881
     48          1           0        7.800937   -1.996876   -3.918607
     49          1           0        7.501134    0.705390   -4.663811
     50          1           0        9.659324   -0.786742   -3.221022
     51          1           0        9.527854    0.949989   -2.805392
     52          1           0        9.816598    0.518398   -4.466999
     53          1           0        5.349331   -0.320204   -4.492810
     54          1           0        5.098708   -2.024082   -3.939220
     55          1           0        6.958821   -2.038691   -6.090212
     56          1           0        5.886541   -0.741982   -6.459824
     57          1           0        6.884414    4.853959   -3.586934
     58          1           0        7.110407    6.223358   -2.567283
     59          1           0        5.451246    5.824214   -3.082245
     60          1           0        6.025919    7.597615   -1.170111
     61          1           0        4.721103    8.214760   -0.010343
     62          1           0        4.385143    7.014354   -1.286699
     63          1           0        5.579395    3.327268    4.681132
     64          1           0        7.186809    0.927604    5.406263
     65          1           0        7.424083    4.263804    5.589657
     66          1           0        8.342130    3.689319    4.155819
     67          1           0        8.288279    2.737372    5.547893
     68          1           0        5.120068    1.671284    6.648774
     69          1           0        5.182778   -0.047807    6.276432
     70          1           0        3.611294    2.146240    5.152475
     71          1           0        3.034108    0.512453    5.626066
     72          1           0        3.907403    0.806468    4.055837
     73          1           0        6.098648   -4.885144    3.209890
     74          1           0        6.490758   -3.538597    4.337777
     75          1           0        7.807220   -4.239384    3.307540
     76          1           0        7.860239   -3.925572   -1.798160
     77          1           0        5.964982   -6.519822   -4.678676
     78          1           0        5.607563   -4.829700   -5.382572
     79          1           0        4.592975   -5.675163   -4.198709
     80         12           0       -6.992938    0.130524   -0.194960
     81          6           0       -4.329321   -2.057464    0.803466
     82          6           0       -4.731940    2.682639   -0.099237
     83          6           0       -9.401808    2.148800   -0.632382
     84          6           0       -9.223823   -2.320051    0.883725
     85          7           0       -4.838143    0.180460    0.301645
     86          6           0       -3.918450   -0.722606    0.606557
     87          6           0       -2.464793   -0.178529    0.627300
     88          6           0       -2.791468    1.369905    0.900271
     89          6           0       -4.194782    1.433022    0.300797
     90          6           0       -2.887230    1.713441    2.377483
     91          6           0       -1.732401   -0.377638   -0.745996
     92          6           0       -0.219190   -0.153208   -0.706293
     93          1           0        0.630347   -0.985349   -1.553824
     94          7           0       -6.992513    2.015373   -0.816179
     95          6           0       -5.981478    2.903980   -0.718898
     96          6           0       -6.488196    4.155463   -1.303015
     97          6           0       -7.935304    3.980830   -1.603192
     98          6           0       -8.176114    2.687016   -0.996453
     99          6           0       -5.604164    5.332331   -1.597780
    100          6           0       -8.939618    4.842205   -2.307173
    101          8           0      -10.196567    4.599331   -2.244680
    102          6           0       -8.415968    6.031736   -2.994420
    103          7           0       -9.015426    0.035558    0.277143
    104          6           0       -9.854011    1.027113   -0.071454
    105          6           0      -11.294270    0.617534    0.124233
    106          6           0      -11.255379   -0.947775    0.449599
    107          6           0       -9.726206   -1.163101    0.474767
    108          6           0      -12.049047    1.349149    1.233936
    109          6           0      -12.117714   -1.875184   -0.449817
    110          6           0      -11.560263   -1.895250   -1.854894
    111          7           0       -6.844087   -1.905339    0.512986
    112          6           0       -7.901075   -2.740749    0.935989
    113          6           0       -7.294134   -3.991242    1.436315
    114          6           0       -5.913973   -3.785830    1.289871
    115          6           0       -5.676573   -2.490367    0.756105
    116          6           0       -8.001556   -5.097699    1.985340
    117          6           0       -4.603471   -4.366232    1.475381
    118          8           0       -4.183034   -5.472440    1.811960
    119          6           0       -3.513834   -3.224516    1.286787
    120          6           0       -2.439572   -3.753500    0.376473
    121          8           0       -2.693202   -4.022361   -0.810962
    122          8           0       -1.248442   -3.649366    0.993514
    123          6           0       -0.149726   -4.151309    0.125939
    124          1           0       -4.162006    3.586174    0.119148
    125          1           0      -10.274560    2.762955   -0.866054
    126          1           0       -9.856160   -3.170957    1.145969
    127          1           0       -1.843357   -0.573172    1.422194
    128          1           0       -2.113319    2.019155    0.352591
    129          1           0       -2.836476    0.832569    3.000083
    130          1           0       -3.840108    2.210825    2.502663
    131          1           0       -2.124866    2.451404    2.643071
    132          1           0       -2.024458    0.431150   -1.428132
    133          1           0       -1.943319   -1.347344   -1.153213
    134          1           0        0.167214   -0.129516    0.319905
    135          1           0       -0.006103    0.845148   -1.096030
    136          1           0       -4.623436    5.229081   -1.117251
    137          1           0       -6.056028    6.202116   -1.108742
    138          1           0       -5.515104    5.534838   -2.667242
    139          1           0       -7.898831    6.664755   -2.277266
    140          1           0       -9.271190    6.470154   -3.512360
    141          1           0       -7.667872    5.711010   -3.727978
    142          1           0      -11.867306    0.774073   -0.781438
    143          1           0      -11.619646   -1.162023    1.465100
    144          1           0      -12.965848    1.855688    0.877606
    145          1           0      -11.375567    2.060559    1.693133
    146          1           0      -12.341903    0.729202    2.079572
    147          1           0      -13.136858   -1.488218   -0.525741
    148          1           0      -12.186373   -2.892961   -0.080477
    149          1           0      -11.992219   -0.996220   -2.304611
    150          1           0      -11.879999   -2.792431   -2.381094
    151          1           0      -10.471294   -1.769795   -1.848088
    152          1           0       -7.558398   -5.990419    1.564436
    153          1           0       -9.065255   -5.038769    1.764309
    154          1           0       -7.794728   -4.953021    3.049087
    155          1           0       -3.126452   -2.974863    2.275317
    156          1           0        0.379538   -4.922194    0.694542
    157          1           0        0.429716   -3.256647   -0.169974
    158          1           0       -0.426761   -4.699732   -0.766766
 ---------------------------------------------------------------------

 SCF Done:  E(RCAM-B3LYP) =  -4069.81246834     A.U. after   19 cycles

 Excitation energies and oscillator strengths:

 Excited State   1:      Singlet-A      1.6632 eV  745.47 nm  f=0.0049  <S**2>=0.000
     309 -> 315       -0.11513
     310 -> 316        0.12569
     311 -> 313       -0.46184
     312 -> 314        0.50831
 This state for optimization and/or second-order correction.
 Total Energy, E(TD-HF/TD-DFT) =  -4069.75134775
 Copying the excited state density for this state as the 1-particle RhoCI density.

 Excited State   2:      Singlet-A      1.6901 eV  733.60 nm  f=0.7307  <S**2>=0.000
     309 -> 315        0.13171
     310 -> 316        0.11887
     311 -> 313        0.50694
     312 -> 314        0.46071

 Excited State   3:      Singlet-A      2.1845 eV  567.57 nm  f=0.1084  <S**2>=0.000
     310 -> 314        0.64279
     312 -> 316       -0.27187

 Excited State   4:      Singlet-A      2.1924 eV  565.52 nm  f=0.0944  <S**2>=0.000
     309 -> 313        0.64079
     311 -> 315       -0.27789

 Excited State   5:      Singlet-A      2.5652 eV  483.33 nm  f=0.0000  <S**2>=0.000
     312 -> 313        0.70675

 The electronic state is 1-A.
 Alpha  occ. eigenvalues --  -46.88044 -46.87483 -19.26476 -19.25751 -19.19264
 Alpha  occ. eigenvalues --  -19.19080 -19.18685 -19.18579 -19.18387 -19.17811
 Alpha  occ. eigenvalues --  -14.42683 -14.42311 -14.41690 -14.41185 -14.39650
 Alpha  occ. eigenvalues --  -14.39178 -14.38831 -14.38418 -10.39317 -10.38625
 Alpha  occ. eigenvalues --  -10.35714 -10.35260 -10.34607 -10.33976 -10.31812
 Alpha  occ. eigenvalues --  -10.31627 -10.31142 -10.31105 -10.30881 -10.30820
 Alpha  occ. eigenvalues --  -10.30803 -10.30751 -10.30446 -10.30221 -10.30171
 Alpha  occ. eigenvalues --  -10.30156 -10.29990 -10.29870 -10.29722 -10.29495
 Alpha  occ. eigenvalues --  -10.29277 -10.29226 -10.28948 -10.28686 -10.28607
 Alpha  occ. eigenvalues --  -10.28454 -10.28312 -10.28245 -10.28213 -10.28025
 Alpha  occ. eigenvalues --  -10.27955 -10.27912 -10.27829 -10.27823 -10.27728
 Alpha  occ. eigenvalues --  -10.27717 -10.27679 -10.27638 -10.27490 -10.27387
 Alpha  occ. eigenvalues --  -10.27375 -10.27342 -10.27297 -10.27278 -10.27242
 Alpha  occ. eigenvalues --  -10.26903 -10.26743 -10.26689 -10.26420 -10.26407
 Alpha  occ. eigenvalues --  -10.26374 -10.26317 -10.26251 -10.26022 -10.26021
 Alpha  occ. eigenvalues --  -10.25815 -10.25768 -10.25689 -10.25637 -10.25280
 Alpha  occ. eigenvalues --  -10.25065 -10.25029 -10.24975 -10.24685 -10.24618
 Alpha  occ. eigenvalues --  -10.24516  -3.16788  -3.16233  -1.91670  -1.91256
 Alpha  occ. eigenvalues --   -1.91116  -1.91098  -1.90704  -1.90541  -1.16833
 Alpha  occ. eigenvalues --   -1.16076  -1.08844  -1.08396  -1.07484  -1.06877
 Alpha  occ. eigenvalues --   -1.06834  -1.06461  -1.04814  -1.04303  -1.03999
 Alpha  occ. eigenvalues --   -1.03483  -1.03476  -1.02866  -1.02651  -1.01933
 Alpha  occ. eigenvalues --   -0.92203  -0.91764  -0.89757  -0.89389  -0.89328
 Alpha  occ. eigenvalues --   -0.88912  -0.88520  -0.88086  -0.88066  -0.87898
 Alpha  occ. eigenvalues --   -0.87615  -0.87521  -0.87486  -0.86972  -0.85192
 Alpha  occ. eigenvalues --   -0.84762  -0.84170  -0.83707  -0.83222  -0.82865
 Alpha  occ. eigenvalues --   -0.82793  -0.82415  -0.81788  -0.81222  -0.80817
 Alpha  occ. eigenvalues --   -0.80130  -0.79033  -0.78472  -0.77439  -0.77135
 Alpha  occ. eigenvalues --   -0.76942  -0.76605  -0.76125  -0.75531  -0.75118
 Alpha  occ. eigenvalues --   -0.74591  -0.73001  -0.72519  -0.71890  -0.71368
 Alpha  occ. eigenvalues --   -0.70149  -0.69613  -0.69087  -0.68595  -0.67873
 Alpha  occ. eigenvalues --   -0.67434  -0.67392  -0.66958  -0.65497  -0.65077
 Alpha  occ. eigenvalues --   -0.65015  -0.64838  -0.64563  -0.64503  -0.64350
 Alpha  occ. eigenvalues --   -0.64013  -0.62503  -0.61860  -0.60686  -0.60184
 Alpha  occ. eigenvalues --   -0.60016  -0.59576  -0.59215  -0.58788  -0.58732
 Alpha  occ. eigenvalues --   -0.58203  -0.57805  -0.57542  -0.57251  -0.57022
 Alpha  occ. eigenvalues --   -0.56534  -0.56174  -0.56015  -0.55750  -0.55563
 Alpha  occ. eigenvalues --   -0.55507  -0.55187  -0.54986  -0.54745  -0.54169
 Alpha  occ. eigenvalues --   -0.54099  -0.53666  -0.53532  -0.53443  -0.53144
 Alpha  occ. eigenvalues --   -0.53024  -0.52990  -0.52900  -0.52682  -0.52600
 Alpha  occ. eigenvalues --   -0.52488  -0.52241  -0.52120  -0.51828  -0.51697
 Alpha  occ. eigenvalues --   -0.51414  -0.51401  -0.50946  -0.50825  -0.50342
 Alpha  occ. eigenvalues --   -0.50263  -0.50155  -0.49802  -0.49737  -0.49712
 Alpha  occ. eigenvalues --   -0.49440  -0.49294  -0.49291  -0.48971  -0.48864
 Alpha  occ. eigenvalues --   -0.48802  -0.48701  -0.48669  -0.48279  -0.48213
 Alpha  occ. eigenvalues --   -0.48119  -0.47918  -0.47520  -0.47365  -0.47021
 Alpha  occ. eigenvalues --   -0.46908  -0.46762  -0.46589  -0.46508  -0.46382
 Alpha  occ. eigenvalues --   -0.46307  -0.46080  -0.46019  -0.45838  -0.45508
 Alpha  occ. eigenvalues --   -0.45428  -0.45033  -0.44791  -0.44738  -0.44380
 Alpha  occ. eigenvalues --   -0.44292  -0.44268  -0.44249  -0.44239  -0.43920
 Alpha  occ. eigenvalues --   -0.43879  -0.43699  -0.43698  -0.43604  -0.43248
 Alpha  occ. eigenvalues --   -0.43227  -0.43089  -0.42925  -0.42868  -0.42699
 Alpha  occ. eigenvalues --   -0.42422  -0.42365  -0.42239  -0.41929  -0.41764
 Alpha  occ. eigenvalues --   -0.41740  -0.41444  -0.41358  -0.41221  -0.41092
 Alpha  occ. eigenvalues --   -0.41067  -0.40796  -0.40786  -0.40550  -0.40483
 Alpha  occ. eigenvalues --   -0.40433  -0.40301  -0.39954  -0.39690  -0.39286
 Alpha  occ. eigenvalues --   -0.38694  -0.38180  -0.37949  -0.37552  -0.37478
 Alpha  occ. eigenvalues --   -0.37370  -0.37088  -0.36943  -0.36934  -0.36418
 Alpha  occ. eigenvalues --   -0.36378  -0.35903  -0.34522  -0.34063  -0.34018
 Alpha  occ. eigenvalues --   -0.33451  -0.33425  -0.32971  -0.31609  -0.31272
 Alpha  occ. eigenvalues --   -0.31136  -0.30779  -0.30245  -0.29704  -0.29696
 Alpha  occ. eigenvalues --   -0.29558  -0.29161  -0.29027  -0.24319  -0.23849
 Alpha  occ. eigenvalues --   -0.21364  -0.20940
 Alpha virt. eigenvalues --   -0.09013  -0.08614  -0.01992  -0.01511  -0.00304
 Alpha virt. eigenvalues --    0.00142   0.01967   0.02404   0.02629   0.03394
 Alpha virt. eigenvalues --    0.04502   0.04864   0.04985   0.05600   0.05997

 Mulliken charges:
               1
     1  Mg   0.836612
     2  C   -0.003626
     3  C   -0.093946
     4  C   -0.046366
     5  C   -0.063757
     6  N   -0.256878
     7  C   -0.052358
     8  C   -0.013877
     9  C   -0.086973
    10  C    0.046155
    11  C    0.104683
    12  C    0.053450
    13  C   -0.072417
    14  H    0.037451
    15  N   -0.433227
    16  C    0.168025
    17  C   -0.177237
    18  C   -0.004419
    19  C    0.148265
    20  C    0.110074
    21  C    0.011357
    22  O   -0.249786
    23  C    0.062829
    24  N   -0.341057
    25  C    0.041193
    26  C   -0.028200
    27  C   -0.024091
    28  C    0.074492
    29  C    0.076020
    30  C    0.035138
    31  C   -0.004652
    32  N   -0.310504
    33  C    0.080123
    34  C   -0.169607
    35  C    0.008364
    36  C    0.082190
    37  C    0.127402
    38  C    0.045232
    39  O   -0.187425
    40  C   -0.005034
    41  C    0.213759
    42  O   -0.259759
    43  O   -0.304351
    44  C    0.157269
    45  H   -0.017122
    46  H   -0.016861
    47  H   -0.040833
    48  H    0.001498
    49  H   -0.003728
    50  H    0.025774
    51  H    0.016497
    52  H    0.017192
    53  H    0.010845
    54  H    0.043232
    55  H    0.018316
    56  H    0.018161
    57  H    0.006346
    58  H    0.027271
    59  H    0.038946
    60  H    0.038097
    61  H    0.035476
    62  H    0.030371
    63  H    0.016003
    64  H    0.010161
    65  H    0.023387
    66  H    0.012825
    67  H    0.005301
    68  H    0.006877
    69  H    0.005716
    70  H    0.007939
    71  H    0.018594
    72  H    0.027715
    73  H    0.047992
    74  H    0.009659
    75  H    0.046650
    76  H    0.035945
    77  H    0.044042
    78  H    0.046907
    79  H    0.053853
    80  Mg   0.837375
    81  C   -0.016378
    82  C   -0.088005
    83  C   -0.045883
    84  C   -0.065427
    85  N   -0.254481
    86  C   -0.049884
    87  C   -0.014733
    88  C   -0.090353
    89  C    0.045677
    90  C    0.114359
    91  C    0.063220
    92  C   -0.081684
    93  H    0.043775
    94  N   -0.423391
    95  C    0.162648
    96  C   -0.174931
    97  C   -0.008249
    98  C    0.151996
    99  C    0.099485
   100  C    0.015251
   101  O   -0.253644
   102  C    0.061355
   103  N   -0.350167
   104  C    0.037362
   105  C   -0.019680
   106  C   -0.034791
   107  C    0.089101
   108  C    0.073822
   109  C    0.034819
   110  C   -0.007599
   111  N   -0.324194
   112  C    0.078699
   113  C   -0.163421
   114  C    0.002545
   115  C    0.096070
   116  C    0.131507
   117  C    0.042138
   118  O   -0.186838
   119  C    0.001397
   120  C    0.211491
   121  O   -0.251784
   122  O   -0.306877
   123  C    0.151122
   124  H   -0.019846
   125  H   -0.016094
   126  H   -0.040812
   127  H    0.000064
   128  H   -0.004524
   129  H    0.022204
   130  H    0.013857
   131  H    0.016557
   132  H    0.012310
   133  H    0.038653
   134  H    0.020321
   135  H    0.016870
   136  H    0.008557
   137  H    0.025748
   138  H    0.038861
   139  H    0.038055
   140  H    0.035866
   141  H    0.033483
   142  H    0.014060
   143  H    0.012166
   144  H    0.024734
   145  H    0.011576
   146  H    0.005374
   147  H    0.005905
   148  H    0.003536
   149  H    0.010707
   150  H    0.017680
   151  H    0.030365
   152  H    0.046214
   153  H    0.008140
   154  H    0.046752
   155  H    0.034635
   156  H    0.046959
   157  H    0.054776
   158  H    0.053893
 Sum of Mulliken charges =  -0.00000

 Dipole moment (field-independent basis, Debye):
    X=              3.9464    Y=              6.9614    Z=             -1.9477  Tot=              8.2358
 Quadrupole moment (field-independent basis, Debye-Ang):
   XX=           -485.7726   YY=           -551.5692   ZZ=           -474.0551
   XY=             23.7145   XZ=            -31.8938   YZ=            -10.4278

 Normal termination of Gaussian 16 at Sat Sep 11 11:17:26 2021.
