 Gaussian 16, Revision A.03,
 Gaussian 16:  ES64L-G16RevA.03 25-Dec-2016

 -----------------------------------
 #p cam-b3lyp/Def2SVP td=(nstates=5)
 -----------------------------------

 --------------------------------
 TDDFT excited states in gaussian
 --------------------------------
 Symbolic Z-matrix:
 Charge =  0 Multiplicity = 1

                         Standard orientation:
 ---------------------------------------------------------------------
 Center     Atomic      Atomic             Coordinates (Angstroms)
 Number     Number       Type             X           Y           Z
 ---------------------------------------------------------------------
      1         12           0       -4.012685    0.392571    0.490287
      2          6           0       -3.110239    3.785330    1.188132
      3          6           0       -5.029992    1.453039   -2.589252
      4          6           0       -5.232020   -2.496539    0.018176
      5          6           0       -3.992078   -0.165355    3.930338
      6          7           0       -4.016835    2.390362   -0.463368
      7          6           0       -3.588370    3.598354   -0.110742
      8          6           0       -3.624684    4.631402   -1.276447
      9          6           0       -4.745078    3.949102   -2.182639
     10          6           0       -4.564426    2.505779   -1.746627
     11          6           0       -6.162614    4.393084   -1.836269
     12          6           0       -2.255890    4.724663   -2.031056
     13          6           0       -2.104097    5.930835   -2.962432
     14          1           0       -0.798222    6.560906   -3.085111
     15          7           0       -4.533943   -0.520395   -1.182326
     16          6           0       -4.902315    0.068434   -2.345455
     17          6           0       -5.193202   -1.034572   -3.286435
     18          6           0       -5.147249   -2.310655   -2.519888
     19          6           0       -4.993107   -1.818401   -1.174784
     20          6           0       -5.427398   -0.826320   -4.751199
     21          6           0       -5.239757   -3.745608   -2.932786
     22          8           0       -5.409818   -4.687627   -2.085288
     23          6           0       -5.214461   -4.015179   -4.381832
     24          7           0       -4.754029   -1.065225    1.787544
     25          6           0       -5.167442   -2.251561    1.328543
     26          6           0       -5.384864   -3.224885    2.448948
     27          6           0       -4.798086   -2.527776    3.760239
     28          6           0       -4.397123   -1.164933    3.143668
     29          6           0       -6.840584   -3.641590    2.700439
     30          6           0       -3.731735   -3.318043    4.559485
     31          6           0       -2.463623   -3.437586    3.744195
     32          7           0       -3.455065    1.522988    2.257279
     33          6           0       -3.549863    1.102602    3.591806
     34          6           0       -3.159069    2.247847    4.434279
     35          6           0       -2.878203    3.266597    3.525925
     36          6           0       -3.105974    2.796047    2.201163
     37          6           0       -3.154943    2.272868    5.856880
     38          6           0       -2.462349    4.650725    3.367455
     39          8           0       -2.044792    5.523454    4.130005
     40          6           0       -2.713020    5.079125    1.854357
     41          6           0       -1.468722    5.768849    1.365162
     42          8           0       -0.400151    5.139047    1.227785
     43          8           0       -1.786679    6.991697    0.913400
     44          6           0       -0.601174    7.718781    0.386067
     45          1           0       -5.595562    1.707173   -3.487855
     46          1           0       -5.548274   -3.534644   -0.103313
     47          1           0       -3.880534   -0.290709    5.008901
     48          1           0       -3.940239    5.633616   -0.985903
     49          1           0       -4.528271    4.053829   -3.245536
     50          1           0       -6.178811    5.008292   -0.936726
     51          1           0       -6.725419    3.472869   -1.678320
     52          1           0       -6.631775    4.889089   -2.686354
     53          1           0       -2.192071    3.917558   -2.760830
     54          1           0       -1.424436    4.707029   -1.325577
     55          1           0       -2.873374    6.679990   -2.772989
     56          1           0       -2.293881    5.599893   -3.983539
     57          1           0       -5.564066    0.227864   -4.989026
     58          1           0       -6.387092   -1.284962   -4.988570
     59          1           0       -4.643790   -1.277243   -5.360263
     60          1           0       -6.044959   -3.494715   -4.859260
     61          1           0       -5.200270   -5.099544   -4.485761
     62          1           0       -4.303209   -3.590615   -4.804105
     63          1           0       -4.848055   -4.155293    2.268386
     64          1           0       -5.576386   -2.315093    4.493511
     65          1           0       -7.003234   -4.718355    2.647272
     66          1           0       -7.470422   -3.115099    1.983918
     67          1           0       -7.256918   -3.299276    3.647489
     68          1           0       -4.081054   -4.330413    4.759555
     69          1           0       -3.482419   -2.858161    5.515833
     70          1           0       -2.664479   -4.297601    3.106336
     71          1           0       -1.609153   -3.625432    4.395199
     72          1           0       -2.326050   -2.574064    3.093126
     73          1           0       -2.230283    2.769594    6.150537
     74          1           0       -3.212650    1.266410    6.270782
     75          1           0       -4.054656    2.856493    6.051184
     76          1           0       -3.576076    5.744149    1.855725
     77          1           0       -0.538868    8.664427    0.924682
     78          1           0       -0.719466    7.760126   -0.696847
     79          1           0        0.372415    7.285447    0.617765
     80         12           0        3.529605   -1.876214   -0.535283
     81          6           0        5.421380    1.142470   -0.101983
     82          6           0        1.802497   -0.263842   -2.995347
     83          6           0        1.552820   -4.356070   -0.635625
     84          6           0        4.590516   -2.832859    2.643560
     85          7           0        3.684741    0.173260   -1.352480
     86          6           0        4.481982    1.211763   -1.151819
     87          6           0        4.314438    2.359942   -2.182929
     88          6           0        2.808096    2.050021   -2.645275
     89          6           0        2.764615    0.552409   -2.348692
     90          6           0        1.760989    2.737865   -1.785172
     91          6           0        5.319711    2.238343   -3.381521
     92          6           0        5.423853    3.485226   -4.262547
     93          1           0        6.722974    3.825811   -4.835918
     94          7           0        2.254874   -2.446191   -1.945503
     95          6           0        1.667804   -1.664524   -2.875897
     96          6           0        0.802424   -2.556640   -3.662931
     97          6           0        0.800251   -3.897537   -3.017397
     98          6           0        1.535435   -3.606611   -1.802917
     99          6           0        0.142617   -2.130011   -4.942013
    100          6           0        0.220059   -5.219547   -3.419714
    101          8           0        0.133323   -6.196096   -2.594080
    102          6           0       -0.328707   -5.307722   -4.780806
    103          7           0        2.955498   -3.280141    0.886604
    104          6           0        2.122426   -4.286221    0.567696
    105          6           0        2.071441   -5.321203    1.666149
    106          6           0        3.233416   -4.919726    2.688989
    107          6           0        3.718004   -3.613913    2.021607
    108          6           0        0.745406   -5.427499    2.418967
    109          6           0        4.284799   -6.012895    3.024039
    110          6           0        5.119196   -6.318562    1.801042
    111          7           0        4.918866   -1.116748    0.934839
    112          6           0        5.191634   -1.657988    2.210268
    113          6           0        6.118780   -0.728941    2.888269
    114          6           0        6.304462    0.308186    1.961782
    115          6           0        5.530722    0.054216    0.797173
    116          6           0        6.628777   -0.878728    4.208714
    117          6           0        6.970764    1.565391    1.708424
    118          8           0        7.819854    2.232770    2.297821
    119          6           0        6.329954    2.224650    0.411839
    120          6           0        7.451915    2.679861   -0.480620
    121          8           0        8.219163    1.852409   -1.003371
    122          8           0        7.302088    3.991029   -0.742856
    123          6           0        8.385014    4.486594   -1.633650
    124          1           0        1.051173    0.217212   -3.622230
    125          1           0        0.972676   -5.281416   -0.660744
    126          1           0        5.044442   -3.108759    3.597760
    127          1           0        4.377488    3.357852   -1.765815
    128          1           0        2.675922    2.232130   -3.708626
    129          1           0        2.201170    3.228392   -0.929744
    130          1           0        1.083132    1.956972   -1.466178
    131          1           0        1.165102    3.424268   -2.393525
    132          1           0        4.920039    1.524265   -4.113032
    133          1           0        6.295273    1.959104   -3.033756
    134          1           0        4.970848    4.364202   -3.788057
    135          1           0        4.822989    3.326267   -5.161275
    136          1           0        0.191968   -1.042434   -5.076800
    137          1           0       -0.926789   -2.342366   -4.836469
    138          1           0        0.525249   -2.666725   -5.812750
    139          1           0       -1.112710   -4.564167   -4.902958
    140          1           0       -0.615325   -6.352805   -4.913208
    141          1           0        0.462334   -5.051097   -5.494257
    142          1           0        2.274027   -6.310654    1.274922
    143          1           0        2.830740   -4.638916    3.673288
    144          1           0        0.307975   -6.443357    2.391242
    145          1           0        0.056708   -4.705394    2.000880
    146          1           0        0.783634   -5.131083    3.465807
    147          1           0        3.786631   -6.945284    3.300850
    148          1           0        4.942042   -5.743189    3.843971
    149          1           0        4.498533   -7.032157    1.250902
    150          1           0        6.070744   -6.761876    2.087520
    151          1           0        5.235348   -5.428763    1.171415
    152          1           0        7.681619   -0.633452    4.165520
    153          1           0        6.469848   -1.887431    4.584256
    154          1           0        6.018135   -0.142592    4.738325
    155          1           0        5.705924    3.056222    0.741480
    156          1           0        8.858580    5.330200   -1.122039
    157          1           0        7.900174    4.694931   -2.605911
    158          1           0        9.235242    3.835301   -1.799125
 ---------------------------------------------------------------------

 SCF Done:  E(RCAM-B3LYP) =  -4069.81166062     A.U. after   19 cycles

 Excitation energies and oscillator strengths:

 Excited State   1:      Singlet-A      1.6326 eV  759.43 nm  f=0.0472  <S**2>=0.000
     309 -> 315       -0.11256
     310 -> 316        0.11811
     311 -> 313       -0.47268
     312 -> 314        0.50065
 This state for optimization and/or second-order correction.
 Total Energy, E(TD-HF/TD-DFT) =  -4069.75166378
 Copying the excited state density for this state as the 1-particle RhoCI density.

 Excited State   2:      Singlet-A      1.7111 eV  724.59 nm  f=0.6464  <S**2>=0.000
     309 -> 315        0.13448
     310 -> 316        0.12492
     311 -> 313        0.49699
     312 -> 314        0.46927

 Excited State   3:      Singlet-A      2.1763 eV  569.71 nm  f=0.0081  <S**2>=0.000
     309 -> 313       -0.35360
     310 -> 314        0.54184
     311 -> 315        0.14395
     312 -> 316       -0.22126

 Excited State   4:      Singlet-A      2.1971 eV  564.31 nm  f=0.1583  <S**2>=0.000
     309 -> 313        0.53294
     310 -> 314        0.34598
     311 -> 315       -0.23681
     312 -> 316       -0.15425

 Excited State   5:      Singlet-A      2.2020 eV  563.05 nm  f=0.0012  <S**2>=0.000
     312 -> 313        0.70423

 The electronic state is 1-A.
 Alpha  occ. eigenvalues --  -46.87996 -46.87415 -19.26576 -19.26117 -19.19341
 Alpha  occ. eigenvalues --  -19.18964 -19.18927 -19.18512 -19.18365 -19.17789
 Alpha  occ. eigenvalues --  -14.42673 -14.42227 -14.41641 -14.41125 -14.39600
 Alpha  occ. eigenvalues --  -14.39118 -14.38786 -14.38347 -10.39382 -10.38848
 Alpha  occ. eigenvalues --  -10.35603 -10.35199 -10.34591 -10.33960 -10.31970
 Alpha  occ. eigenvalues --  -10.31641 -10.31565 -10.31158 -10.31025 -10.30788
 Alpha  occ. eigenvalues --  -10.30763 -10.30685 -10.30393 -10.30155 -10.30123
 Alpha  occ. eigenvalues --  -10.30082 -10.29933 -10.29835 -10.29656 -10.29454
 Alpha  occ. eigenvalues --  -10.29214 -10.29183 -10.29082 -10.29021 -10.28579
 Alpha  occ. eigenvalues --  -10.28494 -10.28410 -10.28391 -10.28155 -10.27993
 Alpha  occ. eigenvalues --  -10.27952 -10.27799 -10.27791 -10.27766 -10.27743
 Alpha  occ. eigenvalues --  -10.27645 -10.27623 -10.27562 -10.27454 -10.27422
 Alpha  occ. eigenvalues --  -10.27393 -10.27349 -10.27259 -10.27221 -10.27189
 Alpha  occ. eigenvalues --  -10.27180 -10.26748 -10.26675 -10.26481 -10.26466
 Alpha  occ. eigenvalues --  -10.26358 -10.26325 -10.26214 -10.25997 -10.25996
 Alpha  occ. eigenvalues --  -10.25711 -10.25614 -10.25532 -10.25332 -10.25226
 Alpha  occ. eigenvalues --  -10.25031 -10.24959 -10.24834 -10.24626 -10.24590
 Alpha  occ. eigenvalues --  -10.24449  -3.16737  -3.16164  -1.91618  -1.91206
 Alpha  occ. eigenvalues --   -1.91047  -1.91046  -1.90635  -1.90472  -1.16927
 Alpha  occ. eigenvalues --   -1.16410  -1.08827  -1.08392  -1.07351  -1.06946
 Alpha  occ. eigenvalues --   -1.06757  -1.06711  -1.04810  -1.04226  -1.03956
 Alpha  occ. eigenvalues --   -1.03430  -1.03417  -1.02804  -1.02608  -1.01867
 Alpha  occ. eigenvalues --   -0.92191  -0.91721  -0.89695  -0.89495  -0.89286
 Alpha  occ. eigenvalues --   -0.88807  -0.88451  -0.88063  -0.88021  -0.87913
 Alpha  occ. eigenvalues --   -0.87552  -0.87506  -0.87443  -0.86965  -0.85273
 Alpha  occ. eigenvalues --   -0.84715  -0.84101  -0.83685  -0.83184  -0.82912
 Alpha  occ. eigenvalues --   -0.82798  -0.82391  -0.81829  -0.81361  -0.80829
 Alpha  occ. eigenvalues --   -0.80213  -0.79020  -0.78448  -0.77461  -0.77188
 Alpha  occ. eigenvalues --   -0.76913  -0.76637  -0.76173  -0.75530  -0.75073
 Alpha  occ. eigenvalues --   -0.74589  -0.72976  -0.72460  -0.71880  -0.71303
 Alpha  occ. eigenvalues --   -0.70069  -0.69571  -0.69145  -0.68556  -0.67858
 Alpha  occ. eigenvalues --   -0.67534  -0.67379  -0.66990  -0.65571  -0.65073
 Alpha  occ. eigenvalues --   -0.64994  -0.64853  -0.64530  -0.64448  -0.64403
 Alpha  occ. eigenvalues --   -0.63993  -0.62538  -0.62051  -0.60645  -0.60163
 Alpha  occ. eigenvalues --   -0.60074  -0.59494  -0.59193  -0.58754  -0.58714
 Alpha  occ. eigenvalues --   -0.58191  -0.57822  -0.57504  -0.57293  -0.57028
 Alpha  occ. eigenvalues --   -0.56529  -0.56253  -0.55987  -0.55743  -0.55663
 Alpha  occ. eigenvalues --   -0.55530  -0.55242  -0.55038  -0.54740  -0.54279
 Alpha  occ. eigenvalues --   -0.54203  -0.53606  -0.53519  -0.53484  -0.53167
 Alpha  occ. eigenvalues --   -0.53038  -0.53017  -0.52907  -0.52677  -0.52600
 Alpha  occ. eigenvalues --   -0.52464  -0.52230  -0.52097  -0.51912  -0.51643
 Alpha  occ. eigenvalues --   -0.51413  -0.51412  -0.50963  -0.50835  -0.50367
 Alpha  occ. eigenvalues --   -0.50237  -0.50139  -0.49769  -0.49756  -0.49661
 Alpha  occ. eigenvalues --   -0.49456  -0.49350  -0.49239  -0.48953  -0.48833
 Alpha  occ. eigenvalues --   -0.48745  -0.48645  -0.48627  -0.48287  -0.48182
 Alpha  occ. eigenvalues --   -0.48128  -0.47931  -0.47511  -0.47368  -0.47020
 Alpha  occ. eigenvalues --   -0.46944  -0.46842  -0.46567  -0.46477  -0.46358
 Alpha  occ. eigenvalues --   -0.46272  -0.46077  -0.46041  -0.45867  -0.45568
 Alpha  occ. eigenvalues --   -0.45372  -0.44997  -0.44806  -0.44743  -0.44362
 Alpha  occ. eigenvalues --   -0.44338  -0.44280  -0.44242  -0.44223  -0.43891
 Alpha  occ. eigenvalues --   -0.43805  -0.43725  -0.43724  -0.43623  -0.43318
 Alpha  occ. eigenvalues --   -0.43238  -0.43118  -0.42952  -0.42833  -0.42700
 Alpha  occ. eigenvalues --   -0.42653  -0.42362  -0.42221  -0.41925  -0.41805
 Alpha  occ. eigenvalues --   -0.41751  -0.41407  -0.41357  -0.41214  -0.41139
 Alpha  occ. eigenvalues --   -0.41048  -0.40756  -0.40696  -0.40605  -0.40516
 Alpha  occ. eigenvalues --   -0.40438  -0.40248  -0.39989  -0.39569  -0.39246
 Alpha  occ. eigenvalues --   -0.38659  -0.38138  -0.38097  -0.37535  -0.37506
 Alpha  occ. eigenvalues --   -0.37419  -0.37044  -0.36972  -0.36934  -0.36547
 Alpha  occ. eigenvalues --   -0.36417  -0.35985  -0.34492  -0.34062  -0.34003
 Alpha  occ. eigenvalues --   -0.33625  -0.33395  -0.32935  -0.31491  -0.31239
 Alpha  occ. eigenvalues --   -0.31067  -0.30718  -0.30228  -0.29689  -0.29650
 Alpha  occ. eigenvalues --   -0.29517  -0.29112  -0.28963  -0.24285  -0.23784
 Alpha  occ. eigenvalues --   -0.21335  -0.20873
 Alpha virt. eigenvalues --   -0.08979  -0.08556  -0.01943  -0.01449  -0.00267
 Alpha virt. eigenvalues --    0.00198   0.02004   0.02325   0.02550   0.03563
 Alpha virt. eigenvalues --    0.04424   0.04740   0.05001   0.05402   0.05676

 Mulliken charges:
               1
     1  Mg   0.838603
     2  C   -0.003516
     3  C   -0.096492
     4  C   -0.043533
     5  C   -0.063415
     6  N   -0.256701
     7  C   -0.053770
     8  C   -0.012019
     9  C   -0.086702
    10  C    0.045736
    11  C    0.104773
    12  C    0.046937
    13  C   -0.072635
    14  H    0.034559
    15  N   -0.433200
    16  C    0.168162
    17  C   -0.179469
    18  C   -0.004708
    19  C    0.150419
    20  C    0.110066
    21  C    0.013938
    22  O   -0.245633
    23  C    0.062035
    24  N   -0.340976
    25  C    0.040951
    26  C   -0.029092
    27  C   -0.024301
    28  C    0.074858
    29  C    0.075902
    30  C    0.040961
    31  C   -0.017946
    32  N   -0.310770
    33  C    0.080843
    34  C   -0.169124
    35  C    0.008639
    36  C    0.083375
    37  C    0.127207
    38  C    0.046510
    39  O   -0.187505
    40  C   -0.005971
    41  C    0.213814
    42  O   -0.258705
    43  O   -0.304391
    44  C    0.157333
    45  H   -0.017876
    46  H   -0.015172
    47  H   -0.041028
    48  H    0.001537
    49  H   -0.005178
    50  H    0.025929
    51  H    0.017135
    52  H    0.016842
    53  H    0.008726
    54  H    0.047940
    55  H    0.020046
    56  H    0.017479
    57  H    0.005569
    58  H    0.027937
    59  H    0.035852
    60  H    0.037450
    61  H    0.038817
    62  H    0.025703
    63  H    0.018773
    64  H    0.009861
    65  H    0.024159
    66  H    0.012438
    67  H    0.004840
    68  H    0.006390
    69  H    0.003540
    70  H    0.016259
    71  H    0.018870
    72  H    0.031011
    73  H    0.048257
    74  H    0.009375
    75  H    0.046397
    76  H    0.035591
    77  H    0.044446
    78  H    0.045554
    79  H    0.053343
    80  Mg   0.838014
    81  C   -0.016077
    82  C   -0.089251
    83  C   -0.045560
    84  C   -0.065019
    85  N   -0.255024
    86  C   -0.046804
    87  C   -0.015024
    88  C   -0.092530
    89  C    0.047618
    90  C    0.113948
    91  C    0.062787
    92  C   -0.076919
    93  H    0.033526
    94  N   -0.423438
    95  C    0.162692
    96  C   -0.175075
    97  C   -0.007140
    98  C    0.150772
    99  C    0.100813
   100  C    0.017100
   101  O   -0.251272
   102  C    0.060895
   103  N   -0.349980
   104  C    0.036062
   105  C   -0.017896
   106  C   -0.035374
   107  C    0.089317
   108  C    0.068812
   109  C    0.034805
   110  C   -0.007336
   111  N   -0.324464
   112  C    0.079307
   113  C   -0.162744
   114  C    0.003246
   115  C    0.096549
   116  C    0.131106
   117  C    0.043139
   118  O   -0.187783
   119  C    0.000362
   120  C    0.210813
   121  O   -0.251787
   122  O   -0.304965
   123  C    0.152346
   124  H   -0.021045
   125  H   -0.014913
   126  H   -0.041043
   127  H    0.000613
   128  H   -0.007872
   129  H    0.034322
   130  H    0.015880
   131  H    0.013589
   132  H    0.012995
   133  H    0.037204
   134  H    0.020564
   135  H    0.018310
   136  H    0.007592
   137  H    0.021306
   138  H    0.038438
   139  H    0.034192
   140  H    0.037166
   141  H    0.033144
   142  H    0.013759
   143  H    0.011488
   144  H    0.023975
   145  H    0.017214
   146  H    0.004793
   147  H    0.005543
   148  H    0.003323
   149  H    0.010809
   150  H    0.017481
   151  H    0.030413
   152  H    0.045553
   153  H    0.007722
   154  H    0.048478
   155  H    0.039035
   156  H    0.043593
   157  H    0.048908
   158  H    0.053049
 Sum of Mulliken charges =  -0.00000

 Dipole moment (field-independent basis, Debye):
    X=             -6.2740    Y=              1.1495    Z=             -5.5879  Tot=              8.4799
 Quadrupole moment (field-independent basis, Debye-Ang):
   XX=           -540.8456   YY=           -519.6889   ZZ=           -467.8602
   XY=            -18.1966   XZ=             -0.8860   YZ=            -56.6345

 Normal termination of Gaussian 16 at Thu Sep  9 00:03:31 2021.
