 Gaussian 16, Revision A.03,
 Gaussian 16:  ES64L-G16RevA.03 25-Dec-2016

 -----------------------------------
 #p cam-b3lyp/Def2SVP td=(nstates=5)
 -----------------------------------

 --------------------------------
 TDDFT excited states in gaussian
 --------------------------------
 Symbolic Z-matrix:
 Charge =  0 Multiplicity = 1

                         Standard orientation:
 ---------------------------------------------------------------------
 Center     Atomic      Atomic             Coordinates (Angstroms)
 Number     Number       Type             X           Y           Z
 ---------------------------------------------------------------------
      1         12           0       15.772454    0.805844    0.134960
      2          6           0       16.158982   -2.751991    0.067033
      3          6           0       16.664616    0.816457   -3.158518
      4          6           0       15.880209    3.971604    0.286538
      5          6           0       16.026378    0.619235    3.605747
      6          7           0       16.317245   -0.825348   -1.258977
      7          6           0       16.368837   -2.151112   -1.176168
      8          6           0       16.592521   -2.847810   -2.551651
      9          6           0       17.288278   -1.644731   -3.333009
     10          6           0       16.695152   -0.478882   -2.561696
     11          6           0       18.805458   -1.614606   -3.178870
     12          6           0       15.245986   -3.269256   -3.230588
     13          6           0       15.383437   -4.237855   -4.408840
     14          1           0       14.359658   -5.253370   -4.603662
     15          7           0       15.729694    2.159552   -1.303267
     16          6           0       16.114861    1.986042   -2.590444
     17          6           0       15.891413    3.284755   -3.261337
     18          6           0       15.524073    4.279751   -2.215805
     19          6           0       15.724765    3.506323   -1.017094
     20          6           0       15.983769    3.471228   -4.744728
     21          6           0       15.075096    5.705129   -2.285445
     22          8           0       15.031850    6.455906   -1.251503
     23          6           0       14.767625    6.232212   -3.627342
     24          7           0       16.149683    2.140797    1.694843
     25          6           0       16.077077    3.462726    1.504542
     26          6           0       16.104016    4.204318    2.808096
     27          6           0       15.965142    3.096631    3.949804
     28          6           0       15.964651    1.833301    3.054110
     29          6           0       17.356179    5.052647    3.069704
     30          6           0       14.812837    3.278329    4.969411
     31          6           0       13.480914    3.099121    4.275895
     32          7           0       15.866660   -0.778187    1.615843
     33          6           0       15.992824   -0.627823    3.004421
     34          6           0       16.124039   -1.980946    3.575306
     35          6           0       16.081458   -2.829033    2.470417
     36          6           0       15.959431   -2.053272    1.282311
     37          6           0       16.318712   -2.289990    4.950452
     38          6           0       16.135428   -4.208784    2.015190
     39          8           0       16.139821   -5.306691    2.573826
     40          6           0       16.310347   -4.207718    0.432399
     41          6           0       15.314977   -5.182400   -0.135532
     42          8           0       14.089094   -4.960494   -0.062491
     43          8           0       15.960319   -6.094963   -0.878031
     44          6           0       15.027197   -7.075181   -1.494968
     45          1           0       17.157120    0.965715   -4.121380
     46          1           0       15.811674    5.056084    0.394444
     47          1           0       16.024550    0.478064    4.688115
     48          1           0       17.261025   -3.708414   -2.521837
     49          1           0       16.978998   -1.604775   -4.377265
     50          1           0       19.146629   -2.350436   -2.450806
     51          1           0       19.043709   -0.605880   -2.840933
     52          1           0       19.295432   -1.730159   -4.146005
     53          1           0       14.818880   -2.409202   -3.746290
     54          1           0       14.558765   -3.690399   -2.495951
     55          1           0       16.377015   -4.685688   -4.442836
     56          1           0       15.313270   -3.663827   -5.332836
     57          1           0       16.432163    2.605250   -5.230084
     58          1           0       16.693843    4.279073   -4.920484
     59          1           0       15.020512    3.725726   -5.187105
     60          1           0       15.652666    6.148398   -4.258394
     61          1           0       14.377707    7.237749   -3.473366
     62          1           0       14.003169    5.604749   -4.086521
     63          1           0       15.267840    4.898588    2.880386
     64          1           0       16.860344    3.032843    4.568850
     65          1           0       17.140552    6.104050    3.261436
     66          1           0       18.024093    4.939742    2.216220
     67          1           0       17.985666    4.698868    3.885794
     68          1           0       14.826737    4.286731    5.381573
     69          1           0       14.861952    2.578374    5.803618
     70          1           0       13.295294    4.083310    3.847235
     71          1           0       12.707995    2.836052    4.998807
     72          1           0       13.554459    2.392246    3.449212
     73          1           0       15.661584   -3.131392    5.169989
     74          1           0       16.091142   -1.433612    5.584827
     75          1           0       17.379236   -2.541263    4.952779
     76          1           0       17.338120   -4.507725    0.230406
     77          1           0       15.357447   -8.068338   -1.190323
     78          1           0       15.006632   -6.854054   -2.562247
     79          1           0       14.004980   -7.072660   -1.114961
     80         12           0      -15.943072   -0.825732   -0.015417
     81          6           0      -15.917418    2.728594   -0.510594
     82          6           0      -15.111724   -0.228195    3.238253
     83          6           0      -15.516360   -3.949050    0.345432
     84          6           0      -15.640582   -1.169509   -3.470282
     85          7           0      -15.588916    1.050774    1.100636
     86          6           0      -15.668074    2.343479    0.823191
     87          6           0      -15.548448    3.275069    2.059062
     88          6           0      -14.741378    2.283264    3.030573
     89          6           0      -15.197925    0.946685    2.449389
     90          6           0      -13.233115    2.382206    2.873400
     91          6           0      -16.947667    3.654455    2.659276
     92          6           0      -16.923590    4.802239    3.671089
     93          1           0      -18.054389    5.725679    3.703132
     94          7           0      -15.878083   -1.931229    1.631459
     95          6           0      -15.542019   -1.522716    2.873008
     96          6           0      -15.629530   -2.717305    3.727082
     97          6           0      -15.884582   -3.897879    2.857643
     98          6           0      -15.745837   -3.295025    1.547150
     99          6           0      -15.554367   -2.653937    5.224998
    100          6           0      -16.188739   -5.334714    3.156269
    101          8           0      -16.138634   -6.236651    2.246966
    102          6           0      -16.455614   -5.669745    4.562689
    103          7           0      -15.412612   -2.338555   -1.339170
    104          6           0      -15.348847   -3.619524   -0.935456
    105          6           0      -15.220233   -4.556680   -2.112562
    106          6           0      -15.455116   -3.651598   -3.409965
    107          6           0      -15.596649   -2.270664   -2.732925
    108          6           0      -13.883870   -5.288033   -2.237705
    109          6           0      -16.565214   -4.108873   -4.395489
    110          6           0      -17.922300   -3.972831   -3.743420
    111          7           0      -15.987526    0.500740   -1.720278
    112          6           0      -15.814928    0.151392   -3.077570
    113          6           0      -15.811589    1.408424   -3.853650
    114          6           0      -15.960584    2.411318   -2.883867
    115          6           0      -16.030167    1.822224   -1.592499
    116          6           0      -15.634787    1.516146   -5.261936
    117          6           0      -16.064155    3.835024   -2.657982
    118          8           0      -16.153623    4.825306   -3.382599
    119          6           0      -15.913802    4.111762   -1.100034
    120          6           0      -17.012732    5.052193   -0.687142
    121          8           0      -18.202913    4.695361   -0.739575
    122          8           0      -16.469625    6.132391   -0.096730
    123          6           0      -17.520669    7.089524    0.340309
    124          1           0      -14.630730   -0.163392    4.214642
    125          1           0      -15.472441   -5.039127    0.402776
    126          1           0      -15.649292   -1.197930   -4.561968
    127          1           0      -14.975971    4.179646    1.892351
    128          1           0      -15.072174    2.383893    4.061012
    129          1           0      -12.955083    3.020360    2.047814
    130          1           0      -12.888175    1.370814    2.702667
    131          1           0      -12.776205    2.701640    3.814421
    132          1           0      -17.291869    2.838993    3.308362
    133          1           0      -17.649772    3.875281    1.878946
    134          1           0      -15.976649    5.355009    3.644902
    135          1           0      -16.958750    4.378341    4.677613
    136          1           0      -15.197886   -1.675102    5.568814
    137          1           0      -14.770359   -3.352987    5.535680
    138          1           0      -16.492524   -2.938453    5.706228
    139          1           0      -15.596872   -5.392109    5.169280
    140          1           0      -16.739533   -6.723917    4.563186
    141          1           0      -17.297910   -5.062840    4.913149
    142          1           0      -15.981190   -5.326684   -2.078789
    143          1           0      -14.555157   -3.601758   -4.040371
    144          1           0      -13.989248   -6.389179   -2.258807
    145          1           0      -13.249315   -4.982434   -1.416430
    146          1           0      -13.286702   -5.013550   -3.105593
    147          1           0      -16.442740   -5.167021   -4.639375
    148          1           0      -16.564458   -3.560460   -5.331570
    149          1           0      -18.009329   -4.894410   -3.160148
    150          1           0      -18.704541   -3.907296   -4.496976
    151          1           0      -17.937759   -3.133705   -3.038232
    152          1           0      -16.362288    2.235921   -5.612888
    153          1           0      -15.758308    0.553129   -5.752957
    154          1           0      -14.600390    1.867816   -5.302302
    155          1           0      -14.924629    4.541563   -0.937610
    156          1           0      -17.284008    8.054925   -0.117600
    157          1           0      -17.525340    7.043912    1.445598
    158          1           0      -18.529221    6.925709   -0.020852
 ---------------------------------------------------------------------

 SCF Done:  E(RCAM-B3LYP) =  -4069.81178396     A.U. after   19 cycles

 Excitation energies and oscillator strengths:

 Excited State   1:      Singlet-A      1.6753 eV  740.06 nm  f=0.2152  <S**2>=0.000
     310 -> 316        0.16869
     311 -> 314        0.16125
     312 -> 313        0.66683
     310 <- 316        0.10170
 This state for optimization and/or second-order correction.
 Total Energy, E(TD-HF/TD-DFT) =  -4069.75021678
 Copying the excited state density for this state as the 1-particle RhoCI density.

 Excited State   2:      Singlet-A      1.6802 eV  737.93 nm  f=0.5622  <S**2>=0.000
     309 -> 315        0.17070
     311 -> 314        0.66647
     312 -> 313       -0.16120
     309 <- 315        0.10220

 Excited State   3:      Singlet-A      2.1861 eV  567.14 nm  f=0.0950  <S**2>=0.000
     310 -> 313        0.64209
     312 -> 316       -0.27297

 Excited State   4:      Singlet-A      2.1926 eV  565.47 nm  f=0.1050  <S**2>=0.000
     309 -> 314        0.64031
     311 -> 315       -0.27815

 Excited State   5:      Singlet-A      3.0659 eV  404.40 nm  f=0.0000  <S**2>=0.000
     311 -> 313        0.70711

 The electronic state is 1-A.
 Alpha  occ. eigenvalues --  -46.87796 -46.87661 -19.26352 -19.26283 -19.19163
 Alpha  occ. eigenvalues --  -19.19019 -19.18813 -19.18711 -19.18170 -19.18053
 Alpha  occ. eigenvalues --  -14.42497 -14.42449 -14.41449 -14.41359 -14.39402
 Alpha  occ. eigenvalues --  -14.39352 -14.38601 -14.38587 -10.39093 -10.39079
 Alpha  occ. eigenvalues --  -10.35446 -10.35388 -10.34390 -10.34231 -10.31759
 Alpha  occ. eigenvalues --  -10.31678 -10.31404 -10.31309 -10.31022 -10.30907
 Alpha  occ. eigenvalues --  -10.30570 -10.30507 -10.30398 -10.30361 -10.30207
 Alpha  occ. eigenvalues --  -10.30141 -10.29921 -10.29895 -10.29630 -10.29436
 Alpha  occ. eigenvalues --  -10.29401 -10.29254 -10.28746 -10.28718 -10.28653
 Alpha  occ. eigenvalues --  -10.28533 -10.28405 -10.28364 -10.28138 -10.28114
 Alpha  occ. eigenvalues --  -10.28002 -10.27793 -10.27726 -10.27668 -10.27583
 Alpha  occ. eigenvalues --  -10.27519 -10.27503 -10.27484 -10.27477 -10.27466
 Alpha  occ. eigenvalues --  -10.27461 -10.27452 -10.27403 -10.27376 -10.27158
 Alpha  occ. eigenvalues --  -10.27052 -10.26701 -10.26692 -10.26409 -10.26405
 Alpha  occ. eigenvalues --  -10.26232 -10.26189 -10.26140 -10.26021 -10.26020
 Alpha  occ. eigenvalues --  -10.25935 -10.25856 -10.25846 -10.25437 -10.25396
 Alpha  occ. eigenvalues --  -10.24874 -10.24833 -10.24788 -10.24734 -10.24693
 Alpha  occ. eigenvalues --  -10.24690  -3.16539  -3.16411  -1.91421  -1.91293
 Alpha  occ. eigenvalues --   -1.91007  -1.90881  -1.90849  -1.90718  -1.16646
 Alpha  occ. eigenvalues --   -1.16632  -1.08661  -1.08627  -1.07214  -1.06963
 Alpha  occ. eigenvalues --   -1.06948  -1.06642  -1.04580  -1.04495  -1.03760
 Alpha  occ. eigenvalues --   -1.03663  -1.03233  -1.03039  -1.02411  -1.02112
 Alpha  occ. eigenvalues --   -0.91988  -0.91972  -0.89521  -0.89495  -0.89186
 Alpha  occ. eigenvalues --   -0.89150  -0.88288  -0.88221  -0.87871  -0.87796
 Alpha  occ. eigenvalues --   -0.87684  -0.87672  -0.87272  -0.87118  -0.84999
 Alpha  occ. eigenvalues --   -0.84980  -0.83938  -0.83877  -0.82965  -0.82929
 Alpha  occ. eigenvalues --   -0.82651  -0.82647  -0.81598  -0.81585  -0.80595
 Alpha  occ. eigenvalues --   -0.80443  -0.78796  -0.78635  -0.77218  -0.77144
 Alpha  occ. eigenvalues --   -0.76933  -0.76899  -0.75922  -0.75838  -0.74899
 Alpha  occ. eigenvalues --   -0.74803  -0.72774  -0.72700  -0.71672  -0.71581
 Alpha  occ. eigenvalues --   -0.69910  -0.69759  -0.68871  -0.68826  -0.67640
 Alpha  occ. eigenvalues --   -0.67602  -0.67217  -0.67198  -0.65285  -0.65271
 Alpha  occ. eigenvalues --   -0.64853  -0.64771  -0.64654  -0.64620  -0.64270
 Alpha  occ. eigenvalues --   -0.64205  -0.62297  -0.62280  -0.60441  -0.60338
 Alpha  occ. eigenvalues --   -0.59803  -0.59796  -0.58993  -0.58987  -0.58503
 Alpha  occ. eigenvalues --   -0.58426  -0.57584  -0.57556  -0.57309  -0.57237
 Alpha  occ. eigenvalues --   -0.56309  -0.56205  -0.55977  -0.55887  -0.55519
 Alpha  occ. eigenvalues --   -0.55451  -0.55340  -0.55249  -0.54524  -0.54489
 Alpha  occ. eigenvalues --   -0.53911  -0.53893  -0.53298  -0.53228  -0.53220
 Alpha  occ. eigenvalues --   -0.53141  -0.52914  -0.52902  -0.52753  -0.52665
 Alpha  occ. eigenvalues --   -0.52441  -0.52403  -0.51916  -0.51888  -0.51657
 Alpha  occ. eigenvalues --   -0.51614  -0.51202  -0.51196  -0.50569  -0.50472
 Alpha  occ. eigenvalues --   -0.50032  -0.49978  -0.49916  -0.49867  -0.49513
 Alpha  occ. eigenvalues --   -0.49486  -0.49214  -0.49202  -0.49104  -0.49094
 Alpha  occ. eigenvalues --   -0.48592  -0.48559  -0.48462  -0.48444  -0.48377
 Alpha  occ. eigenvalues --   -0.48337  -0.47694  -0.47594  -0.47296  -0.47117
 Alpha  occ. eigenvalues --   -0.46797  -0.46709  -0.46553  -0.46553  -0.46359
 Alpha  occ. eigenvalues --   -0.46271  -0.46163  -0.46087  -0.45824  -0.45822
 Alpha  occ. eigenvalues --   -0.45209  -0.45202  -0.44578  -0.44515  -0.44505
 Alpha  occ. eigenvalues --   -0.44475  -0.44145  -0.44127  -0.44086  -0.44078
 Alpha  occ. eigenvalues --   -0.44018  -0.43938  -0.43555  -0.43494  -0.43386
 Alpha  occ. eigenvalues --   -0.43385  -0.43027  -0.42932  -0.42902  -0.42699
 Alpha  occ. eigenvalues --   -0.42656  -0.42554  -0.42010  -0.41965  -0.41704
 Alpha  occ. eigenvalues --   -0.41670  -0.41532  -0.41458  -0.41140  -0.40989
 Alpha  occ. eigenvalues --   -0.40868  -0.40821  -0.40721  -0.40697  -0.40572
 Alpha  occ. eigenvalues --   -0.40494  -0.40231  -0.40225  -0.39444  -0.39427
 Alpha  occ. eigenvalues --   -0.38470  -0.38351  -0.37746  -0.37653  -0.37321
 Alpha  occ. eigenvalues --   -0.37266  -0.37262  -0.37199  -0.36773  -0.36713
 Alpha  occ. eigenvalues --   -0.36218  -0.36192  -0.34286  -0.34254  -0.33864
 Alpha  occ. eigenvalues --   -0.33770  -0.33186  -0.33176  -0.31343  -0.31270
 Alpha  occ. eigenvalues --   -0.31035  -0.30973  -0.30029  -0.29958  -0.29448
 Alpha  occ. eigenvalues --   -0.29327  -0.29322  -0.29212  -0.24080  -0.24036
 Alpha  occ. eigenvalues --   -0.21127  -0.21117
 Alpha virt. eigenvalues --   -0.08792  -0.08774  -0.01749  -0.01684  -0.00056
 Alpha virt. eigenvalues --   -0.00027   0.02200   0.02206   0.03122   0.03225
 Alpha virt. eigenvalues --    0.04719   0.04730   0.05099   0.05163   0.06180

 Mulliken charges:
               1
     1  Mg   0.838699
     2  C   -0.002962
     3  C   -0.094090
     4  C   -0.045892
     5  C   -0.063975
     6  N   -0.256775
     7  C   -0.052472
     8  C   -0.014013
     9  C   -0.087009
    10  C    0.046324
    11  C    0.104808
    12  C    0.053472
    13  C   -0.071831
    14  H    0.036159
    15  N   -0.433145
    16  C    0.168440
    17  C   -0.177124
    18  C   -0.003990
    19  C    0.148734
    20  C    0.110162
    21  C    0.012291
    22  O   -0.249630
    23  C    0.062474
    24  N   -0.341145
    25  C    0.041258
    26  C   -0.028182
    27  C   -0.023993
    28  C    0.074850
    29  C    0.076178
    30  C    0.035163
    31  C   -0.004506
    32  N   -0.310444
    33  C    0.080386
    34  C   -0.169757
    35  C    0.008361
    36  C    0.082969
    37  C    0.127319
    38  C    0.046097
    39  O   -0.188478
    40  C   -0.005320
    41  C    0.212864
    42  O   -0.257108
    43  O   -0.304792
    44  C    0.157697
    45  H   -0.017564
    46  H   -0.016838
    47  H   -0.041541
    48  H    0.000939
    49  H   -0.003994
    50  H    0.025468
    51  H    0.016444
    52  H    0.016688
    53  H    0.011224
    54  H    0.044111
    55  H    0.017869
    56  H    0.017987
    57  H    0.005903
    58  H    0.026852
    59  H    0.039615
    60  H    0.037364
    61  H    0.035679
    62  H    0.031537
    63  H    0.016545
    64  H    0.009444
    65  H    0.023203
    66  H    0.012568
    67  H    0.004737
    68  H    0.006332
    69  H    0.004687
    70  H    0.008785
    71  H    0.018073
    72  H    0.029017
    73  H    0.047527
    74  H    0.009068
    75  H    0.045999
    76  H    0.035155
    77  H    0.042938
    78  H    0.046430
    79  H    0.053676
    80  Mg   0.837881
    81  C   -0.016838
    82  C   -0.087769
    83  C   -0.045503
    84  C   -0.064880
    85  N   -0.254584
    86  C   -0.049850
    87  C   -0.015093
    88  C   -0.090507
    89  C    0.045756
    90  C    0.114364
    91  C    0.062516
    92  C   -0.077906
    93  H    0.034886
    94  N   -0.423523
    95  C    0.162925
    96  C   -0.174568
    97  C   -0.007770
    98  C    0.152138
    99  C    0.099337
   100  C    0.015598
   101  O   -0.253152
   102  C    0.061184
   103  N   -0.350047
   104  C    0.037548
   105  C   -0.019858
   106  C   -0.034799
   107  C    0.088911
   108  C    0.073641
   109  C    0.034743
   110  C   -0.007690
   111  N   -0.324091
   112  C    0.078410
   113  C   -0.163168
   114  C    0.002222
   115  C    0.096201
   116  C    0.131495
   117  C    0.042367
   118  O   -0.187927
   119  C    0.000908
   120  C    0.211271
   121  O   -0.251028
   122  O   -0.305628
   123  C    0.152033
   124  H   -0.019582
   125  H   -0.015529
   126  H   -0.040497
   127  H   -0.000644
   128  H   -0.004293
   129  H    0.022454
   130  H    0.014462
   131  H    0.016350
   132  H    0.013928
   133  H    0.037660
   134  H    0.020802
   135  H    0.019625
   136  H    0.008801
   137  H    0.026242
   138  H    0.039828
   139  H    0.038317
   140  H    0.036442
   141  H    0.033890
   142  H    0.014409
   143  H    0.012405
   144  H    0.025174
   145  H    0.011700
   146  H    0.005675
   147  H    0.006264
   148  H    0.003614
   149  H    0.010952
   150  H    0.017908
   151  H    0.030113
   152  H    0.045970
   153  H    0.008486
   154  H    0.046917
   155  H    0.035029
   156  H    0.043892
   157  H    0.049517
   158  H    0.053565
 Sum of Mulliken charges =  -0.00000

 Dipole moment (field-independent basis, Debye):
    X=              3.9566    Y=              0.9638    Z=              0.1125  Tot=              4.0739
 Quadrupole moment (field-independent basis, Debye-Ang):
   XX=           -519.0568   YY=           -550.8868   ZZ=           -447.7761
   XY=             40.6000   XZ=           -126.8955   YZ=             47.5849

 Normal termination of Gaussian 16 at Sat Sep  4 17:59:02 2021.
