 Gaussian 16, Revision A.03,
 Gaussian 16:  ES64L-G16RevA.03 25-Dec-2016

 -----------------------------------
 #p cam-b3lyp/Def2SVP td=(nstates=5)
 -----------------------------------

 --------------------------------
 TDDFT excited states in gaussian
 --------------------------------
 Symbolic Z-matrix:
 Charge =  0 Multiplicity = 1

                         Standard orientation:
 ---------------------------------------------------------------------
 Center     Atomic      Atomic             Coordinates (Angstroms)
 Number     Number       Type             X           Y           Z
 ---------------------------------------------------------------------
      1         12           0        8.080206   -0.591652    0.633093
      2          6           0        8.408703    2.357048   -1.369274
      3          6           0        8.738007    1.361696    3.352431
      4          6           0        8.244850   -3.244424    2.362924
      5          6           0        8.575432   -2.444384   -2.276854
      6          7           0        8.501355    1.572013    0.837633
      7          6           0        8.539186    2.603035   -0.000658
      8          6           0        8.655084    3.980195    0.718627
      9          6           0        9.311610    3.494524    2.087968
     10          6           0        8.791522    2.068080    2.114211
     11          6           0       10.836160    3.460937    2.054502
     12          6           0        7.257989    4.645646    0.957442
     13          6           0        7.297791    6.124337    1.353979
     14          1           0        6.248025    7.007813    0.869408
     15          7           0        7.956033   -0.856931    2.586823
     16          6           0        8.246903    0.052669    3.547712
     17          6           0        7.995804   -0.623627    4.838547
     18          6           0        7.717741   -2.058790    4.553800
     19          6           0        7.991068   -2.117038    3.140550
     20          6           0        7.986075    0.092227    6.154301
     21          6           0        7.285948   -3.199426    5.420193
     22          8           0        7.326734   -4.412372    5.018108
     23          6           0        6.892406   -2.863588    6.800548
     24          7           0        8.586033   -2.562353    0.166070
     25          6           0        8.519608   -3.528886    1.088234
     26          6           0        8.649271   -4.887388    0.465659
     27          6           0        8.574987   -4.659115   -1.112988
     28          6           0        8.492799   -3.112703   -1.124209
     29          6           0        9.929082   -5.661831    0.809652
     30          6           0        7.500228   -5.460506   -1.889572
     31          6           0        6.120237   -4.982484   -1.496865
     32          7           0        8.255316   -0.161435   -1.487118
     33          6           0        8.481259   -1.084066   -2.518803
     34          6           0        8.632516   -0.310347   -3.764816
     35          6           0        8.499694    1.018299   -3.366189
     36          6           0        8.305609    1.072660   -1.956343
     37          6           0        8.919097   -0.848530   -5.050377
     38          6           0        8.501171    2.406063   -3.799740
     39          8           0        8.528817    2.972959   -4.893064
     40          6           0        8.564059    3.334620   -2.507589
     41          6           0        7.516922    4.403354   -2.664505
     42          8           0        6.302630    4.115693   -2.653924
     43          8           0        8.094841    5.610168   -2.563750
     44          6           0        7.106254    6.715187   -2.681140
     45          1           0        9.163538    1.826386    4.244018
     46          1           0        8.200024   -4.191309    2.904991
     47          1           0        8.647847   -2.959087   -3.236693
     48          1           0        9.311317    4.697072    0.224797
     49          1           0        8.930096    4.052747    2.942694
     50          1           0       11.216972    3.653221    1.051542
     51          1           0       11.112429    2.458105    2.380840
     52          1           0       11.254980    4.142986    2.794892
     53          1           0        6.808261    4.224487    1.856570
     54          1           0        6.618163    4.524054    0.082705
     55          1           0        8.279818    6.560414    1.168588
     56          1           0        7.171090    6.191704    2.434538
     57          1           0        8.386370    1.101283    6.064209
     58          1           0        8.693774   -0.423844    6.802791
     59          1           0        6.997866    0.091669    6.614491
     60          1           0        7.729427   -2.381732    7.306275
     61          1           0        6.529120   -3.790208    7.243548
     62          1           0        6.088349   -2.127744    6.769353
     63          1           0        7.830557   -5.537465    0.771490
     64          1           0        9.510573   -4.919715   -1.608408
     65          1           0        9.742971   -6.638395    1.257302
     66          1           0       10.533431   -5.038564    1.468129
     67          1           0       10.609277   -5.815625   -0.027665
     68          1           0        7.557956   -6.518126   -1.634518
     69          1           0        7.597752   -5.374547   -2.971862
     70          1           0        5.919327   -5.542223   -0.584089
     71          1           0        5.396430   -5.230150   -2.274024
     72          1           0        6.124929   -3.924065   -1.235688
     73          1           0        8.266800   -0.327856   -5.751359
     74          1           0        8.749418   -1.924708   -5.075926
     75          1           0        9.973343   -0.589610   -5.147242
     76          1           0        9.570517    3.750150   -2.468869
     77          1           0        7.442542    7.361975   -3.491578
     78          1           0        7.013742    7.155012   -1.687963
     79          1           0        6.113519    6.438003   -3.037492
     80         12           0       -7.743614   -0.717179   -0.546748
     81          6           0      -10.051884    1.627200    0.886721
     82          6           0       -6.209119    1.936338   -2.042989
     83          6           0       -5.976843   -2.786425   -2.178991
     84          6           0      -10.087303   -3.212395    0.106521
     85          7           0       -8.168263    1.453134   -0.506389
     86          6           0       -9.033763    2.234210    0.122248
     87          6           0       -8.746406    3.753504   -0.014645
     88          6           0       -7.906498    3.717040   -1.382888
     89          6           0       -7.360511    2.293262   -1.296673
     90          6           0       -8.775323    3.820994   -2.625334
     91          6           0       -7.884864    4.308310    1.173612
     92          6           0       -7.826714    5.834568    1.268013
     93          1           0       -7.783025    6.448874    2.592090
     94          7           0       -6.026596   -0.461692   -1.508584
     95          6           0       -5.549075    0.687940   -2.029751
     96          6           0       -4.260441    0.343660   -2.650277
     97          6           0       -4.093981   -1.134216   -2.596695
     98          6           0       -5.397236   -1.528464   -2.100536
     99          6           0       -3.293725    1.379388   -3.146431
    100          6           0       -2.955266   -2.043276   -2.947608
    101          8           0       -3.112302   -3.311388   -3.047916
    102          6           0       -1.672866   -1.396507   -3.261688
    103          7           0       -8.076479   -2.672920   -1.168545
    104          6           0       -7.122839   -3.363795   -1.817546
    105          6           0       -7.482612   -4.826914   -1.918791
    106          6           0       -8.768105   -5.018721   -0.986970
    107          6           0       -8.992311   -3.551485   -0.559941
    108          6           0       -7.792475   -5.340014   -3.324882
    109          6           0       -8.679484   -6.105262    0.119488
    110          6           0       -7.668020   -5.695326    1.165557
    111          7           0       -9.631821   -0.843085    0.495775
    112          6           0      -10.459950   -1.979412    0.626399
    113          6           0      -11.689534   -1.544598    1.320283
    114          6           0      -11.499861   -0.169803    1.526359
    115          6           0      -10.249764    0.228321    0.980232
    116          6           0      -12.806144   -2.371041    1.630607
    117          6           0      -12.077579    1.037224    2.072267
    118          8           0      -13.081512    1.297465    2.734168
    119          6           0      -11.221765    2.278971    1.570233
    120          6           0      -10.938739    3.158374    2.757267
    121          8           0      -10.222056    2.751585    3.688664
    122          8           0      -11.377919    4.403460    2.497926
    123          6           0      -11.109765    5.315454    3.641693
    124          1           0       -5.794020    2.667088   -2.737664
    125          1           0       -5.358562   -3.562798   -2.635555
    126          1           0      -10.823172   -3.949858    0.434124
    127          1           0       -9.626815    4.373280   -0.135206
    128          1           0       -7.093869    4.438657   -1.366865
    129          1           0       -9.827546    3.783231   -2.385466
    130          1           0       -8.498988    2.980677   -3.248680
    131          1           0       -8.513392    4.717493   -3.194561
    132          1           0       -6.826396    4.091566    0.980184
    133          1           0       -8.217812    3.900874    2.108369
    134          1           0       -8.591701    6.315442    0.646313
    135          1           0       -6.880666    6.173016    0.838526
    136          1           0       -3.760550    2.370407   -3.204274
    137          1           0       -3.061293    1.127496   -4.186811
    138          1           0       -2.365350    1.398716   -2.571615
    139          1           0       -1.807419   -0.715160   -4.098431
    140          1           0       -0.960293   -2.212040   -3.399546
    141          1           0       -1.369805   -0.785636   -2.404012
    142          1           0       -6.679979   -5.449428   -1.542798
    143          1           0       -9.652872   -5.315235   -1.569295
    144          1           0       -7.152569   -6.189241   -3.630486
    145          1           0       -7.688936   -4.516737   -4.019182
    146          1           0       -8.823414   -5.650252   -3.486508
    147          1           0       -8.323986   -7.048161   -0.303275
    148          1           0       -9.629120   -6.307150    0.603649
    149          1           0       -6.717093   -6.012176    0.726901
    150          1           0       -7.859585   -6.208783    2.105611
    151          1           0       -7.633924   -4.605039    1.274101
    152          1           0      -13.104278   -2.125034    2.641099
    153          1           0      -12.558891   -3.426166    1.533946
    154          1           0      -13.511327   -2.042636    0.862400
    155          1           0      -11.808383    2.794894    0.809131
    156          1           0      -12.068024    5.760499    3.926924
    157          1           0      -10.317539    6.005089    3.294519
    158          1           0      -10.797825    4.867132    4.577723
 ---------------------------------------------------------------------

 SCF Done:  E(RCAM-B3LYP) =  -4069.81203590     A.U. after   19 cycles

 Excitation energies and oscillator strengths:

 Excited State   1:      Singlet-A      1.6713 eV  741.82 nm  f=0.1952  <S**2>=0.000
     309 -> 315        0.10305
     310 -> 316        0.13918
     311 -> 313        0.40697
     312 -> 314        0.55256
 This state for optimization and/or second-order correction.
 Total Energy, E(TD-HF/TD-DFT) =  -4069.75061498
 Copying the excited state density for this state as the 1-particle RhoCI density.

 Excited State   2:      Singlet-A      1.6842 eV  736.18 nm  f=0.5796  <S**2>=0.000
     309 -> 315        0.14236
     310 -> 316       -0.10430
     311 -> 313        0.55189
     312 -> 314       -0.40662

 Excited State   3:      Singlet-A      2.1871 eV  566.89 nm  f=0.0535  <S**2>=0.000
     309 -> 313       -0.15548
     310 -> 314        0.62350
     312 -> 316       -0.26542

 Excited State   4:      Singlet-A      2.1936 eV  565.22 nm  f=0.1393  <S**2>=0.000
     309 -> 313        0.62165
     310 -> 314        0.15450
     311 -> 315       -0.27058

 Excited State   5:      Singlet-A      2.7601 eV  449.21 nm  f=0.0000  <S**2>=0.000
     312 -> 313        0.70703

 The electronic state is 1-A.
 Alpha  occ. eigenvalues --  -46.87850 -46.87571 -19.26410 -19.26302 -19.19149
 Alpha  occ. eigenvalues --  -19.19108 -19.18840 -19.18577 -19.18245 -19.17973
 Alpha  occ. eigenvalues --  -14.42506 -14.42409 -14.41496 -14.41272 -14.39454
 Alpha  occ. eigenvalues --  -14.39257 -14.38644 -14.38512 -10.39202 -10.39036
 Alpha  occ. eigenvalues --  -10.35472 -10.35248 -10.34467 -10.34152 -10.31819
 Alpha  occ. eigenvalues --  -10.31721 -10.31467 -10.31227 -10.30967 -10.30928
 Alpha  occ. eigenvalues --  -10.30628 -10.30558 -10.30308 -10.30272 -10.30242
 Alpha  occ. eigenvalues --  -10.30045 -10.29966 -10.29815 -10.29681 -10.29335
 Alpha  occ. eigenvalues --  -10.29300 -10.29299 -10.28825 -10.28643 -10.28643
 Alpha  occ. eigenvalues --  -10.28601 -10.28422 -10.28310 -10.28183 -10.28059
 Alpha  occ. eigenvalues --  -10.27906 -10.27847 -10.27780 -10.27632 -10.27575
 Alpha  occ. eigenvalues --  -10.27517 -10.27515 -10.27468 -10.27463 -10.27441
 Alpha  occ. eigenvalues --  -10.27396 -10.27357 -10.27300 -10.27283 -10.27242
 Alpha  occ. eigenvalues --  -10.26979 -10.26803 -10.26627 -10.26418 -10.26293
 Alpha  occ. eigenvalues --  -10.26207 -10.26180 -10.26070 -10.26063 -10.25945
 Alpha  occ. eigenvalues --  -10.25900 -10.25846 -10.25780 -10.25449 -10.25326
 Alpha  occ. eigenvalues --  -10.24891 -10.24834 -10.24782 -10.24671 -10.24665
 Alpha  occ. eigenvalues --  -10.24601  -3.16594  -3.16321  -1.91475  -1.91204
 Alpha  occ. eigenvalues --   -1.91062  -1.90904  -1.90792  -1.90629  -1.16758
 Alpha  occ. eigenvalues --   -1.16594  -1.08708  -1.08585  -1.07240  -1.06892
 Alpha  occ. eigenvalues --   -1.06829  -1.06769  -1.04638  -1.04406  -1.03809
 Alpha  occ. eigenvalues --   -1.03573  -1.03285  -1.02949  -1.02463  -1.02021
 Alpha  occ. eigenvalues --   -0.92037  -0.91903  -0.89553  -0.89412  -0.89258
 Alpha  occ. eigenvalues --   -0.89073  -0.88317  -0.88141  -0.87927  -0.87729
 Alpha  occ. eigenvalues --   -0.87710  -0.87596  -0.87313  -0.86983  -0.85048
 Alpha  occ. eigenvalues --   -0.84917  -0.83965  -0.83800  -0.82993  -0.82797
 Alpha  occ. eigenvalues --   -0.82709  -0.82549  -0.81669  -0.81526  -0.80660
 Alpha  occ. eigenvalues --   -0.80356  -0.78843  -0.78520  -0.77268  -0.77054
 Alpha  occ. eigenvalues --   -0.77002  -0.76826  -0.75993  -0.75756  -0.74936
 Alpha  occ. eigenvalues --   -0.74723  -0.72825  -0.72610  -0.71725  -0.71498
 Alpha  occ. eigenvalues --   -0.69924  -0.69682  -0.68934  -0.68739  -0.67696
 Alpha  occ. eigenvalues --   -0.67510  -0.67286  -0.67103  -0.65356  -0.65193
 Alpha  occ. eigenvalues --   -0.64917  -0.64687  -0.64680  -0.64575  -0.64305
 Alpha  occ. eigenvalues --   -0.64124  -0.62385  -0.62211  -0.60480  -0.60222
 Alpha  occ. eigenvalues --   -0.59868  -0.59712  -0.59041  -0.58908  -0.58560
 Alpha  occ. eigenvalues --   -0.58340  -0.57669  -0.57483  -0.57356  -0.57142
 Alpha  occ. eigenvalues --   -0.56366  -0.56109  -0.56074  -0.55815  -0.55569
 Alpha  occ. eigenvalues --   -0.55390  -0.55344  -0.55174  -0.54587  -0.54419
 Alpha  occ. eigenvalues --   -0.53966  -0.53832  -0.53346  -0.53281  -0.53133
 Alpha  occ. eigenvalues --   -0.53043  -0.52986  -0.52821  -0.52800  -0.52527
 Alpha  occ. eigenvalues --   -0.52453  -0.52326  -0.51974  -0.51808  -0.51683
 Alpha  occ. eigenvalues --   -0.51560  -0.51255  -0.51122  -0.50599  -0.50321
 Alpha  occ. eigenvalues --   -0.50058  -0.49959  -0.49874  -0.49773  -0.49571
 Alpha  occ. eigenvalues --   -0.49376  -0.49275  -0.49162  -0.49103  -0.49025
 Alpha  occ. eigenvalues --   -0.48665  -0.48505  -0.48487  -0.48478  -0.48299
 Alpha  occ. eigenvalues --   -0.48213  -0.47746  -0.47496  -0.47345  -0.47011
 Alpha  occ. eigenvalues --   -0.46846  -0.46626  -0.46625  -0.46467  -0.46411
 Alpha  occ. eigenvalues --   -0.46218  -0.46177  -0.46007  -0.45897  -0.45753
 Alpha  occ. eigenvalues --   -0.45234  -0.45127  -0.44647  -0.44550  -0.44434
 Alpha  occ. eigenvalues --   -0.44388  -0.44190  -0.44145  -0.44077  -0.44041
 Alpha  occ. eigenvalues --   -0.43987  -0.43818  -0.43573  -0.43487  -0.43439
 Alpha  occ. eigenvalues --   -0.43303  -0.43082  -0.42863  -0.42822  -0.42798
 Alpha  occ. eigenvalues --   -0.42687  -0.42465  -0.42053  -0.41889  -0.41762
 Alpha  occ. eigenvalues --   -0.41597  -0.41587  -0.41379  -0.41195  -0.40924
 Alpha  occ. eigenvalues --   -0.40905  -0.40859  -0.40633  -0.40606  -0.40585
 Alpha  occ. eigenvalues --   -0.40416  -0.40313  -0.40140  -0.39452  -0.39351
 Alpha  occ. eigenvalues --   -0.38504  -0.38273  -0.37826  -0.37581  -0.37359
 Alpha  occ. eigenvalues --   -0.37333  -0.37185  -0.37114  -0.36809  -0.36713
 Alpha  occ. eigenvalues --   -0.36259  -0.36143  -0.34341  -0.34167  -0.33886
 Alpha  occ. eigenvalues --   -0.33802  -0.33243  -0.33087  -0.31371  -0.31140
 Alpha  occ. eigenvalues --   -0.31089  -0.30882  -0.30107  -0.29880  -0.29498
 Alpha  occ. eigenvalues --   -0.29379  -0.29222  -0.29119  -0.24135  -0.23949
 Alpha  occ. eigenvalues --   -0.21179  -0.21025
 Alpha virt. eigenvalues --   -0.08825  -0.08695  -0.01797  -0.01591  -0.00104
 Alpha virt. eigenvalues --    0.00085   0.02140   0.02293   0.03049   0.03309
 Alpha virt. eigenvalues --    0.04655   0.04810   0.04983   0.05223   0.06090

 Mulliken charges:
               1
     1  Mg   0.838282
     2  C   -0.003366
     3  C   -0.094204
     4  C   -0.045630
     5  C   -0.063779
     6  N   -0.256813
     7  C   -0.052633
     8  C   -0.013987
     9  C   -0.087002
    10  C    0.046270
    11  C    0.104771
    12  C    0.053500
    13  C   -0.071641
    14  H    0.035328
    15  N   -0.433206
    16  C    0.168478
    17  C   -0.177061
    18  C   -0.003786
    19  C    0.148734
    20  C    0.110136
    21  C    0.012493
    22  O   -0.249216
    23  C    0.062388
    24  N   -0.341132
    25  C    0.041316
    26  C   -0.028268
    27  C   -0.024004
    28  C    0.074821
    29  C    0.076115
    30  C    0.035048
    31  C   -0.004605
    32  N   -0.310342
    33  C    0.080121
    34  C   -0.169903
    35  C    0.008159
    36  C    0.082653
    37  C    0.127390
    38  C    0.045724
    39  O   -0.188896
    40  C   -0.005180
    41  C    0.212946
    42  O   -0.258071
    43  O   -0.304508
    44  C    0.157930
    45  H   -0.017468
    46  H   -0.016469
    47  H   -0.041317
    48  H    0.000896
    49  H   -0.004019
    50  H    0.025483
    51  H    0.016626
    52  H    0.016779
    53  H    0.011196
    54  H    0.043445
    55  H    0.018106
    56  H    0.018190
    57  H    0.005862
    58  H    0.027066
    59  H    0.039821
    60  H    0.037358
    61  H    0.036083
    62  H    0.031644
    63  H    0.016962
    64  H    0.009504
    65  H    0.023501
    66  H    0.012476
    67  H    0.004838
    68  H    0.006738
    69  H    0.004736
    70  H    0.009242
    71  H    0.018900
    72  H    0.028295
    73  H    0.047142
    74  H    0.009340
    75  H    0.046082
    76  H    0.035270
    77  H    0.042997
    78  H    0.046510
    79  H    0.052816
    80  Mg   0.837670
    81  C   -0.016875
    82  C   -0.087621
    83  C   -0.045501
    84  C   -0.064918
    85  N   -0.254544
    86  C   -0.050111
    87  C   -0.015080
    88  C   -0.090499
    89  C    0.045694
    90  C    0.114353
    91  C    0.062522
    92  C   -0.077743
    93  H    0.034320
    94  N   -0.423612
    95  C    0.162912
    96  C   -0.174313
    97  C   -0.007564
    98  C    0.152123
    99  C    0.099183
   100  C    0.015539
   101  O   -0.253526
   102  C    0.061367
   103  N   -0.350047
   104  C    0.037598
   105  C   -0.019873
   106  C   -0.034668
   107  C    0.088700
   108  C    0.073697
   109  C    0.034792
   110  C   -0.007651
   111  N   -0.324013
   112  C    0.078162
   113  C   -0.163404
   114  C    0.002081
   115  C    0.096001
   116  C    0.131552
   117  C    0.042158
   118  O   -0.188371
   119  C    0.000949
   120  C    0.211226
   121  O   -0.251188
   122  O   -0.305606
   123  C    0.152135
   124  H   -0.019237
   125  H   -0.015541
   126  H   -0.040736
   127  H   -0.000832
   128  H   -0.004171
   129  H    0.022305
   130  H    0.014553
   131  H    0.016364
   132  H    0.014035
   133  H    0.037484
   134  H    0.020747
   135  H    0.019712
   136  H    0.008866
   137  H    0.026963
   138  H    0.041475
   139  H    0.039172
   140  H    0.036575
   141  H    0.034722
   142  H    0.014383
   143  H    0.012226
   144  H    0.025058
   145  H    0.011745
   146  H    0.005525
   147  H    0.006102
   148  H    0.003467
   149  H    0.010976
   150  H    0.017715
   151  H    0.030173
   152  H    0.045706
   153  H    0.008325
   154  H    0.046718
   155  H    0.034876
   156  H    0.043724
   157  H    0.049447
   158  H    0.053371
 Sum of Mulliken charges =  -0.00000

 Dipole moment (field-independent basis, Debye):
    X=              4.1266    Y=              3.0121    Z=              0.9692  Tot=              5.2001
 Quadrupole moment (field-independent basis, Debye-Ang):
   XX=           -535.1885   YY=           -465.6346   ZZ=           -522.0177
   XY=             11.5055   XZ=             69.4524   YZ=             24.6929

 Normal termination of Gaussian 16 at Sat Sep 11 19:49:07 2021.
