 Gaussian 16, Revision A.03,
 Gaussian 16:  ES64L-G16RevA.03 25-Dec-2016

 -----------------------------------
 #p cam-b3lyp/Def2SVP td=(nstates=5)
 -----------------------------------

 --------------------------------
 TDDFT excited states in gaussian
 --------------------------------
 Symbolic Z-matrix:
 Charge =  0 Multiplicity = 1

                         Standard orientation:
 ---------------------------------------------------------------------
 Center     Atomic      Atomic             Coordinates (Angstroms)
 Number     Number       Type             X           Y           Z
 ---------------------------------------------------------------------
      1         12           0       -6.524039    0.677370    0.351048
      2          6           0       -6.848912   -2.344219   -1.540160
      3          6           0       -7.219976   -1.166784    3.136337
      4          6           0       -6.691194    3.395364    1.976223
      5          6           0       -6.979704    2.419668   -2.632645
      6          7           0       -6.959300   -1.474637    0.633994
      7          6           0       -6.994484   -2.536845   -0.164534
      8          6           0       -7.125281   -3.884780    0.605751
      9          6           0       -7.792779   -3.343535    1.948694
     10          6           0       -7.265019   -1.919856    1.925600
     11          6           0       -9.316706   -3.303331    1.898366
     12          6           0       -5.734390   -4.547835    0.884164
     13          6           0       -5.786428   -6.010001    1.336621
     14          1           0       -4.736808   -6.916860    0.897014
     15          7           0       -6.417981    1.016748    2.294351
     16          6           0       -6.723548    0.146200    3.286349
     17          6           0       -6.481629    0.870197    4.552834
     18          6           0       -6.192711    2.291917    4.216185
     19          6           0       -6.451525    2.297332    2.799017
     20          6           0       -6.489093    0.205299    5.895073
     21          6           0       -5.763260    3.462686    5.042625
     22          8           0       -5.793235    4.659512    4.593978
     23          6           0       -5.385461    3.178002    6.438786
     24          7           0       -7.014139    2.631310   -0.196269
     25          6           0       -6.951564    3.632146    0.688827
     26          6           0       -7.067386    4.966423    0.013379
     27          6           0       -6.978554    4.677380   -1.554523
     28          6           0       -6.904899    3.131270   -1.505660
     29          6           0       -8.346235    5.760134    0.314341
     30          6           0       -5.891601    5.442795   -2.350194
     31          6           0       -4.518310    4.973020   -1.925364
     32          7           0       -6.680283    0.167058   -1.752809
     33          6           0       -6.890712    1.050599   -2.821336
     34          6           0       -7.033788    0.230451   -4.038281
     35          6           0       -6.912396   -1.082599   -3.587716
     36          6           0       -6.732763   -1.083848   -2.174909
     37          6           0       -7.304454    0.720408   -5.346377
     38          6           0       -6.917279   -2.485945   -3.967784
     39          8           0       -6.937129   -3.094211   -5.038817
     40          6           0       -6.998307   -3.363915   -2.641725
     41          6           0       -5.955638   -4.443310   -2.746865
     42          8           0       -4.739924   -4.161772   -2.734885
     43          8           0       -6.541271   -5.642351   -2.605879
     44          6           0       -5.557746   -6.756185   -2.670734
     45          1           0       -7.657015   -1.594714    4.040667
     46          1           0       -6.646516    4.362099    2.482053
     47          1           0       -7.039614    2.897543   -3.612186
     48          1           0       -7.780525   -4.616651    0.133052
     49          1           0       -7.422980   -3.870537    2.828034
     50          1           0       -9.688511   -3.531962    0.899663
     51          1           0       -9.590626   -2.287296    2.183209
     52          1           0       -9.746733   -3.954290    2.660013
     53          1           0       -5.291355   -4.094841    1.771056
     54          1           0       -5.085157   -4.463214    0.012005
     55          1           0       -6.768967   -6.447756    1.158030
     56          1           0       -5.670946   -6.036528    2.420208
     57          1           0       -6.894096   -0.804375    5.839606
     58          1           0       -7.200365    0.749538    6.516044
     59          1           0       -5.505560    0.218371    6.364993
     60          1           0       -6.230190    2.720258    6.954006
     61          1           0       -5.021463    4.119032    6.849661
     62          1           0       -4.585255    2.437332    6.444028
     63          1           0       -6.248159    5.623487    0.302448
     64          1           0       -7.907655    4.923645   -2.069109
     65          1           0       -8.159168    6.752170    0.726138
     66          1           0       -8.960628    5.165735    0.989989
     67          1           0       -9.017130    5.885231   -0.535168
     68          1           0       -5.945974    6.509706   -2.136442
     69          1           0       -5.978748    5.315893   -3.429338
     70          1           0       -4.323438    5.566308   -1.032689
     71          1           0       -3.785374    5.186927   -2.703991
     72          1           0       -4.531533    3.925438   -1.623898
     73          1           0       -6.648080    0.169845   -6.020189
     74          1           0       -7.128517    1.793918   -5.411391
     75          1           0       -8.359106    0.463448   -5.444037
     76          1           0       -8.007409   -3.772415   -2.597418
     77          1           0       -5.889500   -7.431826   -3.459202
     78          1           0       -5.477656   -7.158064   -1.660544
     79          1           0       -4.559956   -6.498038   -3.027263
     80         12           0        6.685349    0.681575   -0.498055
     81          6           0        6.581819   -2.540537    1.078746
     82          6           0        6.004330    2.033534    2.558575
     83          6           0        6.324062    3.489409   -1.930870
     84          6           0        6.220389   -0.947907   -3.543430
     85          7           0        6.357539   -0.237873    1.486741
     86          6           0        6.403516   -1.467569    1.976719
     87          6           0        6.330063   -1.546052    3.525275
     88          6           0        5.586327   -0.149902    3.801805
     89          6           0        6.034250    0.616072    2.558694
     90          6           0        4.070878   -0.259648    3.774955
     91          6           0        7.750931   -1.581520    4.190032
     92          6           0        7.758718   -1.968013    5.670677
     93          1           0        8.875621   -2.760745    6.177229
     94          7           0        6.717320    2.519124    0.250913
     95          6           0        6.435902    2.886089    1.518760
     96          6           0        6.582937    4.349361    1.556111
     97          6           0        6.813239    4.833246    0.167761
     98          6           0        6.601798    3.608132   -0.576867
     99          6           0        6.579792    5.135085    2.835195
    100          6           0        7.153295    6.179016   -0.397450
    101          8           0        7.072681    6.421784   -1.653390
    102          6           0        7.493322    7.230464    0.572255
    103          7           0        6.114097    1.218824   -2.423511
    104          6           0        6.089448    2.508578   -2.802791
    105          6           0        5.917928    2.634327   -4.297830
    106          6           0        6.075689    1.151088   -4.874637
    107          6           0        6.229059    0.378026   -3.546392
    108          6           0        4.588297    3.224040   -4.767616
    109          6           0        7.143324    0.936558   -5.982250
    110          6           0        8.528307    1.133445   -5.409155
    111          7           0        6.626720   -1.370700   -1.170934
    112          6           0        6.393602   -1.831057   -2.485397
    113          6           0        6.333476   -3.305935   -2.425915
    114          6           0        6.514272   -3.602606   -1.066583
    115          6           0        6.655506   -2.396833   -0.327902
    116          6           0        6.086765   -4.173539   -3.527066
    117          6           0        6.607141   -4.661212   -0.087071
    118          8           0        6.646241   -5.889918   -0.136986
    119          6           0        6.528589   -4.015924    1.363383
    120          6           0        7.631933   -4.609099    2.196029
    121          8           0        8.823422   -4.389770    1.915204
    122          8           0        7.101899   -5.153917    3.306256
    123          6           0        8.158346   -5.745564    4.169786
    124          1           0        5.570480    2.543385    3.419221
    125          1           0        6.299493    4.426960   -2.491120
    126          1           0        6.176411   -1.533445   -4.464235
    127          1           0        5.736523   -2.366289    3.910889
    128          1           0        5.965301    0.328123    4.701373
    129          1           0        3.743378   -1.238093    3.456316
    130          1           0        3.733402    0.497435    3.079268
    131          1           0        3.655502    0.018394    4.747829
    132          1           0        8.138605   -0.557129    4.261208
    133          1           0        8.410809   -2.227659    3.644427
    134          1           0        6.803359   -2.403303    5.988090
    135          1           0        7.849220   -1.056677    6.266742
    136          1           0        6.225681    4.529389    3.678487
    137          1           0        5.822509    5.919103    2.726987
    138          1           0        7.544446    5.602062    3.045042
    139          1           0        6.661004    7.372648    1.257455
    140          1           0        7.792859    8.093503   -0.025502
    141          1           0        8.342372    6.889216    1.174972
    142          1           0        6.691205    3.261363   -4.724421
    143          1           0        5.145472    0.793991   -5.340474
    144          1           0        4.709182    4.121087   -5.403843
    145          1           0        3.989888    3.453840   -3.896046
    146          1           0        3.945527    2.536225   -5.314368
    147          1           0        7.025161    1.682776   -6.771769
    148          1           0        7.088718   -0.040110   -6.451433
    149          1           0        8.657556    2.219351   -5.443617
    150          1           0        9.271883    0.627818   -6.021922
    151          1           0        8.565345    0.830318   -4.356356
    152          1           0        6.785338   -4.994936   -3.438851
    153          1           0        6.200821   -3.653786   -4.476074
    154          1           0        5.046421   -4.446521   -3.331004
    155          1           0        5.542080   -4.242408    1.769704
    156          1           0        7.885088   -6.791952    4.337393
    157          1           0        8.217466   -5.091595    5.060049
    158          1           0        9.150492   -5.851214    3.746784
 ---------------------------------------------------------------------

 SCF Done:  E(RCAM-B3LYP) =  -4069.81179847     A.U. after   19 cycles

 Excitation energies and oscillator strengths:

 Excited State   1:      Singlet-A      1.6703 eV  742.29 nm  f=0.1897  <S**2>=0.000
     309 -> 315       -0.10243
     310 -> 316        0.13882
     311 -> 313       -0.40622
     312 -> 314        0.55310
 This state for optimization and/or second-order correction.
 Total Energy, E(TD-HF/TD-DFT) =  -4069.75041642
 Copying the excited state density for this state as the 1-particle RhoCI density.

 Excited State   2:      Singlet-A      1.6836 eV  736.43 nm  f=0.5437  <S**2>=0.000
     309 -> 315        0.14203
     310 -> 316        0.10419
     311 -> 313        0.55241
     312 -> 314        0.40584

 Excited State   3:      Singlet-A      2.1856 eV  567.28 nm  f=0.0840  <S**2>=0.000
     309 -> 313       -0.10919
     310 -> 314        0.63326
     312 -> 316       -0.26907

 Excited State   4:      Singlet-A      2.1919 eV  565.66 nm  f=0.1128  <S**2>=0.000
     309 -> 313        0.63148
     310 -> 314        0.10835
     311 -> 315       -0.27383

 Excited State   5:      Singlet-A      2.6502 eV  467.82 nm  f=0.0000  <S**2>=0.000
     312 -> 313        0.70710

 The electronic state is 1-A.
 Alpha  occ. eigenvalues --  -46.87851 -46.87557 -19.26307 -19.26284 -19.19107
 Alpha  occ. eigenvalues --  -19.19030 -19.18902 -19.18623 -19.18212 -19.17960
 Alpha  occ. eigenvalues --  -14.42500 -14.42400 -14.41503 -14.41251 -14.39461
 Alpha  occ. eigenvalues --  -14.39250 -14.38640 -14.38494 -10.39091 -10.39034
 Alpha  occ. eigenvalues --  -10.35538 -10.35301 -10.34430 -10.34139 -10.31732
 Alpha  occ. eigenvalues --  -10.31657 -10.31449 -10.31214 -10.30959 -10.30936
 Alpha  occ. eigenvalues --  -10.30620 -10.30564 -10.30291 -10.30266 -10.30257
 Alpha  occ. eigenvalues --  -10.30030 -10.29972 -10.29781 -10.29689 -10.29331
 Alpha  occ. eigenvalues --  -10.29315 -10.29297 -10.28778 -10.28659 -10.28632
 Alpha  occ. eigenvalues --  -10.28532 -10.28419 -10.28307 -10.28150 -10.28075
 Alpha  occ. eigenvalues --  -10.27897 -10.27849 -10.27779 -10.27648 -10.27572
 Alpha  occ. eigenvalues --  -10.27560 -10.27552 -10.27502 -10.27452 -10.27388
 Alpha  occ. eigenvalues --  -10.27387 -10.27379 -10.27365 -10.27253 -10.27190
 Alpha  occ. eigenvalues --  -10.26970 -10.26721 -10.26647 -10.26527 -10.26335
 Alpha  occ. eigenvalues --  -10.26265 -10.26231 -10.26073 -10.26017 -10.25968
 Alpha  occ. eigenvalues --  -10.25892 -10.25820 -10.25709 -10.25486 -10.25260
 Alpha  occ. eigenvalues --  -10.24886 -10.24843 -10.24768 -10.24736 -10.24625
 Alpha  occ. eigenvalues --  -10.24585  -3.16594  -3.16306  -1.91476  -1.91189
 Alpha  occ. eigenvalues --   -1.91062  -1.90904  -1.90777  -1.90614  -1.16635
 Alpha  occ. eigenvalues --   -1.16598  -1.08666  -1.08570  -1.07305  -1.06891
 Alpha  occ. eigenvalues --   -1.06876  -1.06652  -1.04631  -1.04400  -1.03814
 Alpha  occ. eigenvalues --   -1.03561  -1.03289  -1.02931  -1.02465  -1.02006
 Alpha  occ. eigenvalues --   -0.92018  -0.91892  -0.89571  -0.89385  -0.89221
 Alpha  occ. eigenvalues --   -0.89082  -0.88338  -0.88107  -0.87922  -0.87720
 Alpha  occ. eigenvalues --   -0.87680  -0.87588  -0.87347  -0.87025  -0.85020
 Alpha  occ. eigenvalues --   -0.84924  -0.83984  -0.83765  -0.83049  -0.82837
 Alpha  occ. eigenvalues --   -0.82691  -0.82575  -0.81613  -0.81521  -0.80640
 Alpha  occ. eigenvalues --   -0.80358  -0.78861  -0.78535  -0.77265  -0.77057
 Alpha  occ. eigenvalues --   -0.76964  -0.76818  -0.75957  -0.75762  -0.74944
 Alpha  occ. eigenvalues --   -0.74695  -0.72826  -0.72594  -0.71717  -0.71485
 Alpha  occ. eigenvalues --   -0.69956  -0.69645  -0.68916  -0.68749  -0.67694
 Alpha  occ. eigenvalues --   -0.67507  -0.67261  -0.67130  -0.65322  -0.65197
 Alpha  occ. eigenvalues --   -0.64896  -0.64675  -0.64660  -0.64571  -0.64319
 Alpha  occ. eigenvalues --   -0.64096  -0.62321  -0.62204  -0.60509  -0.60239
 Alpha  occ. eigenvalues --   -0.59845  -0.59717  -0.59035  -0.58894  -0.58551
 Alpha  occ. eigenvalues --   -0.58330  -0.57618  -0.57473  -0.57358  -0.57135
 Alpha  occ. eigenvalues --   -0.56363  -0.56108  -0.55996  -0.55821  -0.55580
 Alpha  occ. eigenvalues --   -0.55379  -0.55369  -0.55148  -0.54555  -0.54398
 Alpha  occ. eigenvalues --   -0.53928  -0.53845  -0.53359  -0.53270  -0.53130
 Alpha  occ. eigenvalues --   -0.53061  -0.52954  -0.52824  -0.52819  -0.52587
 Alpha  occ. eigenvalues --   -0.52487  -0.52292  -0.51963  -0.51760  -0.51660
 Alpha  occ. eigenvalues --   -0.51587  -0.51237  -0.51109  -0.50658  -0.50386
 Alpha  occ. eigenvalues --   -0.50084  -0.49984  -0.49896  -0.49758  -0.49565
 Alpha  occ. eigenvalues --   -0.49405  -0.49264  -0.49132  -0.49119  -0.49023
 Alpha  occ. eigenvalues --   -0.48629  -0.48528  -0.48494  -0.48477  -0.48269
 Alpha  occ. eigenvalues --   -0.48250  -0.47744  -0.47508  -0.47350  -0.47022
 Alpha  occ. eigenvalues --   -0.46843  -0.46613  -0.46590  -0.46480  -0.46410
 Alpha  occ. eigenvalues --   -0.46205  -0.46169  -0.45980  -0.45854  -0.45732
 Alpha  occ. eigenvalues --   -0.45252  -0.45099  -0.44620  -0.44564  -0.44433
 Alpha  occ. eigenvalues --   -0.44391  -0.44198  -0.44127  -0.44067  -0.44045
 Alpha  occ. eigenvalues --   -0.43981  -0.43855  -0.43526  -0.43478  -0.43429
 Alpha  occ. eigenvalues --   -0.43299  -0.43072  -0.42862  -0.42807  -0.42735
 Alpha  occ. eigenvalues --   -0.42679  -0.42447  -0.42052  -0.41872  -0.41750
 Alpha  occ. eigenvalues --   -0.41577  -0.41569  -0.41380  -0.41186  -0.40917
 Alpha  occ. eigenvalues --   -0.40899  -0.40889  -0.40644  -0.40619  -0.40617
 Alpha  occ. eigenvalues --   -0.40388  -0.40261  -0.40170  -0.39490  -0.39312
 Alpha  occ. eigenvalues --   -0.38515  -0.38244  -0.37776  -0.37591  -0.37370
 Alpha  occ. eigenvalues --   -0.37300  -0.37162  -0.37115  -0.36735  -0.36707
 Alpha  occ. eigenvalues --   -0.36226  -0.36123  -0.34337  -0.34153  -0.33798
 Alpha  occ. eigenvalues --   -0.33789  -0.33236  -0.33073  -0.31430  -0.31181
 Alpha  occ. eigenvalues --   -0.31087  -0.30874  -0.30069  -0.29866  -0.29513
 Alpha  occ. eigenvalues --   -0.29376  -0.29226  -0.29105  -0.24132  -0.23933
 Alpha  occ. eigenvalues --   -0.21181  -0.21014
 Alpha virt. eigenvalues --   -0.08831  -0.08689  -0.01806  -0.01580  -0.00124
 Alpha virt. eigenvalues --    0.00064   0.02150   0.02309   0.03057   0.03318
 Alpha virt. eigenvalues --    0.04679   0.04817   0.05082   0.05225   0.06164

 Mulliken charges:
               1
     1  Mg   0.838546
     2  C   -0.002907
     3  C   -0.094134
     4  C   -0.046005
     5  C   -0.063979
     6  N   -0.256782
     7  C   -0.052311
     8  C   -0.014001
     9  C   -0.086967
    10  C    0.046267
    11  C    0.104799
    12  C    0.053481
    13  C   -0.072174
    14  H    0.037173
    15  N   -0.433088
    16  C    0.168245
    17  C   -0.177341
    18  C   -0.004304
    19  C    0.148629
    20  C    0.110201
    21  C    0.011908
    22  O   -0.249798
    23  C    0.062690
    24  N   -0.341157
    25  C    0.041239
    26  C   -0.028128
    27  C   -0.024048
    28  C    0.074946
    29  C    0.076156
    30  C    0.035117
    31  C   -0.004491
    32  N   -0.310506
    33  C    0.080511
    34  C   -0.169702
    35  C    0.008458
    36  C    0.083018
    37  C    0.127308
    38  C    0.046175
    39  O   -0.188129
    40  C   -0.005295
    41  C    0.212899
    42  O   -0.257028
    43  O   -0.304848
    44  C    0.157524
    45  H   -0.017576
    46  H   -0.016989
    47  H   -0.041387
    48  H    0.001139
    49  H   -0.003987
    50  H    0.025561
    51  H    0.016356
    52  H    0.016765
    53  H    0.010931
    54  H    0.044299
    55  H    0.017903
    56  H    0.017846
    57  H    0.006034
    58  H    0.026824
    59  H    0.038859
    60  H    0.037605
    61  H    0.035160
    62  H    0.030737
    63  H    0.016395
    64  H    0.009581
    65  H    0.023158
    66  H    0.012558
    67  H    0.004869
    68  H    0.006486
    69  H    0.004837
    70  H    0.008625
    71  H    0.018413
    72  H    0.028817
    73  H    0.047596
    74  H    0.009150
    75  H    0.046181
    76  H    0.035293
    77  H    0.043132
    78  H    0.046624
    79  H    0.054039
    80  Mg   0.838094
    81  C   -0.016872
    82  C   -0.087904
    83  C   -0.045399
    84  C   -0.064045
    85  N   -0.254517
    86  C   -0.049805
    87  C   -0.015055
    88  C   -0.090536
    89  C    0.045765
    90  C    0.114431
    91  C    0.062599
    92  C   -0.077645
    93  H    0.034581
    94  N   -0.423480
    95  C    0.162857
    96  C   -0.174650
    97  C   -0.007862
    98  C    0.152104
    99  C    0.099380
   100  C    0.015486
   101  O   -0.253297
   102  C    0.061232
   103  N   -0.349951
   104  C    0.037681
   105  C   -0.019948
   106  C   -0.035004
   107  C    0.088962
   108  C    0.073466
   109  C    0.034679
   110  C   -0.007626
   111  N   -0.324209
   112  C    0.078491
   113  C   -0.162561
   114  C    0.002291
   115  C    0.096341
   116  C    0.131399
   117  C    0.042594
   118  O   -0.188137
   119  C    0.000811
   120  C    0.211148
   121  O   -0.251065
   122  O   -0.305725
   123  C    0.152125
   124  H   -0.019937
   125  H   -0.015637
   126  H   -0.039895
   127  H   -0.001074
   128  H   -0.004725
   129  H    0.022479
   130  H    0.015044
   131  H    0.015320
   132  H    0.013955
   133  H    0.037676
   134  H    0.020348
   135  H    0.019431
   136  H    0.008521
   137  H    0.026244
   138  H    0.039490
   139  H    0.038302
   140  H    0.036180
   141  H    0.033725
   142  H    0.014140
   143  H    0.013486
   144  H    0.024711
   145  H    0.011814
   146  H    0.006593
   147  H    0.006255
   148  H    0.003921
   149  H    0.010753
   150  H    0.017765
   151  H    0.029950
   152  H    0.045610
   153  H    0.008714
   154  H    0.048261
   155  H    0.034955
   156  H    0.043582
   157  H    0.049258
   158  H    0.053561
 Sum of Mulliken charges =  -0.00000

 Dipole moment (field-independent basis, Debye):
    X=             -3.6146    Y=              2.0142    Z=              6.8665  Tot=              8.0169
 Quadrupole moment (field-independent basis, Debye-Ang):
   XX=           -518.5774   YY=           -526.9859   ZZ=           -472.0529
   XY=             27.9960   XZ=             -5.4096   YZ=            -25.6296

 Normal termination of Gaussian 16 at Sat Sep  4 09:58:31 2021.
