 Gaussian 16, Revision A.03,
 Gaussian 16:  ES64L-G16RevA.03 25-Dec-2016

 -----------------------------------
 #p cam-b3lyp/Def2SVP td=(nstates=5)
 -----------------------------------

 --------------------------------
 TDDFT excited states in gaussian
 --------------------------------
 Symbolic Z-matrix:
 Charge =  0 Multiplicity = 1

                         Standard orientation:
 ---------------------------------------------------------------------
 Center     Atomic      Atomic             Coordinates (Angstroms)
 Number     Number       Type             X           Y           Z
 ---------------------------------------------------------------------
      1         12           0        7.685397   -0.857474    0.081019
      2          6           0        7.989158    2.098138   -1.915053
      3          6           0        8.580420    1.045086    2.768446
      4          6           0        7.866596   -3.531441    1.776214
      5          6           0        7.931904   -2.696895   -2.868799
      6          7           0        8.193323    1.288425    0.275378
      7          6           0        8.214005    2.325869   -0.555558
      8          6           0        8.422622    3.691033    0.165677
      9          6           0        9.146840    3.169624    1.486904
     10          6           0        8.580313    1.761551    1.534870
     11          6           0       10.664176    3.084412    1.356783
     12          6           0        7.067241    4.401316    0.497595
     13          6           0        7.183156    5.873762    0.902345
     14          1           0        6.136213    6.797307    0.492074
     15          7           0        7.675369   -1.137842    2.036560
     16          6           0        8.057515   -0.248318    2.984188
     17          6           0        7.864904   -0.928502    4.283008
     18          6           0        7.519892   -2.350438    4.005236
     19          6           0        7.701507   -2.403871    2.577112
     20          6           0        7.962858   -0.225893    5.602287
     21          6           0        7.104237   -3.484274    4.888287
     22          8           0        7.077563   -4.693834    4.474975
     23          6           0        6.810268   -3.149000    6.293355
     24          7           0        8.092209   -2.839519   -0.432436
     25          6           0        8.050524   -3.812376    0.484513
     26          6           0        8.093567   -5.168231   -0.155599
     27          6           0        7.927987   -4.921822   -1.724554
     28          6           0        7.898899   -3.373472   -1.718486
     29          6           0        9.364888   -5.989253    0.100676
     30          6           0        6.779334   -5.678316   -2.437809
     31          6           0        5.444206   -5.157461   -1.954856
     32          7           0        7.741463   -0.412350   -2.042602
     33          6           0        7.869885   -1.331811   -3.093684
     34          6           0        7.969109   -0.551308   -4.340696
     35          6           0        7.907779    0.777052   -3.924109
     36          6           0        7.804852    0.823932   -2.504426
     37          6           0        8.155351   -1.086098   -5.645973
     38          6           0        7.930049    2.168214   -4.346043
     39          8           0        7.908429    2.744716   -5.434469
     40          6           0        8.106318    3.081151   -3.053254
     41          6           0        7.089049    4.186478   -3.135257
     42          8           0        5.868594    3.940296   -3.050112
     43          8           0        7.713642    5.371821   -3.061858
     44          6           0        6.758517    6.511021   -3.107837
     45          1           0        9.077095    1.486081    3.634920
     46          1           0        7.823201   -4.481607    2.312627
     47          1           0        7.925856   -3.204167   -3.835284
     48          1           0        9.070910    4.390009   -0.363076
     49          1           0        8.839478    3.731977    2.368386
     50          1           0       10.987515    3.273595    0.333268
     51          1           0       10.925523    2.069538    1.657152
     52          1           0       11.152170    3.744364    2.074489
     53          1           0        6.660695    3.986788    1.420063
     54          1           0        6.369777    4.310343   -0.335828
     55          1           0        8.166083    6.277929    0.658599
     56          1           0        7.127156    5.934628    1.989248
     57          1           0        8.391416    0.769776    5.494924
     58          1           0        8.691674   -0.772237    6.200654
     59          1           0        7.006162   -0.197347    6.124062
     60          1           0        7.693668   -2.701031    6.748853
     61          1           0        6.443701   -4.067067    6.751209
     62          1           0        6.031828   -2.385893    6.318839
     63          1           0        7.273697   -5.793034    0.196339
     64          1           0        8.820926   -5.209215   -2.280196
     65          1           0        9.173600   -6.963320    0.551571
     66          1           0       10.030736   -5.393554    0.724438
     67          1           0        9.985272   -6.157789   -0.779175
     68          1           0        6.816319   -6.739781   -2.195178
     69          1           0        6.811438   -5.584941   -3.523397
     70          1           0        5.281891   -5.719101   -1.035593
     71          1           0        4.664753   -5.372539   -2.686570
     72          1           0        5.502013   -4.102476   -1.686249
     73          1           0        7.478648   -0.536520   -6.300194
     74          1           0        7.947204   -2.155557   -5.669131
     75          1           0        9.209744   -0.862321   -5.807325
     76          1           0        9.127012    3.461716   -3.075051
     77          1           0        7.065322    7.154019   -3.932858
     78          1           0        6.744024    6.943815   -2.107395
     79          1           0        5.736306    6.271414   -3.402815
     80         12           0       -8.183540   -0.429388   -0.108228
     81          6           0       -5.936357    1.871022    1.484681
     82          6           0      -10.597411    1.963693    0.176375
     83          6           0      -10.294917   -2.582852   -1.094193
     84          6           0       -5.969267   -2.977067    0.758988
     85          7           0       -8.149205    1.613475    0.738997
     86          6           0       -7.223090    2.403623    1.260845
     87          6           0       -7.680702    3.869804    1.485462
     88          6           0       -9.263294    3.615436    1.583364
     89          6           0       -9.357186    2.336935    0.753144
     90          6           0       -9.736846    3.305039    2.993599
     91          6           0       -7.322326    4.800101    0.273808
     92          6           0       -7.460142    6.298762    0.550911
     93          1           0       -6.510209    7.212946   -0.077079
     94          7           0      -10.005115   -0.191809   -0.859220
     95          6           0      -10.837928    0.851192   -0.659578
     96          6           0      -12.062483    0.538064   -1.412296
     97          6           0      -11.948056   -0.849476   -1.937982
     98          6           0      -10.727189   -1.278629   -1.285750
     99          6           0      -13.155940    1.540822   -1.640863
    100          6           0      -12.803561   -1.660793   -2.863236
    101          8           0      -12.641087   -2.925301   -2.995350
    102          6           0      -13.897224   -0.947717   -3.539202
    103          7           0       -8.248115   -2.503307    0.022330
    104          6           0       -9.253745   -3.200137   -0.535402
    105          6           0       -8.947622   -4.678742   -0.555068
    106          6           0       -7.416265   -4.806358   -0.112053
    107          6           0       -7.114515   -3.321306    0.186207
    108          6           0       -9.814413   -5.549694    0.354051
    109          6           0       -6.467589   -5.575003   -1.072191
    110          6           0       -6.294849   -4.798770   -2.357880
    111          7           0       -6.210420   -0.545110    0.764390
    112          6           0       -5.477681   -1.714355    1.064430
    113          6           0       -4.241067   -1.288874    1.751586
    114          6           0       -4.351872    0.107860    1.824745
    115          6           0       -5.580800    0.521881    1.243528
    116          6           0       -3.229013   -2.154239    2.254560
    117          6           0       -3.713550    1.325285    2.270987
    118          8           0       -2.617395    1.604357    2.755044
    119          6           0       -4.769052    2.510496    2.184021
    120          6           0       -4.102078    3.677892    1.509575
    121          8           0       -3.748074    3.602629    0.319776
    122          8           0       -4.188492    4.756793    2.308876
    123          6           0       -3.550632    5.943228    1.678549
    124          1           0      -11.481296    2.553987    0.419660
    125          1           0      -10.937009   -3.359233   -1.516592
    126          1           0       -5.182467   -3.703363    0.973689
    127          1           0       -7.319656    4.323198    2.400811
    128          1           0       -9.822451    4.418840    1.110857
    129          1           0       -8.910947    3.189942    3.679738
    130          1           0      -10.298161    2.382852    2.919116
    131          1           0      -10.448794    4.065046    3.328025
    132          1           0       -8.085602    4.682264   -0.506114
    133          1           0       -6.335424    4.589086   -0.089699
    134          1           0       -7.548737    6.513300    1.622851
    135          1           0       -8.407306    6.643946    0.129315
    136          1           0      -13.036759    2.420018   -0.995721
    137          1           0      -14.089344    1.079117   -1.301091
    138          1           0      -13.260736    1.817481   -2.692129
    139          1           0      -14.557766   -0.510215   -2.794409
    140          1           0      -14.339196   -1.673159   -4.224963
    141          1           0      -13.471626   -0.115081   -4.110340
    142          1           0       -9.059544   -5.083590   -1.553398
    143          1           0       -7.311337   -5.345859    0.840710
    144          1           0      -10.341569   -6.357176   -0.188292
    145          1           0      -10.521711   -4.910639    0.865789
    146          1           0       -9.287259   -6.020455    1.182117
    147          1           0       -6.905785   -6.537538   -1.347266
    148          1           0       -5.490891   -5.776152   -0.644880
    149          1           0       -7.175943   -5.085658   -2.939641
    150          1           0       -5.376289   -5.092207   -2.862064
    151          1           0       -6.356295   -3.719311   -2.177183
    152          1           0       -2.279121   -1.713877    1.982003
    153          1           0       -3.331155   -3.160594    1.853809
    154          1           0       -3.451678   -2.113796    3.324168
    155          1           0       -5.079103    2.748430    3.202264
    156          1           0       -2.801441    6.315711    2.383992
    157          1           0       -4.381180    6.626125    1.418588
    158          1           0       -2.945123    5.776707    0.795315
 ---------------------------------------------------------------------

 SCF Done:  E(RCAM-B3LYP) =  -4069.81157935     A.U. after   19 cycles

 Excitation energies and oscillator strengths:

 Excited State   1:      Singlet-A      1.6733 eV  740.97 nm  f=0.2737  <S**2>=0.000
     309 -> 315        0.15121
     311 -> 313        0.59969
     312 -> 314        0.33349
 This state for optimization and/or second-order correction.
 Total Energy, E(TD-HF/TD-DFT) =  -4069.75008822
 Copying the excited state density for this state as the 1-particle RhoCI density.

 Excited State   2:      Singlet-A      1.6822 eV  737.05 nm  f=0.5067  <S**2>=0.000
     310 -> 316        0.15381
     311 -> 313       -0.33323
     312 -> 314        0.59914

 Excited State   3:      Singlet-A      2.1853 eV  567.34 nm  f=0.0473  <S**2>=0.000
     309 -> 313        0.61759
     310 -> 314       -0.17828
     311 -> 315       -0.26201

 Excited State   4:      Singlet-A      2.1925 eV  565.50 nm  f=0.1446  <S**2>=0.000
     309 -> 313        0.17716
     310 -> 314        0.61563
     312 -> 316       -0.26737

 Excited State   5:      Singlet-A      2.7285 eV  454.40 nm  f=0.0000  <S**2>=0.000
     312 -> 313        0.70684

 The electronic state is 1-A.
 Alpha  occ. eigenvalues --  -46.87598 -46.87528 -19.26280 -19.26016 -19.19074
 Alpha  occ. eigenvalues --  -19.18731 -19.18657 -19.18568 -19.17990 -19.17916
 Alpha  occ. eigenvalues --  -14.42438 -14.42186 -14.41298 -14.41195 -14.39290
 Alpha  occ. eigenvalues --  -14.39137 -14.38535 -14.38321 -10.39009 -10.38796
 Alpha  occ. eigenvalues --  -10.35335 -10.35201 -10.34167 -10.34135 -10.31694
 Alpha  occ. eigenvalues --  -10.31424 -10.31249 -10.31144 -10.30965 -10.30642
 Alpha  occ. eigenvalues --  -10.30335 -10.30308 -10.30297 -10.30251 -10.30082
 Alpha  occ. eigenvalues --  -10.29960 -10.29833 -10.29676 -10.29376 -10.29374
 Alpha  occ. eigenvalues --  -10.29338 -10.28996 -10.28665 -10.28599 -10.28479
 Alpha  occ. eigenvalues --  -10.28343 -10.28257 -10.28100 -10.28090 -10.27938
 Alpha  occ. eigenvalues --  -10.27859 -10.27611 -10.27536 -10.27468 -10.27459
 Alpha  occ. eigenvalues --  -10.27423 -10.27412 -10.27404 -10.27325 -10.27319
 Alpha  occ. eigenvalues --  -10.27285 -10.27237 -10.27216 -10.27142 -10.26990
 Alpha  occ. eigenvalues --  -10.26898 -10.26630 -10.26397 -10.26362 -10.26159
 Alpha  occ. eigenvalues --  -10.26072 -10.26005 -10.25988 -10.25982 -10.25872
 Alpha  occ. eigenvalues --  -10.25781 -10.25770 -10.25614 -10.25350 -10.25245
 Alpha  occ. eigenvalues --  -10.24809 -10.24655 -10.24629 -10.24575 -10.24537
 Alpha  occ. eigenvalues --  -10.24474  -3.16347  -3.16270  -1.91229  -1.91151
 Alpha  occ. eigenvalues --   -1.90818  -1.90739  -1.90655  -1.90581  -1.16571
 Alpha  occ. eigenvalues --   -1.16361  -1.08595  -1.08373  -1.06970  -1.06910
 Alpha  occ. eigenvalues --   -1.06863  -1.06357  -1.04435  -1.04317  -1.03602
 Alpha  occ. eigenvalues --   -1.03505  -1.02977  -1.02974  -1.02153  -1.02050
 Alpha  occ. eigenvalues --   -0.91925  -0.91712  -0.89432  -0.89283  -0.89097
 Alpha  occ. eigenvalues --   -0.88924  -0.88160  -0.88056  -0.87729  -0.87624
 Alpha  occ. eigenvalues --   -0.87620  -0.87413  -0.87062  -0.87015  -0.84943
 Alpha  occ. eigenvalues --   -0.84719  -0.83815  -0.83711  -0.82874  -0.82720
 Alpha  occ. eigenvalues --   -0.82595  -0.82392  -0.81533  -0.81329  -0.80381
 Alpha  occ. eigenvalues --   -0.80339  -0.78575  -0.78541  -0.77086  -0.76971
 Alpha  occ. eigenvalues --   -0.76840  -0.76682  -0.75782  -0.75670  -0.74745
 Alpha  occ. eigenvalues --   -0.74669  -0.72637  -0.72523  -0.71524  -0.71426
 Alpha  occ. eigenvalues --   -0.69694  -0.69685  -0.68770  -0.68615  -0.67541
 Alpha  occ. eigenvalues --   -0.67387  -0.67141  -0.66948  -0.65213  -0.65022
 Alpha  occ. eigenvalues --   -0.64709  -0.64599  -0.64593  -0.64368  -0.64142
 Alpha  occ. eigenvalues --   -0.64031  -0.62214  -0.62040  -0.60281  -0.60191
 Alpha  occ. eigenvalues --   -0.59740  -0.59542  -0.58932  -0.58736  -0.58364
 Alpha  occ. eigenvalues --   -0.58251  -0.57488  -0.57323  -0.57175  -0.57062
 Alpha  occ. eigenvalues --   -0.56143  -0.56057  -0.55824  -0.55716  -0.55392
 Alpha  occ. eigenvalues --   -0.55269  -0.55185  -0.55103  -0.54423  -0.54279
 Alpha  occ. eigenvalues --   -0.53857  -0.53629  -0.53167  -0.53082  -0.53049
 Alpha  occ. eigenvalues --   -0.52962  -0.52837  -0.52656  -0.52613  -0.52498
 Alpha  occ. eigenvalues --   -0.52335  -0.52215  -0.51817  -0.51672  -0.51601
 Alpha  occ. eigenvalues --   -0.51350  -0.51139  -0.50946  -0.50419  -0.50316
 Alpha  occ. eigenvalues --   -0.49924  -0.49809  -0.49803  -0.49665  -0.49430
 Alpha  occ. eigenvalues --   -0.49258  -0.49142  -0.49049  -0.48959  -0.48845
 Alpha  occ. eigenvalues --   -0.48497  -0.48343  -0.48317  -0.48281  -0.48227
 Alpha  occ. eigenvalues --   -0.48194  -0.47536  -0.47444  -0.47060  -0.47050
 Alpha  occ. eigenvalues --   -0.46648  -0.46550  -0.46497  -0.46291  -0.46209
 Alpha  occ. eigenvalues --   -0.46108  -0.46023  -0.45917  -0.45759  -0.45573
 Alpha  occ. eigenvalues --   -0.45151  -0.44973  -0.44454  -0.44418  -0.44326
 Alpha  occ. eigenvalues --   -0.44257  -0.44071  -0.44016  -0.43901  -0.43881
 Alpha  occ. eigenvalues --   -0.43837  -0.43765  -0.43490  -0.43327  -0.43242
 Alpha  occ. eigenvalues --   -0.43134  -0.42866  -0.42837  -0.42778  -0.42492
 Alpha  occ. eigenvalues --   -0.42453  -0.42408  -0.41902  -0.41767  -0.41609
 Alpha  occ. eigenvalues --   -0.41452  -0.41400  -0.41274  -0.40934  -0.40894
 Alpha  occ. eigenvalues --   -0.40665  -0.40641  -0.40618  -0.40569  -0.40434
 Alpha  occ. eigenvalues --   -0.40337  -0.40170  -0.39951  -0.39361  -0.39220
 Alpha  occ. eigenvalues --   -0.38292  -0.38235  -0.37595  -0.37476  -0.37205
 Alpha  occ. eigenvalues --   -0.37140  -0.37080  -0.36994  -0.36699  -0.36451
 Alpha  occ. eigenvalues --   -0.36153  -0.35937  -0.34191  -0.34027  -0.33778
 Alpha  occ. eigenvalues --   -0.33485  -0.33112  -0.32926  -0.31216  -0.31098
 Alpha  occ. eigenvalues --   -0.30912  -0.30779  -0.29894  -0.29775  -0.29266
 Alpha  occ. eigenvalues --   -0.29188  -0.29148  -0.29062  -0.23974  -0.23820
 Alpha  occ. eigenvalues --   -0.21056  -0.20870
 Alpha virt. eigenvalues --   -0.08731  -0.08515  -0.01623  -0.01493   0.00030
 Alpha virt. eigenvalues --    0.00200   0.02270   0.02453   0.03308   0.03464
 Alpha virt. eigenvalues --    0.04788   0.04979   0.05242   0.05377   0.06240

 Mulliken charges:
               1
     1  Mg   0.840236
     2  C   -0.002385
     3  C   -0.093602
     4  C   -0.046023
     5  C   -0.064217
     6  N   -0.256723
     7  C   -0.052196
     8  C   -0.014221
     9  C   -0.087111
    10  C    0.046698
    11  C    0.104930
    12  C    0.053314
    13  C   -0.071605
    14  H    0.036115
    15  N   -0.433043
    16  C    0.168929
    17  C   -0.176798
    18  C   -0.003887
    19  C    0.149000
    20  C    0.110226
    21  C    0.012545
    22  O   -0.250231
    23  C    0.062222
    24  N   -0.341166
    25  C    0.041261
    26  C   -0.028045
    27  C   -0.023889
    28  C    0.074929
    29  C    0.076363
    30  C    0.035238
    31  C   -0.004454
    32  N   -0.310462
    33  C    0.080596
    34  C   -0.169767
    35  C    0.008244
    36  C    0.083382
    37  C    0.127290
    38  C    0.046306
    39  O   -0.188839
    40  C   -0.005486
    41  C    0.212573
    42  O   -0.255765
    43  O   -0.305165
    44  C    0.157748
    45  H   -0.017943
    46  H   -0.017320
    47  H   -0.041972
    48  H    0.000457
    49  H   -0.003927
    50  H    0.025189
    51  H    0.016191
    52  H    0.016222
    53  H    0.012428
    54  H    0.045108
    55  H    0.017058
    56  H    0.017924
    57  H    0.005772
    58  H    0.026184
    59  H    0.040472
    60  H    0.036936
    61  H    0.035114
    62  H    0.032667
    63  H    0.016272
    64  H    0.009013
    65  H    0.022722
    66  H    0.012446
    67  H    0.004359
    68  H    0.005681
    69  H    0.004478
    70  H    0.008396
    71  H    0.017762
    72  H    0.030020
    73  H    0.047582
    74  H    0.008804
    75  H    0.045507
    76  H    0.034625
    77  H    0.042239
    78  H    0.046223
    79  H    0.054248
    80  Mg   0.838137
    81  C   -0.016671
    82  C   -0.087831
    83  C   -0.045498
    84  C   -0.064893
    85  N   -0.254546
    86  C   -0.049826
    87  C   -0.015112
    88  C   -0.090512
    89  C    0.045791
    90  C    0.114446
    91  C    0.062507
    92  C   -0.077876
    93  H    0.035110
    94  N   -0.423448
    95  C    0.162945
    96  C   -0.174699
    97  C   -0.007833
    98  C    0.152112
    99  C    0.099418
   100  C    0.015584
   101  O   -0.253258
   102  C    0.061189
   103  N   -0.350092
   104  C    0.037479
   105  C   -0.019796
   106  C   -0.034846
   107  C    0.088999
   108  C    0.073725
   109  C    0.034727
   110  C   -0.007687
   111  N   -0.324153
   112  C    0.078602
   113  C   -0.162738
   114  C    0.002238
   115  C    0.096477
   116  C    0.131309
   117  C    0.042836
   118  O   -0.188079
   119  C    0.000768
   120  C    0.211176
   121  O   -0.249962
   122  O   -0.306039
   123  C    0.151937
   124  H   -0.019844
   125  H   -0.015658
   126  H   -0.040355
   127  H   -0.000905
   128  H   -0.004366
   129  H    0.022240
   130  H    0.014365
   131  H    0.016074
   132  H    0.014051
   133  H    0.038113
   134  H    0.020430
   135  H    0.019512
   136  H    0.008661
   137  H    0.025970
   138  H    0.039822
   139  H    0.038132
   140  H    0.036330
   141  H    0.033995
   142  H    0.014428
   143  H    0.012297
   144  H    0.025050
   145  H    0.011511
   146  H    0.005550
   147  H    0.006103
   148  H    0.003748
   149  H    0.010841
   150  H    0.018149
   151  H    0.030343
   152  H    0.046566
   153  H    0.008766
   154  H    0.046457
   155  H    0.034499
   156  H    0.043176
   157  H    0.049292
   158  H    0.054537
 Sum of Mulliken charges =  -0.00000

 Dipole moment (field-independent basis, Debye):
    X=             -2.1449    Y=              2.5205    Z=              4.7114  Tot=              5.7577
 Quadrupole moment (field-independent basis, Debye-Ang):
   XX=           -436.6420   YY=           -467.9619   ZZ=           -522.1269
   XY=            -30.3027   XZ=             18.0519   YZ=             29.8648

 Normal termination of Gaussian 16 at Sun Sep 12 01:16:53 2021.
