 Gaussian 16, Revision A.03,
 Gaussian 16:  ES64L-G16RevA.03 25-Dec-2016

 -----------------------------------
 #p cam-b3lyp/Def2SVP td=(nstates=5)
 -----------------------------------

 --------------------------------
 TDDFT excited states in gaussian
 --------------------------------
 Symbolic Z-matrix:
 Charge =  0 Multiplicity = 1

                         Standard orientation:
 ---------------------------------------------------------------------
 Center     Atomic      Atomic             Coordinates (Angstroms)
 Number     Number       Type             X           Y           Z
 ---------------------------------------------------------------------
      1         12           0      -15.793816   -0.760003   -0.060978
      2          6           0      -16.002951    2.702528    0.821832
      3          6           0      -16.640939    0.152146   -3.237994
      4          6           0      -16.060050   -3.842064   -0.758576
      5          6           0      -16.084958   -1.491187    3.334057
      6          7           0      -16.238424    1.209074   -0.969662
      7          6           0      -16.225493    2.465807   -0.536506
      8          6           0      -16.395885    3.514003   -1.676518
      9          6           0      -17.139699    2.599606   -2.750119
     10          6           0      -16.615412    1.241698   -2.317529
     11          6           0      -18.658451    2.607357   -2.609294
     12          6           0      -15.021124    4.031356   -2.218836
     13          6           0      -15.094606    5.284355   -3.096303
     14          1           0      -14.019321    6.261225   -3.013626
     15          7           0      -15.798681   -1.682408   -1.807974
     16          6           0      -16.157411   -1.153039   -3.002281
     17          6           0      -15.989448   -2.236012   -3.995074
     18          6           0      -15.685896   -3.490879   -3.252606
     19          6           0      -15.864227   -3.055181   -1.891084
     20          6           0      -16.070912   -2.015933   -5.474493
     21          6           0      -15.307069   -4.867373   -3.699694
     22          8           0      -15.314950   -5.867465   -2.903247
     23          6           0      -15.007985   -5.033311   -5.133589
     24          7           0      -16.257600   -2.440835    1.086777
     25          6           0      -16.247907   -3.666343    0.551034
     26          6           0      -16.329060   -4.725759    1.609803
     27          6           0      -16.150971   -3.970551    3.005402
     28          6           0      -16.075924   -2.516135    2.478798
     29          6           0      -17.625060   -5.547770    1.636097
     30          6           0      -15.022911   -4.475907    3.939487
     31          6           0      -13.674528   -4.187093    3.318561
     32          7           0      -15.829512    0.375386    1.788525
     33          6           0      -15.981663   -0.132481    3.086830
     34          6           0      -16.053476    1.024756    3.997716
     35          6           0      -15.954111    2.132999    3.158807
     36          6           0      -15.854600    1.696266    1.806900
     37          6           0      -16.251142    0.966186    5.405527
     38          6           0      -15.933633    3.585030    3.087776
     39          8           0      -15.891247    4.493366    3.918813
     40          6           0      -16.087041    4.014265    1.561981
     41          6           0      -15.037118    5.052597    1.274166
     42          8           0      -13.824806    4.756715    1.285190
     43          8           0      -15.626468    6.161709    0.801855
     44          6           0      -14.637776    7.221605    0.468293
     45          1           0      -17.127199    0.290010   -4.205716
     46          1           0      -16.046698   -4.918178   -0.943613
     47          1           0      -16.090739   -1.643490    4.414901
     48          1           0      -17.021346    4.368721   -1.418294
     49          1           0      -16.818726    2.823242   -3.767314
     50          1           0      -18.972593    3.139338   -1.711390
     51          1           0      -18.950836    1.558660   -2.552372
     52          1           0      -19.129031    3.001126   -3.510559
     53          1           0      -14.630166    3.318871   -2.945183
     54          1           0      -14.323878    4.205964   -1.398661
     55          1           0      -16.064271    5.775405   -3.009527
     56          1           0      -15.040469    4.974163   -4.139878
     57          1           0      -16.469343   -1.030202   -5.711415
     58          1           0      -16.817639   -2.710353   -5.859057
     59          1           0      -15.115546   -2.192535   -5.968880
     60          1           0      -15.879211   -4.739296   -5.719310
     61          1           0      -14.670388   -6.062175   -5.253245
     62          1           0      -14.207311   -4.346306   -5.409080
     63          1           0      -15.529296   -5.456143    1.494287
     64          1           0      -17.050185   -4.028032    3.619230
     65          1           0      -17.464304   -6.621898    1.540642
     66          1           0      -18.275008   -5.177680    0.843701
     67          1           0      -18.247222   -5.392187    2.517077
     68          1           0      -15.092223   -5.555550    4.067993
     69          1           0      -15.048585   -4.021682    4.930078
     70          1           0      -13.532052   -5.029853    2.643071
     71          1           0      -12.899357   -4.165913    4.085290
     72          1           0      -13.701872   -3.282872    2.710183
     73          1           0      -15.556222    1.683966    5.841242
     74          1           0      -16.074778   -0.038649    5.788679
     75          1           0      -17.297875    1.261798    5.474939
     76          1           0      -17.095901    4.409491    1.447445
     77          1           0      -14.922576    8.113422    1.026671
     78          1           0      -14.613789    7.291782   -0.619321
     79          1           0      -13.622150    7.065630    0.833688
     80         12           0       15.962852   -0.768740    0.209485
     81          6           0       15.761950    2.783392   -0.260666
     82          6           0       15.114376   -1.101440   -3.077464
     83          6           0       15.690434   -3.891880    0.698587
     84          6           0       15.665772   -0.192528    3.633729
     85          7           0       15.521259    0.722796   -1.362960
     86          6           0       15.536250    2.044923   -1.440989
     87          6           0       15.375460    2.606213   -2.879272
     88          6           0       14.621102    1.353640   -3.543275
     89          6           0       15.140412    0.244044   -2.631256
     90          6           0       13.109280    1.418447   -3.403460
     91          6           0       16.756515    2.878403   -3.572534
     92          6           0       16.679854    3.712150   -4.853441
     93          1           0       17.764294    4.646731   -5.141562
     94          7           0       15.957538   -2.275314   -1.082332
     95          6           0       15.606138   -2.229418   -2.384521
     96          6           0       15.754794   -3.602930   -2.889999
     97          6           0       16.064249   -4.495141   -1.739814
     98          6           0       15.891776   -3.571898   -0.636190
     99          6           0       15.681723   -3.945138   -4.349790
    100          6           0       16.439234   -5.943261   -1.647506
    101          8           0       16.430155   -6.571265   -0.530203
    102          6           0       16.726931   -6.628130   -2.916231
    103          7           0       15.502420   -1.897262    1.893766
    104          6           0       15.502666   -3.241024    1.846823
    105          6           0       15.415979   -3.835261    3.232378
    106          6           0       15.601966   -2.606699    4.239161
    107          6           0       15.678175   -1.451268    3.217110
    108          6           0       14.116513   -4.569974    3.561001
    109          6           0       16.729719   -2.730678    5.300048
    110          6           0       18.080744   -2.708575    4.622096
    111          7           0       15.936665    0.965003    1.498466
    112          6           0       15.776730    0.982529    2.901399
    113          6           0       15.709357    2.399372    3.314233
    114          6           0       15.812491    3.113171    2.110763
    115          6           0       15.915153    2.204978    1.022578
    116          6           0       15.522722    2.870267    4.644477
    117          6           0       15.847168    4.428299    1.512476
    118          8           0       15.885708    5.579110    1.945950
    119          6           0       15.688775    4.271850   -0.061316
    120          6           0       16.741853    5.119660   -0.720687
    121          8           0       17.947863    4.847278   -0.586625
    122          8           0       16.148655    5.975863   -1.572389
    123          6           0       17.153182    6.831009   -2.259035
    124          1           0       14.634104   -1.322607   -4.031044
    125          1           0       15.699995   -4.958553    0.934368
    126          1           0       15.672153    0.071752    4.693347
    127          1           0       14.758927    3.493933   -2.954180
    128          1           0       14.950089    1.191493   -4.566424
    129          1           0       12.797613    2.239607   -2.775221
    130          1           0       12.813574    0.473910   -2.965899
    131          1           0       12.640515    1.452971   -4.391079
    132          1           0       17.142332    1.936836   -3.984033
    133          1           0       17.444344    3.332818   -2.886219
    134          1           0       15.706952    4.205774   -4.966341
    135          1           0       16.739089    3.037307   -5.710813
    136          1           0       15.279035   -3.111767   -4.938630
    137          1           0       14.933857   -4.738519   -4.455184
    138          1           0       16.634285   -4.302366   -4.746873
    139          1           0       15.857727   -6.563902   -3.566481
    140          1           0       17.062001   -7.629344   -2.638425
    141          1           0       17.539762   -6.097023   -3.424015
    142          1           0       16.213738   -4.548950    3.397690
    143          1           0       14.698505   -2.433723    4.842218
    144          1           0       14.275470   -5.619211    3.873898
    145          1           0       13.470584   -4.525342    2.694216
    146          1           0       13.503703   -4.102886    4.330087
    147          1           0       16.658232   -3.690039    5.818400
    148          1           0       16.698995   -1.953124    6.055987
    149          1           0       18.214661   -3.747073    4.304820
    150          1           0       18.856286   -2.406939    5.323237
    151          1           0       18.057601   -2.088243    3.718603
    152          1           0       16.213001    3.691627    4.783726
    153          1           0       15.691464    2.080220    5.373250
    154          1           0       14.472252    3.169914    4.599716
    155          1           0       14.680349    4.594773   -0.322786
    156          1           0       16.868088    7.871071   -2.072790
    157          1           0       17.163815    6.492472   -3.312134
    158          1           0       18.167289    6.818053   -1.877118
 ---------------------------------------------------------------------

 SCF Done:  E(RCAM-B3LYP) =  -4069.81176184     A.U. after   19 cycles

 Excitation energies and oscillator strengths:

 Excited State   1:      Singlet-A      1.6753 eV  740.05 nm  f=0.2356  <S**2>=0.000
     310 -> 316        0.16917
     311 -> 314       -0.15316
     312 -> 313        0.66874
     310 <- 316        0.10198
 This state for optimization and/or second-order correction.
 Total Energy, E(TD-HF/TD-DFT) =  -4069.75019424
 Copying the excited state density for this state as the 1-particle RhoCI density.

 Excited State   2:      Singlet-A      1.6801 eV  737.97 nm  f=0.5415  <S**2>=0.000
     309 -> 315        0.17116
     311 -> 314        0.66837
     312 -> 313        0.15312
     309 <- 315        0.10248

 Excited State   3:      Singlet-A      2.1861 eV  567.15 nm  f=0.0963  <S**2>=0.000
     310 -> 313        0.64217
     312 -> 316       -0.27298

 Excited State   4:      Singlet-A      2.1925 eV  565.49 nm  f=0.1040  <S**2>=0.000
     309 -> 314        0.64039
     311 -> 315       -0.27815

 Excited State   5:      Singlet-A      3.0658 eV  404.42 nm  f=0.0000  <S**2>=0.000
     311 -> 313        0.70711

 The electronic state is 1-A.
 Alpha  occ. eigenvalues --  -46.87796 -46.87660 -19.26350 -19.26280 -19.19161
 Alpha  occ. eigenvalues --  -19.19017 -19.18816 -19.18715 -19.18167 -19.18051
 Alpha  occ. eigenvalues --  -14.42498 -14.42449 -14.41449 -14.41359 -14.39402
 Alpha  occ. eigenvalues --  -14.39352 -14.38600 -14.38586 -10.39091 -10.39076
 Alpha  occ. eigenvalues --  -10.35450 -10.35392 -10.34387 -10.34228 -10.31757
 Alpha  occ. eigenvalues --  -10.31674 -10.31404 -10.31309 -10.31024 -10.30908
 Alpha  occ. eigenvalues --  -10.30569 -10.30507 -10.30398 -10.30361 -10.30207
 Alpha  occ. eigenvalues --  -10.30141 -10.29920 -10.29894 -10.29630 -10.29437
 Alpha  occ. eigenvalues --  -10.29401 -10.29254 -10.28748 -10.28720 -10.28657
 Alpha  occ. eigenvalues --  -10.28537 -10.28405 -10.28364 -10.28141 -10.28115
 Alpha  occ. eigenvalues --  -10.28001 -10.27792 -10.27727 -10.27670 -10.27584
 Alpha  occ. eigenvalues --  -10.27516 -10.27500 -10.27484 -10.27483 -10.27469
 Alpha  occ. eigenvalues --  -10.27465 -10.27449 -10.27403 -10.27374 -10.27156
 Alpha  occ. eigenvalues --  -10.27050 -10.26703 -10.26695 -10.26416 -10.26413
 Alpha  occ. eigenvalues --  -10.26233 -10.26183 -10.26136 -10.26025 -10.26019
 Alpha  occ. eigenvalues --  -10.25934 -10.25849 -10.25841 -10.25435 -10.25395
 Alpha  occ. eigenvalues --  -10.24873 -10.24832 -10.24787 -10.24730 -10.24690
 Alpha  occ. eigenvalues --  -10.24687  -3.16539  -3.16410  -1.91420  -1.91293
 Alpha  occ. eigenvalues --   -1.91007  -1.90881  -1.90849  -1.90718  -1.16644
 Alpha  occ. eigenvalues --   -1.16629  -1.08657  -1.08625  -1.07218  -1.06967
 Alpha  occ. eigenvalues --   -1.06946  -1.06639  -1.04580  -1.04495  -1.03760
 Alpha  occ. eigenvalues --   -1.03663  -1.03233  -1.03039  -1.02410  -1.02111
 Alpha  occ. eigenvalues --   -0.91987  -0.91971  -0.89519  -0.89494  -0.89187
 Alpha  occ. eigenvalues --   -0.89152  -0.88286  -0.88219  -0.87869  -0.87793
 Alpha  occ. eigenvalues --   -0.87684  -0.87672  -0.87274  -0.87121  -0.85000
 Alpha  occ. eigenvalues --   -0.84981  -0.83936  -0.83875  -0.82968  -0.82932
 Alpha  occ. eigenvalues --   -0.82653  -0.82648  -0.81597  -0.81584  -0.80595
 Alpha  occ. eigenvalues --   -0.80443  -0.78797  -0.78636  -0.77218  -0.77145
 Alpha  occ. eigenvalues --   -0.76933  -0.76899  -0.75922  -0.75839  -0.74897
 Alpha  occ. eigenvalues --   -0.74802  -0.72773  -0.72699  -0.71671  -0.71581
 Alpha  occ. eigenvalues --   -0.69907  -0.69757  -0.68872  -0.68828  -0.67640
 Alpha  occ. eigenvalues --   -0.67602  -0.67219  -0.67201  -0.65285  -0.65272
 Alpha  occ. eigenvalues --   -0.64852  -0.64770  -0.64654  -0.64619  -0.64269
 Alpha  occ. eigenvalues --   -0.64203  -0.62295  -0.62279  -0.60442  -0.60340
 Alpha  occ. eigenvalues --   -0.59803  -0.59797  -0.58993  -0.58986  -0.58503
 Alpha  occ. eigenvalues --   -0.58425  -0.57582  -0.57554  -0.57308  -0.57236
 Alpha  occ. eigenvalues --   -0.56309  -0.56204  -0.55976  -0.55887  -0.55520
 Alpha  occ. eigenvalues --   -0.55453  -0.55338  -0.55247  -0.54522  -0.54487
 Alpha  occ. eigenvalues --   -0.53913  -0.53894  -0.53298  -0.53228  -0.53221
 Alpha  occ. eigenvalues --   -0.53142  -0.52913  -0.52903  -0.52756  -0.52669
 Alpha  occ. eigenvalues --   -0.52438  -0.52400  -0.51913  -0.51884  -0.51660
 Alpha  occ. eigenvalues --   -0.51616  -0.51201  -0.51194  -0.50574  -0.50476
 Alpha  occ. eigenvalues --   -0.50031  -0.49980  -0.49919  -0.49867  -0.49514
 Alpha  occ. eigenvalues --   -0.49488  -0.49214  -0.49203  -0.49105  -0.49095
 Alpha  occ. eigenvalues --   -0.48591  -0.48559  -0.48461  -0.48445  -0.48375
 Alpha  occ. eigenvalues --   -0.48339  -0.47694  -0.47595  -0.47296  -0.47118
 Alpha  occ. eigenvalues --   -0.46796  -0.46709  -0.46555  -0.46554  -0.46358
 Alpha  occ. eigenvalues --   -0.46270  -0.46161  -0.46085  -0.45822  -0.45820
 Alpha  occ. eigenvalues --   -0.45208  -0.45201  -0.44576  -0.44514  -0.44507
 Alpha  occ. eigenvalues --   -0.44477  -0.44144  -0.44128  -0.44087  -0.44078
 Alpha  occ. eigenvalues --   -0.44018  -0.43940  -0.43553  -0.43493  -0.43386
 Alpha  occ. eigenvalues --   -0.43385  -0.43026  -0.42931  -0.42901  -0.42697
 Alpha  occ. eigenvalues --   -0.42653  -0.42553  -0.42008  -0.41964  -0.41703
 Alpha  occ. eigenvalues --   -0.41669  -0.41533  -0.41459  -0.41140  -0.40990
 Alpha  occ. eigenvalues --   -0.40868  -0.40824  -0.40723  -0.40699  -0.40571
 Alpha  occ. eigenvalues --   -0.40493  -0.40233  -0.40228  -0.39440  -0.39425
 Alpha  occ. eigenvalues --   -0.38468  -0.38350  -0.37747  -0.37655  -0.37320
 Alpha  occ. eigenvalues --   -0.37266  -0.37262  -0.37200  -0.36771  -0.36711
 Alpha  occ. eigenvalues --   -0.36217  -0.36191  -0.34285  -0.34253  -0.33862
 Alpha  occ. eigenvalues --   -0.33767  -0.33185  -0.33176  -0.31346  -0.31274
 Alpha  occ. eigenvalues --   -0.31035  -0.30973  -0.30027  -0.29955  -0.29449
 Alpha  occ. eigenvalues --   -0.29327  -0.29321  -0.29211  -0.24080  -0.24036
 Alpha  occ. eigenvalues --   -0.21127  -0.21117
 Alpha virt. eigenvalues --   -0.08792  -0.08774  -0.01749  -0.01684  -0.00058
 Alpha virt. eigenvalues --   -0.00029   0.02201   0.02207   0.03121   0.03226
 Alpha virt. eigenvalues --    0.04719   0.04729   0.05101   0.05165   0.06178

 Mulliken charges:
               1
     1  Mg   0.838676
     2  C   -0.002944
     3  C   -0.094118
     4  C   -0.045860
     5  C   -0.063954
     6  N   -0.256753
     7  C   -0.052474
     8  C   -0.014015
     9  C   -0.086991
    10  C    0.046296
    11  C    0.104813
    12  C    0.053476
    13  C   -0.071816
    14  H    0.036153
    15  N   -0.433114
    16  C    0.168405
    17  C   -0.177161
    18  C   -0.004012
    19  C    0.148699
    20  C    0.110182
    21  C    0.012268
    22  O   -0.249638
    23  C    0.062486
    24  N   -0.341126
    25  C    0.041228
    26  C   -0.028153
    27  C   -0.023992
    28  C    0.074851
    29  C    0.076166
    30  C    0.035131
    31  C   -0.004503
    32  N   -0.310470
    33  C    0.080416
    34  C   -0.169703
    35  C    0.008371
    36  C    0.082990
    37  C    0.127309
    38  C    0.046135
    39  O   -0.188398
    40  C   -0.005351
    41  C    0.212896
    42  O   -0.257099
    43  O   -0.304801
    44  C    0.157677
    45  H   -0.017612
    46  H   -0.016851
    47  H   -0.041481
    48  H    0.000950
    49  H   -0.004041
    50  H    0.025483
    51  H    0.016444
    52  H    0.016655
    53  H    0.011189
    54  H    0.044131
    55  H    0.017881
    56  H    0.017935
    57  H    0.005872
    58  H    0.026812
    59  H    0.039519
    60  H    0.037345
    61  H    0.035621
    62  H    0.031479
    63  H    0.016540
    64  H    0.009468
    65  H    0.023202
    66  H    0.012545
    67  H    0.004759
    68  H    0.006361
    69  H    0.004744
    70  H    0.008764
    71  H    0.018154
    72  H    0.028985
    73  H    0.047596
    74  H    0.009117
    75  H    0.046019
    76  H    0.035160
    77  H    0.042974
    78  H    0.046395
    79  H    0.053710
    80  Mg   0.837817
    81  C   -0.016814
    82  C   -0.087808
    83  C   -0.045471
    84  C   -0.064831
    85  N   -0.254564
    86  C   -0.049815
    87  C   -0.015096
    88  C   -0.090507
    89  C    0.045770
    90  C    0.114373
    91  C    0.062517
    92  C   -0.077881
    93  H    0.034888
    94  N   -0.423483
    95  C    0.162934
    96  C   -0.174623
    97  C   -0.007797
    98  C    0.152083
    99  C    0.099369
   100  C    0.015575
   101  O   -0.253172
   102  C    0.061196
   103  N   -0.350033
   104  C    0.037518
   105  C   -0.019857
   106  C   -0.034801
   107  C    0.088886
   108  C    0.073637
   109  C    0.034724
   110  C   -0.007677
   111  N   -0.324132
   112  C    0.078444
   113  C   -0.163112
   114  C    0.002265
   115  C    0.096201
   116  C    0.131485
   117  C    0.042406
   118  O   -0.187846
   119  C    0.000893
   120  C    0.211275
   121  O   -0.251040
   122  O   -0.305624
   123  C    0.152030
   124  H   -0.019663
   125  H   -0.015557
   126  H   -0.040416
   127  H   -0.000636
   128  H   -0.004346
   129  H    0.022492
   130  H    0.014455
   131  H    0.016269
   132  H    0.013911
   133  H    0.037677
   134  H    0.020788
   135  H    0.019576
   136  H    0.008748
   137  H    0.026150
   138  H    0.039783
   139  H    0.038253
   140  H    0.036402
   141  H    0.033887
   142  H    0.014398
   143  H    0.012472
   144  H    0.025153
   145  H    0.011657
   146  H    0.005732
   147  H    0.006286
   148  H    0.003673
   149  H    0.010929
   150  H    0.017938
   151  H    0.030087
   152  H    0.046014
   153  H    0.008530
   154  H    0.047013
   155  H    0.035060
   156  H    0.043927
   157  H    0.049479
   158  H    0.053577
 Sum of Mulliken charges =  -0.00000

 Dipole moment (field-independent basis, Debye):
    X=             -3.9338    Y=             -2.3852    Z=             -7.6831  Tot=              8.9551
 Quadrupole moment (field-independent basis, Debye-Ang):
   XX=           -516.3599   YY=           -548.0234   ZZ=           -450.8588
   XY=            -26.6222   XZ=              8.0259   YZ=            -45.0762

 Normal termination of Gaussian 16 at Sun Sep 12 19:19:14 2021.
