 Gaussian 16, Revision A.03,
 Gaussian 16:  ES64L-G16RevA.03 25-Dec-2016

 -----------------------------------
 #p cam-b3lyp/Def2SVP td=(nstates=5)
 -----------------------------------

 --------------------------------
 TDDFT excited states in gaussian
 --------------------------------
 Symbolic Z-matrix:
 Charge =  0 Multiplicity = 1

                         Standard orientation:
 ---------------------------------------------------------------------
 Center     Atomic      Atomic             Coordinates (Angstroms)
 Number     Number       Type             X           Y           Z
 ---------------------------------------------------------------------
      1         12           0        4.807748    1.307717    0.696985
      2          6           0        5.556352   -2.098442   -0.109170
      3          6           0        5.907076    2.132661   -2.426156
      4          6           0        4.584095    4.356147    1.541778
      5          6           0        4.852428    0.368759    4.052879
      6          7           0        5.604722    0.083018   -0.966022
      7          6           0        5.784859   -1.218296   -1.169251
      8          6           0        6.167184   -1.566995   -2.638813
      9          6           0        6.786927   -0.164930   -3.077139
     10          6           0        6.029713    0.743710   -2.124814
     11          6           0        8.279953   -0.042338   -2.790178
     12          6           0        4.917423   -1.937277   -3.506409
     13          6           0        5.228831   -2.601493   -4.850728
     14          1           0        4.328100   -3.629974   -5.348985
     15          7           0        4.721923    2.941202   -0.410810
     16          6           0        5.205790    3.094216   -1.666893
     17          6           0        4.896134    4.486802   -2.056120
     18          6           0        4.362491    5.187055   -0.854885
     19          6           0        4.561923    4.184006    0.159757
     20          6           0        5.065644    5.008651   -3.449925
     21          6           0        3.776913    6.548606   -0.651392
     22          8           0        3.590502    7.041701    0.513375
     23          6           0        3.505774    7.335639   -1.867987
     24          7           0        4.945271    2.285323    2.536280
     25          6           0        4.751671    3.605275    2.632354
     26          6           0        4.618285    4.034842    4.063304
     27          6           0        4.518207    2.691450    4.920646
     28          6           0        4.704114    1.666034    3.775120
     29          6           0        5.758320    4.905282    4.609806
     30          6           0        3.289407    2.541760    5.852345
     31          6           0        2.030562    2.411152    5.024487
     32          7           0        4.965198   -0.554608    1.800615
     33          6           0        4.984671   -0.709735    3.194255
     34          6           0        5.214800   -2.140470    3.466481
     35          6           0        5.330493   -2.719345    2.204196
     36          6           0        5.208225   -1.709778    1.207142
     37          6           0        5.349703   -2.732805    4.753095
     38          6           0        5.553542   -3.952078    1.466311
     39          8           0        5.632713   -5.142991    1.771191
     40          6           0        5.830279   -3.580948   -0.057338
     41          6           0        4.977940   -4.483625   -0.907044
     42          8           0        3.733743   -4.387978   -0.893272
     43          8           0        5.759450   -5.148438   -1.771804
     44          6           0        4.972661   -6.040239   -2.665006
     45          1           0        6.443650    2.535266   -3.287515
     46          1           0        4.399150    5.378973    1.876530
     47          1           0        4.794344   -0.011443    5.074410
     48          1           0        6.916066   -2.352799   -2.739374
     49          1           0        6.543939    0.082217   -4.110385
     50          1           0        8.645719   -0.891376   -2.212881
     51          1           0        8.392236    0.881174   -2.221837
     52          1           0        8.841125    0.103928   -3.713471
     53          1           0        4.439917   -1.022564   -3.857620
     54          1           0        4.229977   -2.569016   -2.942805
     55          1           0        6.262761   -2.944832   -4.895636
     56          1           0        5.161264   -1.842694   -5.630381
     57          1           0        5.630154    4.314725   -4.071487
     58          1           0        5.700158    5.892263   -3.384110
     59          1           0        4.112463    5.273801   -3.907606
     60          1           0        4.434005    7.470584   -2.423619
     61          1           0        3.006780    8.244379   -1.533255
     62          1           0        2.840397    6.765104   -2.516612
     63          1           0        3.713147    4.622103    4.212556
     64          1           0        5.372987    2.566041    5.585700
     65          1           0        5.425240    5.864773    5.006216
     66          1           0        6.488456    5.043612    3.812901
     67          1           0        6.365855    4.431700    5.380545
     68          1           0        3.174165    3.429373    6.473479
     69          1           0        3.354689    1.679090    6.515512
     70          1           0        1.774529    3.447201    4.805668
     71          1           0        1.242791    1.928278    5.603678
     72          1           0        2.229089    1.916702    4.073387
     73          1           0        4.768295   -3.654357    4.727109
     74          1           0        4.995665   -2.063031    5.536461
     75          1           0        6.427809   -2.887828    4.791990
     76          1           0        6.894130   -3.740173   -0.230512
     77          1           0        5.381264   -7.044955   -2.556270
     78          1           0        4.999431   -5.587690   -3.656413
     79          1           0        3.932858   -6.209313   -2.382938
     80         12           0       -5.624532   -0.102988   -0.392139
     81          6           0       -3.226019   -2.765113   -0.193826
     82          6           0       -3.310909    1.647278   -2.186116
     83          6           0       -7.534197    2.423734   -0.201696
     84          6           0       -7.258520   -1.559703    2.319637
     85          7           0       -3.570037   -0.601594   -1.042293
     86          6           0       -2.786531   -1.666459   -0.961452
     87          6           0       -1.492043   -1.578719   -1.813614
     88          6           0       -1.371703    0.020083   -1.904220
     89          6           0       -2.845014    0.386000   -1.736439
     90          6           0       -0.593431    0.631343   -0.750970
     91          6           0       -1.666426   -2.223020   -3.233639
     92          6           0       -0.362301   -2.449731   -4.001507
     93          1           0       -0.252631   -3.630481   -4.853726
     94          7           0       -5.668632    1.558156   -1.477145
     95          6           0       -4.643772    2.113113   -2.157559
     96          6           0       -5.184448    3.334749   -2.773525
     97          6           0       -6.568032    3.542923   -2.266498
     98          6           0       -6.637942    2.505102   -1.257469
     99          6           0       -4.432703    4.128713   -3.802082
    100          6           0       -7.644911    4.523130   -2.621053
    101          8           0       -8.685033    4.675243   -1.887676
    102          6           0       -7.401862    5.365688   -3.801099
    103          7           0       -7.049892    0.485191    1.002395
    104          6           0       -7.776509    1.601656    0.819470
    105          6           0       -8.921250    1.674495    1.801644
    106          6           0       -8.955926    0.249847    2.527428
    107          6           0       -7.715047   -0.397264    1.874098
    108          6           0       -8.825812    2.779171    2.853762
    109          6           0      -10.300672   -0.526628    2.489756
    110          6           0      -10.608692   -0.956918    1.073651
    111          7           0       -5.433676   -1.934568    0.737869
    112          6           0       -6.205066   -2.334336    1.851074
    113          6           0       -5.627203   -3.599266    2.349523
    114          6           0       -4.537008   -3.837583    1.499124
    115          6           0       -4.429951   -2.784355    0.551103
    116          6           0       -6.084034   -4.334149    3.479742
    117          6           0       -3.446026   -4.735166    1.194514
    118          8           0       -3.088547   -5.838613    1.604829
    119          6           0       -2.472479   -4.015914    0.164328
    120          6           0       -2.164478   -4.988944   -0.940599
    121          8           0       -3.061515   -5.376330   -1.709929
    122          8           0       -0.830513   -5.132284   -1.042366
    123          6           0       -0.474875   -6.079575   -2.132318
    124          1           0       -2.581505    2.367185   -2.558373
    125          1           0       -8.285228    3.215936   -0.158646
    126          1           0       -7.769685   -2.127107    3.100299
    127          1           0       -0.608676   -1.991934   -1.341725
    128          1           0       -1.009483    0.334279   -2.879641
    129          1           0       -0.350022   -0.101376    0.004023
    130          1           0       -1.233459    1.400643   -0.339166
    131          1           0        0.294535    1.147500   -1.127066
    132          1           0       -2.152397   -1.497613   -3.898740
    133          1           0       -2.212896   -3.143839   -3.169727
    134          1           0        0.518295   -2.360108   -3.353846
    135          1           0       -0.243202   -1.643101   -4.728950
    136          1           0       -3.378775    3.828284   -3.850769
    137          1           0       -4.403711    5.164811   -3.447783
    138          1           0       -4.909616    4.104285   -4.784235
    139          1           0       -6.486735    5.934875   -3.656140
    140          1           0       -8.320481    5.937532   -3.946093
    141          1           0       -7.234164    4.715285   -4.666818
    142          1           0       -9.862072    1.830270    1.288131
    143          1           0       -8.737091    0.334585    3.602018
    144          1           0       -9.696647    3.461593    2.850349
    145          1           0       -7.909932    3.330609    2.687591
    146          1           0       -8.703707    2.431847    3.878285
    147          1           0      -11.121950    0.122939    2.802346
    148          1           0      -10.314827   -1.397539    3.136534
    149          1           0      -11.069480   -0.064667    0.639318
    150          1           0      -11.298315   -1.798620    1.070450
    151          1           0       -9.687648   -1.157785    0.514198
    152          1           0       -6.086713   -5.377229    3.192544
    153          1           0       -7.072083   -4.005243    3.794947
    154          1           0       -5.312209   -4.071490    4.208136
    155          1           0       -1.576383   -3.720936    0.711661
    156          1           0        0.150787   -6.859066   -1.686652
    157          1           0       -0.018824   -5.461448   -2.928367
    158          1           0       -1.274405   -6.670769   -2.563248
 ---------------------------------------------------------------------

 SCF Done:  E(RCAM-B3LYP) =  -4069.81147661     A.U. after   19 cycles

 Excitation energies and oscillator strengths:

 Excited State   1:      Singlet-A      1.6540 eV  749.59 nm  f=0.0017  <S**2>=0.000
     309 -> 315       -0.11713
     310 -> 316        0.12082
     311 -> 313       -0.47587
     312 -> 314        0.49596
 This state for optimization and/or second-order correction.
 Total Energy, E(TD-HF/TD-DFT) =  -4069.75069256
 Copying the excited state density for this state as the 1-particle RhoCI density.

 Excited State   2:      Singlet-A      1.6976 eV  730.34 nm  f=0.7100  <S**2>=0.000
     309 -> 315        0.13018
     310 -> 316        0.12367
     311 -> 313        0.49386
     312 -> 314        0.47396

 Excited State   3:      Singlet-A      2.1825 eV  568.08 nm  f=0.0688  <S**2>=0.000
     309 -> 313        0.19114
     310 -> 314        0.61470
     312 -> 316       -0.25835

 Excited State   4:      Singlet-A      2.1942 eV  565.05 nm  f=0.1253  <S**2>=0.000
     309 -> 313        0.61138
     310 -> 314       -0.18886
     311 -> 315       -0.26722

 Excited State   5:      Singlet-A      2.3881 eV  519.17 nm  f=0.0000  <S**2>=0.000
     312 -> 313        0.70658

 The electronic state is 1-A.
 Alpha  occ. eigenvalues --  -46.88097 -46.87425 -19.26562 -19.25669 -19.19302
 Alpha  occ. eigenvalues --  -19.19098 -19.18633 -19.18528 -19.18386 -19.17709
 Alpha  occ. eigenvalues --  -14.42744 -14.42254 -14.41723 -14.41126 -14.39700
 Alpha  occ. eigenvalues --  -14.39121 -14.38867 -14.38356 -10.39355 -10.38548
 Alpha  occ. eigenvalues --  -10.35733 -10.35210 -10.34611 -10.33870 -10.31979
 Alpha  occ. eigenvalues --  -10.31681 -10.31215 -10.31086 -10.31044 -10.30842
 Alpha  occ. eigenvalues --  -10.30776 -10.30752 -10.30478 -10.30168 -10.30158
 Alpha  occ. eigenvalues --  -10.30107 -10.29944 -10.29896 -10.29661 -10.29537
 Alpha  occ. eigenvalues --  -10.29228 -10.29167 -10.29068 -10.28886 -10.28651
 Alpha  occ. eigenvalues --  -10.28408 -10.28342 -10.28297 -10.28147 -10.28053
 Alpha  occ. eigenvalues --  -10.28009 -10.27874 -10.27863 -10.27788 -10.27763
 Alpha  occ. eigenvalues --  -10.27714 -10.27685 -10.27662 -10.27444 -10.27411
 Alpha  occ. eigenvalues --  -10.27345 -10.27324 -10.27238 -10.27208 -10.27195
 Alpha  occ. eigenvalues --  -10.27106 -10.26723 -10.26598 -10.26484 -10.26367
 Alpha  occ. eigenvalues --  -10.26362 -10.26280 -10.26279 -10.25998 -10.25986
 Alpha  occ. eigenvalues --  -10.25809 -10.25715 -10.25634 -10.25623 -10.25237
 Alpha  occ. eigenvalues --  -10.25088 -10.25055 -10.24876 -10.24619 -10.24583
 Alpha  occ. eigenvalues --  -10.24455  -3.16839  -3.16175  -1.91721  -1.91307
 Alpha  occ. eigenvalues --   -1.91149  -1.91058  -1.90646  -1.90483  -1.16911
 Alpha  occ. eigenvalues --   -1.16004  -1.08840  -1.08290  -1.07499  -1.06918
 Alpha  occ. eigenvalues --   -1.06784  -1.06402  -1.04873  -1.04242  -1.04037
 Alpha  occ. eigenvalues --   -1.03511  -1.03423  -1.02808  -1.02686  -1.01874
 Alpha  occ. eigenvalues --   -0.92241  -0.91684  -0.89761  -0.89491  -0.89273
 Alpha  occ. eigenvalues --   -0.88862  -0.88522  -0.88103  -0.88016  -0.87958
 Alpha  occ. eigenvalues --   -0.87563  -0.87556  -0.87434  -0.86926  -0.85280
 Alpha  occ. eigenvalues --   -0.84724  -0.84161  -0.83660  -0.83247  -0.82935
 Alpha  occ. eigenvalues --   -0.82752  -0.82377  -0.81857  -0.81195  -0.80875
 Alpha  occ. eigenvalues --   -0.80104  -0.79070  -0.78422  -0.77482  -0.77208
 Alpha  occ. eigenvalues --   -0.76901  -0.76581  -0.76195  -0.75516  -0.75133
 Alpha  occ. eigenvalues --   -0.74559  -0.73030  -0.72463  -0.71933  -0.71323
 Alpha  occ. eigenvalues --   -0.70124  -0.69572  -0.69160  -0.68558  -0.67911
 Alpha  occ. eigenvalues --   -0.67539  -0.67342  -0.66923  -0.65583  -0.65124
 Alpha  occ. eigenvalues --   -0.64955  -0.64893  -0.64512  -0.64509  -0.64315
 Alpha  occ. eigenvalues --   -0.63969  -0.62568  -0.61818  -0.60717  -0.60134
 Alpha  occ. eigenvalues --   -0.60095  -0.59509  -0.59250  -0.58766  -0.58725
 Alpha  occ. eigenvalues --   -0.58140  -0.57842  -0.57562  -0.57176  -0.56950
 Alpha  occ. eigenvalues --   -0.56570  -0.56263  -0.55964  -0.55792  -0.55574
 Alpha  occ. eigenvalues --   -0.55460  -0.55152  -0.54945  -0.54767  -0.54200
 Alpha  occ. eigenvalues --   -0.54123  -0.53627  -0.53571  -0.53506  -0.53185
 Alpha  occ. eigenvalues --   -0.53053  -0.52982  -0.52855  -0.52648  -0.52562
 Alpha  occ. eigenvalues --   -0.52450  -0.52198  -0.52121  -0.51919  -0.51642
 Alpha  occ. eigenvalues --   -0.51446  -0.51375  -0.50901  -0.50872  -0.50307
 Alpha  occ. eigenvalues --   -0.50276  -0.50192  -0.49799  -0.49763  -0.49668
 Alpha  occ. eigenvalues --   -0.49478  -0.49360  -0.49248  -0.48918  -0.48848
 Alpha  occ. eigenvalues --   -0.48814  -0.48728  -0.48683  -0.48248  -0.48169
 Alpha  occ. eigenvalues --   -0.48073  -0.47967  -0.47563  -0.47326  -0.47055
 Alpha  occ. eigenvalues --   -0.46878  -0.46854  -0.46620  -0.46466  -0.46408
 Alpha  occ. eigenvalues --   -0.46286  -0.46060  -0.46036  -0.45794  -0.45476
 Alpha  occ. eigenvalues --   -0.45435  -0.44987  -0.44831  -0.44775  -0.44403
 Alpha  occ. eigenvalues --   -0.44366  -0.44277  -0.44222  -0.44206  -0.43876
 Alpha  occ. eigenvalues --   -0.43844  -0.43756  -0.43662  -0.43646  -0.43284
 Alpha  occ. eigenvalues --   -0.43206  -0.43072  -0.42965  -0.42890  -0.42650
 Alpha  occ. eigenvalues --   -0.42378  -0.42325  -0.42256  -0.41959  -0.41821
 Alpha  occ. eigenvalues --   -0.41717  -0.41404  -0.41375  -0.41182  -0.41152
 Alpha  occ. eigenvalues --   -0.41118  -0.40807  -0.40739  -0.40583  -0.40501
 Alpha  occ. eigenvalues --   -0.40455  -0.40256  -0.39891  -0.39657  -0.39243
 Alpha  occ. eigenvalues --   -0.38716  -0.38140  -0.38067  -0.37572  -0.37566
 Alpha  occ. eigenvalues --   -0.37369  -0.37041  -0.36976  -0.36922  -0.36455
 Alpha  occ. eigenvalues --   -0.36325  -0.35855  -0.34561  -0.34051  -0.34005
 Alpha  occ. eigenvalues --   -0.33461  -0.33400  -0.32915  -0.31626  -0.31311
 Alpha  occ. eigenvalues --   -0.31085  -0.30717  -0.30246  -0.29734  -0.29597
 Alpha  occ. eigenvalues --   -0.29579  -0.29104  -0.28961  -0.24362  -0.23785
 Alpha  occ. eigenvalues --   -0.21402  -0.20884
 Alpha virt. eigenvalues --   -0.09049  -0.08554  -0.02032  -0.01457  -0.00343
 Alpha virt. eigenvalues --    0.00184   0.01952   0.02344   0.02513   0.03449
 Alpha virt. eigenvalues --    0.04406   0.04782   0.05014   0.05635   0.05693

 Mulliken charges:
               1
     1  Mg   0.832797
     2  C   -0.003707
     3  C   -0.094662
     4  C   -0.045338
     5  C   -0.063335
     6  N   -0.256580
     7  C   -0.053577
     8  C   -0.013396
     9  C   -0.086593
    10  C    0.045028
    11  C    0.104683
    12  C    0.051442
    13  C   -0.071804
    14  H    0.036113
    15  N   -0.433478
    16  C    0.166791
    17  C   -0.178288
    18  C   -0.004831
    19  C    0.148152
    20  C    0.110275
    21  C    0.011580
    22  O   -0.248971
    23  C    0.063063
    24  N   -0.340655
    25  C    0.040767
    26  C   -0.028223
    27  C   -0.024235
    28  C    0.074928
    29  C    0.075949
    30  C    0.034927
    31  C   -0.004580
    32  N   -0.310906
    33  C    0.080528
    34  C   -0.168500
    35  C    0.009252
    36  C    0.082629
    37  C    0.126898
    38  C    0.047414
    39  O   -0.186304
    40  C   -0.005954
    41  C    0.213397
    42  O   -0.257442
    43  O   -0.304343
    44  C    0.157742
    45  H   -0.017456
    46  H   -0.016446
    47  H   -0.040334
    48  H    0.001755
    49  H   -0.004336
    50  H    0.025920
    51  H    0.016871
    52  H    0.017139
    53  H    0.009287
    54  H    0.043959
    55  H    0.019145
    56  H    0.018070
    57  H    0.005961
    58  H    0.027560
    59  H    0.037697
    60  H    0.038028
    61  H    0.036123
    62  H    0.029230
    63  H    0.016781
    64  H    0.010144
    65  H    0.023682
    66  H    0.012634
    67  H    0.005287
    68  H    0.007033
    69  H    0.005542
    70  H    0.008844
    71  H    0.019243
    72  H    0.027864
    73  H    0.049642
    74  H    0.009776
    75  H    0.046520
    76  H    0.035795
    77  H    0.044253
    78  H    0.046163
    79  H    0.051698
    80  Mg   0.837190
    81  C   -0.017166
    82  C   -0.087767
    83  C   -0.045867
    84  C   -0.065709
    85  N   -0.254403
    86  C   -0.049894
    87  C   -0.017107
    88  C   -0.091478
    89  C    0.045588
    90  C    0.110201
    91  C    0.062788
    92  C   -0.078685
    93  H    0.031172
    94  N   -0.423407
    95  C    0.162557
    96  C   -0.174967
    97  C   -0.008318
    98  C    0.151949
    99  C    0.099787
   100  C    0.015240
   101  O   -0.253749
   102  C    0.061352
   103  N   -0.350169
   104  C    0.037274
   105  C   -0.019632
   106  C   -0.034793
   107  C    0.089222
   108  C    0.073855
   109  C    0.034860
   110  C   -0.007584
   111  N   -0.324242
   112  C    0.078866
   113  C   -0.163651
   114  C    0.002875
   115  C    0.095839
   116  C    0.131576
   117  C    0.042078
   118  O   -0.185995
   119  C    0.001979
   120  C    0.209873
   121  O   -0.253947
   122  O   -0.299014
   123  C    0.155929
   124  H   -0.020815
   125  H   -0.016219
   126  H   -0.040962
   127  H    0.008783
   128  H   -0.005917
   129  H    0.026184
   130  H    0.014215
   131  H    0.018218
   132  H    0.011898
   133  H    0.037747
   134  H    0.029566
   135  H    0.015622
   136  H    0.007376
   137  H    0.025486
   138  H    0.038718
   139  H    0.037872
   140  H    0.035785
   141  H    0.033412
   142  H    0.013964
   143  H    0.012019
   144  H    0.024624
   145  H    0.011696
   146  H    0.005165
   147  H    0.005805
   148  H    0.003449
   149  H    0.010702
   150  H    0.017567
   151  H    0.030411
   152  H    0.046107
   153  H    0.007899
   154  H    0.046965
   155  H    0.040612
   156  H    0.045483
   157  H    0.049009
   158  H    0.049320
 Sum of Mulliken charges =  -0.00000

 Dipole moment (field-independent basis, Debye):
    X=              4.7589    Y=              5.6729    Z=             -4.0668  Tot=              8.4479
 Quadrupole moment (field-independent basis, Debye-Ang):
   XX=           -501.3072   YY=           -565.5711   ZZ=           -456.0206
   XY=             10.4166   XZ=            -37.4210   YZ=              2.1317

 Normal termination of Gaussian 16 at Fri Sep 10 20:52:23 2021.
