 Gaussian 16, Revision A.03,
 Gaussian 16:  ES64L-G16RevA.03 25-Dec-2016

 -----------------------------------
 #p cam-b3lyp/Def2SVP td=(nstates=5)
 -----------------------------------

 --------------------------------
 TDDFT excited states in gaussian
 --------------------------------
 Symbolic Z-matrix:
 Charge =  0 Multiplicity = 1

                         Standard orientation:
 ---------------------------------------------------------------------
 Center     Atomic      Atomic             Coordinates (Angstroms)
 Number     Number       Type             X           Y           Z
 ---------------------------------------------------------------------
      1         12           0       15.782387    0.554199    0.550936
      2          6           0       16.099513   -2.286613   -1.603462
      3          6           0       16.591491    2.495431   -2.136076
      4          6           0       15.953964    3.028185    2.527442
      5          6           0       16.119920   -1.634286    3.242082
      6          7           0       16.260908    0.051447   -1.551183
      7          6           0       16.289403   -1.070540   -2.263577
      8          6           0       16.465170   -0.827357   -3.792414
      9          6           0       17.163759    0.604882   -3.740811
     10          6           0       16.612443    1.096379   -2.414009
     11          6           0       18.684634    0.537884   -3.646189
     12          6           0       15.094234   -0.769237   -4.546660
     13          6           0       15.183611   -0.861904   -6.072694
     14          1           0       14.136175   -1.569102   -6.793870
     15          7           0       15.729167    2.494395    0.182618
     16          6           0       16.078484    3.109224   -0.972911
     17          6           0       15.862917    4.554601   -0.746863
     18          6           0       15.540929    4.746681    0.694498
     19          6           0       15.756989    3.416778    1.204452
     20          6           0       15.921464    5.576223   -1.840760
     21          6           0       15.117467    5.941824    1.488504
     22          8           0       15.114486    5.942791    2.767004
     23          6           0       14.786405    7.156394    0.721523
     24          7           0       16.223982    0.719153    2.584509
     25          6           0       16.171707    1.901142    3.208330
     26          6           0       16.245482    1.736375    4.697407
     27          6           0       16.114370    0.169518    4.975829
     28          6           0       16.067387   -0.327537    3.509882
     29          6           0       17.519697    2.268880    5.367352
     30          6           0       14.991723   -0.281165    5.943799
     31          6           0       13.639622   -0.018379    5.319408
     32          7           0       15.883730   -1.597537    0.817030
     33          6           0       16.047602   -2.290933    2.024930
     34          6           0       16.167434   -3.721603    1.688938
     35          6           0       16.081000   -3.759657    0.298641
     36          6           0       15.943876   -2.434137   -0.203840
     37          6           0       16.390726   -4.779096    2.614293
     38          6           0       16.097318   -4.609541   -0.880887
     39          8           0       16.094925   -5.826321   -1.073072
     40          6           0       16.232370   -3.679731   -2.166593
     41          6           0       15.204721   -4.134882   -3.166635
     42          8           0       13.985493   -3.997362   -2.938736
     43          8           0       15.813757   -4.438264   -4.323171
     44          6           0       14.846987   -4.869170   -5.368078
     45          1           0       17.062370    3.181148   -2.843187
     46          1           0       15.908753    3.842892    3.253146
     47          1           0       16.142632   -2.383897    4.035190
     48          1           0       17.117763   -1.542010   -4.294229
     49          1           0       16.829132    1.250365   -4.552660
     50          1           0       19.029982   -0.485407   -3.499458
     51          1           0       18.950403    1.156053   -2.788444
     52          1           0       19.147853    1.011717   -4.512034
     53          1           0       14.670690    0.230029   -4.445960
     54          1           0       14.417836   -1.540995   -4.177605
     55          1           0       16.167345   -1.205116   -6.394225
     56          1           0       15.101136    0.145234   -6.481436
     57          1           0       16.341000    5.159741   -2.755679
     58          1           0       16.642093    6.332998   -1.531414
     59          1           0       14.952390    6.042508   -2.019096
     60          1           0       15.653549    7.458415    0.133819
     61          1           0       14.419630    7.880340    1.448316
     62          1           0       13.998878    6.918380    0.005913
     63          1           0       15.424711    2.256532    5.189543
     64          1           0       17.023484   -0.246027    5.411155
     65          1           0       17.328947    3.007693    6.146117
     66          1           0       18.163676    2.678040    4.589425
     67          1           0       18.162681    1.503058    5.800371
     68          1           0       15.035113    0.293308    6.868485
     69          1           0       15.048510   -1.337539    6.206668
     70          1           0       13.461988    1.030150    5.555764
     71          1           0       12.880274   -0.655226    5.774410
     72          1           0       13.678932   -0.105476    4.233427
     73          1           0       15.723481   -5.588768    2.319022
     74          1           0       16.195469   -4.457989    3.637215
     75          1           0       17.446015   -4.984531    2.435362
     76          1           0       17.248861   -3.804672   -2.538422
     77          1           0       15.165891   -5.852253   -5.714606
     78          1           0       14.803790   -4.063669   -6.101364
     79          1           0       13.834881   -5.089567   -5.026897
     80         12           0      -15.952432   -0.651209    0.466827
     81          6           0      -15.836691    1.901409   -2.053049
     82          6           0      -15.173379    1.768189    2.741517
     83          6           0      -15.603610   -2.941421    2.634922
     84          6           0      -15.588412   -2.994382   -2.087130
     85          7           0      -15.578552    1.518024    0.250296
     86          6           0      -15.622944    2.388740   -0.746812
     87          6           0      -15.507208    3.873686   -0.309644
     88          6           0      -14.742392    3.654748    1.085354
     89          6           0      -15.217196    2.238707    1.404805
     90          6           0      -13.229428    3.630929    0.944918
     91          6           0      -16.909292    4.545137   -0.096799
     92          6           0      -16.879675    6.069962    0.028802
     93          1           0      -17.989778    6.836130   -0.530783
     94          7           0      -15.945507   -0.552951    2.448964
     95          6           0      -15.625333    0.514826    3.209647
     96          6           0      -15.756912    0.068548    4.605243
     97          6           0      -16.020994   -1.396019    4.606466
     98          6           0      -15.842386   -1.697259    3.200247
     99          6           0      -15.710455    1.014551    5.769861
    100          6           0      -16.363427   -2.367274    5.695324
    101          8           0      -16.315411   -3.634206    5.507145
    102          6           0      -16.665990   -1.793230    7.014578
    103          7           0      -15.429735   -2.658507    0.325800
    104          6           0      -15.402995   -3.444212    1.416618
    105          6           0      -15.271916   -4.899980    1.037211
    106          6           0      -15.460216   -4.948889   -0.550148
    107          6           0      -15.584137   -3.436357   -0.837009
    108          6           0      -13.950157   -5.569090    1.413504
    109          6           0      -16.560313   -5.897951   -1.099452
    110          6           0      -17.926816   -5.390784   -0.698409
    111          7           0      -15.932689   -0.607148   -1.693199
    112          6           0      -15.740769   -1.699791   -2.566921
    113          6           0      -15.693495   -1.156324   -3.939813
    114          6           0      -15.839291    0.228292   -3.766425
    115          6           0      -15.948077    0.528708   -2.381715
    116          6           0      -15.486046   -1.913118   -5.127401
    117          6           0      -15.915248    1.505122   -4.439216
    118          8           0      -15.967792    1.866104   -5.614234
    119          6           0      -15.790035    2.657576   -3.351768
    120          6           0      -16.875549    3.664885   -3.615397
    121          8           0      -18.072185    3.354740   -3.479403
    122          8           0      -16.320207    4.880426   -3.771697
    123          6           0      -17.357962    5.915288   -4.024535
    124          1           0      -14.710759    2.401034    3.499397
    125          1           0      -15.585447   -3.781111    3.333546
    126          1           0      -15.575817   -3.669875   -2.945160
    127          1           0      -14.911246    4.495559   -0.966812
    128          1           0      -15.091477    4.353552    1.841112
    129          1           0      -12.920540    3.647087   -0.089711
    130          1           0      -12.904025    2.716095    1.422671
    131          1           0      -12.784431    4.446863    1.521590
    132          1           0      -17.284772    4.281734    0.900383
    133          1           0      -17.590414    4.259806   -0.874807
    134          1           0      -15.920174    6.491623   -0.294458
    135          1           0      -16.944608    6.332265    1.087580
    136          1           0      -15.338974    2.002533    5.471004
    137          1           0      -14.948818    0.635270    6.459728
    138          1           0      -16.664273    1.079935    6.297713
    139          1           0      -15.813577   -1.213205    7.360142
    140          1           0      -16.973569   -2.636145    7.636482
    141          1           0      -17.501256   -1.092122    6.907811
    142          1           0      -16.050569   -5.492340    1.501872
    143          1           0      -14.546874   -5.291333   -1.058449
    144          1           0      -14.079885   -6.463668    2.051466
    145          1           0      -13.325495   -4.836924    1.907755
    146          1           0      -13.329618   -5.871656    0.571722
    147          1           0      -16.456856   -6.892645   -0.658957
    148          1           0      -16.528373   -6.018115   -2.177202
    149          1           0      -18.046306   -5.780160    0.317069
    150          1           0      -18.692074   -5.784101   -1.364537
    151          1           0      -17.937519   -4.296464   -0.635225
    152          1           0      -16.189927   -1.541653   -5.860240
    153          1           0      -15.621359   -2.977846   -4.949058
    154          1           0      -14.443381   -1.661669   -5.339272
    155          1           0      -14.794884    3.093179   -3.449169
    156          1           0      -17.090439    6.413831   -4.961326
    157          1           0      -17.385867    6.539646   -3.111768
    158          1           0      -18.362492    5.574134   -4.245890
 ---------------------------------------------------------------------

 SCF Done:  E(RCAM-B3LYP) =  -4069.81177726     A.U. after   19 cycles

 Excitation energies and oscillator strengths:

 Excited State   1:      Singlet-A      1.6756 eV  739.95 nm  f=0.3854  <S**2>=0.000
     310 -> 316        0.17349
     312 -> 313        0.68551
     310 <- 316        0.10457
 This state for optimization and/or second-order correction.
 Total Energy, E(TD-HF/TD-DFT) =  -4069.75020118
 Copying the excited state density for this state as the 1-particle RhoCI density.

 Excited State   2:      Singlet-A      1.6799 eV  738.07 nm  f=0.3908  <S**2>=0.000
     309 -> 315        0.17539
     311 -> 314        0.68516
     309 <- 315        0.10503

 Excited State   3:      Singlet-A      2.1861 eV  567.14 nm  f=0.1022  <S**2>=0.000
     310 -> 313        0.64246
     312 -> 316       -0.27313

 Excited State   4:      Singlet-A      2.1925 eV  565.49 nm  f=0.0988  <S**2>=0.000
     309 -> 314        0.64069
     311 -> 315       -0.27826

 Excited State   5:      Singlet-A      3.0657 eV  404.43 nm  f=0.0000  <S**2>=0.000
     311 -> 313        0.70711

 The electronic state is 1-A.
 Alpha  occ. eigenvalues --  -46.87796 -46.87661 -19.26355 -19.26279 -19.19166
 Alpha  occ. eigenvalues --  -19.19015 -19.18816 -19.18713 -19.18168 -19.18054
 Alpha  occ. eigenvalues --  -14.42498 -14.42449 -14.41449 -14.41359 -14.39402
 Alpha  occ. eigenvalues --  -14.39352 -14.38601 -14.38586 -10.39095 -10.39075
 Alpha  occ. eigenvalues --  -10.35450 -10.35390 -10.34387 -10.34231 -10.31763
 Alpha  occ. eigenvalues --  -10.31672 -10.31403 -10.31310 -10.31024 -10.30907
 Alpha  occ. eigenvalues --  -10.30569 -10.30507 -10.30398 -10.30362 -10.30207
 Alpha  occ. eigenvalues --  -10.30140 -10.29921 -10.29894 -10.29630 -10.29437
 Alpha  occ. eigenvalues --  -10.29401 -10.29254 -10.28745 -10.28721 -10.28658
 Alpha  occ. eigenvalues --  -10.28530 -10.28406 -10.28364 -10.28142 -10.28113
 Alpha  occ. eigenvalues --  -10.28002 -10.27792 -10.27726 -10.27670 -10.27584
 Alpha  occ. eigenvalues --  -10.27515 -10.27503 -10.27484 -10.27480 -10.27467
 Alpha  occ. eigenvalues --  -10.27464 -10.27452 -10.27402 -10.27373 -10.27155
 Alpha  occ. eigenvalues --  -10.27054 -10.26699 -10.26696 -10.26412 -10.26412
 Alpha  occ. eigenvalues --  -10.26230 -10.26188 -10.26136 -10.26026 -10.26019
 Alpha  occ. eigenvalues --  -10.25934 -10.25853 -10.25843 -10.25438 -10.25392
 Alpha  occ. eigenvalues --  -10.24874 -10.24832 -10.24788 -10.24730 -10.24692
 Alpha  occ. eigenvalues --  -10.24690  -3.16539  -3.16411  -1.91420  -1.91293
 Alpha  occ. eigenvalues --   -1.91007  -1.90882  -1.90849  -1.90718  -1.16649
 Alpha  occ. eigenvalues --   -1.16627  -1.08661  -1.08625  -1.07218  -1.06965
 Alpha  occ. eigenvalues --   -1.06950  -1.06638  -1.04580  -1.04496  -1.03760
 Alpha  occ. eigenvalues --   -1.03663  -1.03233  -1.03039  -1.02411  -1.02112
 Alpha  occ. eigenvalues --   -0.91989  -0.91971  -0.89521  -0.89494  -0.89184
 Alpha  occ. eigenvalues --   -0.89153  -0.88288  -0.88219  -0.87870  -0.87795
 Alpha  occ. eigenvalues --   -0.87685  -0.87671  -0.87274  -0.87120  -0.85001
 Alpha  occ. eigenvalues --   -0.84979  -0.83938  -0.83875  -0.82968  -0.82930
 Alpha  occ. eigenvalues --   -0.82653  -0.82646  -0.81599  -0.81583  -0.80595
 Alpha  occ. eigenvalues --   -0.80444  -0.78797  -0.78636  -0.77218  -0.77145
 Alpha  occ. eigenvalues --   -0.76932  -0.76900  -0.75920  -0.75841  -0.74899
 Alpha  occ. eigenvalues --   -0.74802  -0.72774  -0.72700  -0.71671  -0.71581
 Alpha  occ. eigenvalues --   -0.69909  -0.69756  -0.68871  -0.68828  -0.67640
 Alpha  occ. eigenvalues --   -0.67602  -0.67216  -0.67201  -0.65284  -0.65273
 Alpha  occ. eigenvalues --   -0.64852  -0.64771  -0.64655  -0.64619  -0.64270
 Alpha  occ. eigenvalues --   -0.64203  -0.62295  -0.62281  -0.60442  -0.60339
 Alpha  occ. eigenvalues --   -0.59802  -0.59798  -0.58993  -0.58987  -0.58503
 Alpha  occ. eigenvalues --   -0.58426  -0.57582  -0.57557  -0.57308  -0.57237
 Alpha  occ. eigenvalues --   -0.56309  -0.56205  -0.55974  -0.55890  -0.55519
 Alpha  occ. eigenvalues --   -0.55453  -0.55339  -0.55248  -0.54522  -0.54489
 Alpha  occ. eigenvalues --   -0.53914  -0.53891  -0.53298  -0.53228  -0.53220
 Alpha  occ. eigenvalues --   -0.53143  -0.52913  -0.52904  -0.52755  -0.52668
 Alpha  occ. eigenvalues --   -0.52441  -0.52400  -0.51914  -0.51887  -0.51660
 Alpha  occ. eigenvalues --   -0.51614  -0.51203  -0.51195  -0.50572  -0.50474
 Alpha  occ. eigenvalues --   -0.50033  -0.49980  -0.49918  -0.49866  -0.49513
 Alpha  occ. eigenvalues --   -0.49488  -0.49213  -0.49204  -0.49106  -0.49093
 Alpha  occ. eigenvalues --   -0.48591  -0.48560  -0.48462  -0.48445  -0.48375
 Alpha  occ. eigenvalues --   -0.48338  -0.47693  -0.47595  -0.47296  -0.47118
 Alpha  occ. eigenvalues --   -0.46796  -0.46710  -0.46555  -0.46552  -0.46359
 Alpha  occ. eigenvalues --   -0.46271  -0.46162  -0.46086  -0.45825  -0.45820
 Alpha  occ. eigenvalues --   -0.45207  -0.45202  -0.44576  -0.44516  -0.44506
 Alpha  occ. eigenvalues --   -0.44477  -0.44145  -0.44129  -0.44086  -0.44078
 Alpha  occ. eigenvalues --   -0.44018  -0.43940  -0.43556  -0.43492  -0.43387
 Alpha  occ. eigenvalues --   -0.43384  -0.43026  -0.42933  -0.42903  -0.42697
 Alpha  occ. eigenvalues --   -0.42654  -0.42552  -0.42009  -0.41965  -0.41703
 Alpha  occ. eigenvalues --   -0.41671  -0.41531  -0.41460  -0.41140  -0.40990
 Alpha  occ. eigenvalues --   -0.40867  -0.40823  -0.40722  -0.40699  -0.40572
 Alpha  occ. eigenvalues --   -0.40493  -0.40229  -0.40229  -0.39444  -0.39424
 Alpha  occ. eigenvalues --   -0.38470  -0.38349  -0.37744  -0.37656  -0.37321
 Alpha  occ. eigenvalues --   -0.37266  -0.37261  -0.37201  -0.36775  -0.36710
 Alpha  occ. eigenvalues --   -0.36218  -0.36191  -0.34285  -0.34254  -0.33866
 Alpha  occ. eigenvalues --   -0.33766  -0.33185  -0.33176  -0.31346  -0.31272
 Alpha  occ. eigenvalues --   -0.31035  -0.30973  -0.30027  -0.29959  -0.29449
 Alpha  occ. eigenvalues --   -0.29327  -0.29321  -0.29213  -0.24080  -0.24037
 Alpha  occ. eigenvalues --   -0.21127  -0.21117
 Alpha virt. eigenvalues --   -0.08792  -0.08774  -0.01749  -0.01684  -0.00057
 Alpha virt. eigenvalues --   -0.00029   0.02201   0.02206   0.03121   0.03228
 Alpha virt. eigenvalues --    0.04720   0.04729   0.05102   0.05161   0.06180

 Mulliken charges:
               1
     1  Mg   0.838685
     2  C   -0.002953
     3  C   -0.094092
     4  C   -0.045872
     5  C   -0.063968
     6  N   -0.256759
     7  C   -0.052468
     8  C   -0.013985
     9  C   -0.087010
    10  C    0.046322
    11  C    0.104807
    12  C    0.053450
    13  C   -0.071840
    14  H    0.036203
    15  N   -0.433132
    16  C    0.168419
    17  C   -0.177147
    18  C   -0.004017
    19  C    0.148705
    20  C    0.110182
    21  C    0.012270
    22  O   -0.249668
    23  C    0.062477
    24  N   -0.341113
    25  C    0.041243
    26  C   -0.028166
    27  C   -0.023980
    28  C    0.074834
    29  C    0.076177
    30  C    0.035151
    31  C   -0.004502
    32  N   -0.310478
    33  C    0.080409
    34  C   -0.169725
    35  C    0.008355
    36  C    0.082984
    37  C    0.127314
    38  C    0.046122
    39  O   -0.188423
    40  C   -0.005318
    41  C    0.212863
    42  O   -0.257096
    43  O   -0.304798
    44  C    0.157685
    45  H   -0.017578
    46  H   -0.016870
    47  H   -0.041516
    48  H    0.000953
    49  H   -0.003998
    50  H    0.025478
    51  H    0.016431
    52  H    0.016686
    53  H    0.011215
    54  H    0.044126
    55  H    0.017875
    56  H    0.017978
    57  H    0.005907
    58  H    0.026820
    59  H    0.039567
    60  H    0.037364
    61  H    0.035609
    62  H    0.031516
    63  H    0.016517
    64  H    0.009453
    65  H    0.023176
    66  H    0.012561
    67  H    0.004746
    68  H    0.006325
    69  H    0.004722
    70  H    0.008749
    71  H    0.018108
    72  H    0.029017
    73  H    0.047570
    74  H    0.009087
    75  H    0.046011
    76  H    0.035162
    77  H    0.042960
    78  H    0.046428
    79  H    0.053701
    80  Mg   0.837917
    81  C   -0.016843
    82  C   -0.087803
    83  C   -0.045496
    84  C   -0.064853
    85  N   -0.254594
    86  C   -0.049836
    87  C   -0.015084
    88  C   -0.090508
    89  C    0.045755
    90  C    0.114372
    91  C    0.062533
    92  C   -0.077897
    93  H    0.034873
    94  N   -0.423507
    95  C    0.162934
    96  C   -0.174588
    97  C   -0.007784
    98  C    0.152126
    99  C    0.099351
   100  C    0.015592
   101  O   -0.253133
   102  C    0.061185
   103  N   -0.350074
   104  C    0.037528
   105  C   -0.019838
   106  C   -0.034827
   107  C    0.088921
   108  C    0.073614
   109  C    0.034737
   110  C   -0.007687
   111  N   -0.324108
   112  C    0.078447
   113  C   -0.163142
   114  C    0.002228
   115  C    0.096188
   116  C    0.131495
   117  C    0.042368
   118  O   -0.187926
   119  C    0.000914
   120  C    0.211257
   121  O   -0.251024
   122  O   -0.305633
   123  C    0.152034
   124  H   -0.019629
   125  H   -0.015517
   126  H   -0.040445
   127  H   -0.000671
   128  H   -0.004322
   129  H    0.022449
   130  H    0.014472
   131  H    0.016294
   132  H    0.013927
   133  H    0.037665
   134  H    0.020774
   135  H    0.019607
   136  H    0.008771
   137  H    0.026202
   138  H    0.039807
   139  H    0.038285
   140  H    0.036436
   141  H    0.033884
   142  H    0.014413
   143  H    0.012466
   144  H    0.025199
   145  H    0.011680
   146  H    0.005742
   147  H    0.006307
   148  H    0.003650
   149  H    0.010950
   150  H    0.017927
   151  H    0.030075
   152  H    0.045977
   153  H    0.008527
   154  H    0.046948
   155  H    0.035009
   156  H    0.043878
   157  H    0.049496
   158  H    0.053577
 Sum of Mulliken charges =  -0.00000

 Dipole moment (field-independent basis, Debye):
    X=              3.7950    Y=              5.3508    Z=              1.5070  Tot=              6.7309
 Quadrupole moment (field-independent basis, Debye-Ang):
   XX=           -517.9078   YY=           -506.8200   ZZ=           -491.9767
   XY=             29.2508   XZ=            -96.7069   YZ=              6.9478

 Normal termination of Gaussian 16 at Sun Sep 12 16:11:14 2021.
