 Gaussian 16, Revision A.03,
 Gaussian 16:  ES64L-G16RevA.03 25-Dec-2016

 -----------------------------------
 #p cam-b3lyp/Def2SVP td=(nstates=5)
 -----------------------------------

 --------------------------------
 TDDFT excited states in gaussian
 --------------------------------
 Symbolic Z-matrix:
 Charge =  0 Multiplicity = 1

                         Standard orientation:
 ---------------------------------------------------------------------
 Center     Atomic      Atomic             Coordinates (Angstroms)
 Number     Number       Type             X           Y           Z
 ---------------------------------------------------------------------
      1         12           0        4.598748   -0.484111    0.876626
      2          6           0        5.047425    2.516175   -1.023160
      3          6           0        4.888638    1.429058    3.687109
      4          6           0        4.660098   -3.167506    2.565487
      5          6           0        5.471878   -2.256937   -1.993983
      6          7           0        4.922947    1.686583    1.165810
      7          6           0        5.018490    2.736265    0.355741
      8          6           0        5.008946    4.100386    1.108374
      9          6           0        5.526741    3.605592    2.532827
     10          6           0        5.054469    2.163513    2.475454
     11          6           0        7.046006    3.619903    2.667480
     12          6           0        3.572792    4.716964    1.203366
     13          6           0        3.519760    6.187208    1.628718
     14          1           0        2.500911    7.048124    1.047239
     15          7           0        4.269480   -0.795520    2.799504
     16          6           0        4.422692    0.101534    3.803051
     17          6           0        4.053803   -0.610109    5.045696
     18          6           0        3.856422   -2.046655    4.705886
     19          6           0        4.285182   -2.065681    3.330684
     20          6           0        3.875824    0.076325    6.365121
     21          6           0        3.370063   -3.218665    5.498337
     22          8           0        3.494956   -4.420741    5.081215
     23          6           0        2.816300   -2.925250    6.832614
     24          7           0        5.217851   -2.427607    0.432589
     25          6           0        5.082549   -3.415553    1.324014
     26          6           0        5.324784   -4.755538    0.694966
     27          6           0        5.416914   -4.495403   -0.877800
     28          6           0        5.285264   -2.952394   -0.869891
     29          6           0        6.583993   -5.497330    1.164166
     30          6           0        4.461153   -5.312573   -1.782882
     31          6           0        3.031288   -4.886107   -1.536487
     32          7           0        4.991448   -0.002689   -1.203053
     33          6           0        5.359845   -0.895242   -2.220061
     34          6           0        5.621397   -0.090308   -3.427430
     35          6           0        5.401624    1.224614   -3.021812
     36          6           0        5.052084    1.242281   -1.641304
     37          6           0        6.065193   -0.591293   -4.683015
     38          6           0        5.404755    2.620858   -3.427213
     39          8           0        5.533586    3.211975   -4.500282
     40          6           0        5.294460    3.522602   -2.119345
     41          6           0        4.236078    4.561601   -2.371569
     42          8           0        3.038179    4.236364   -2.500515
     43          8           0        4.759118    5.783234   -2.185604
     44          6           0        3.753353    6.859444   -2.391420
     45          1           0        5.197979    1.887191    4.628578
     46          1           0        4.587372   -4.126886    3.081954
     47          1           0        5.666350   -2.748163   -2.949143
     48          1           0        5.691360    4.847781    0.703238
     49          1           0        5.035322    4.133035    3.350161
     50          1           0        7.528151    3.845633    1.716427
     51          1           0        7.317813    2.619236    3.004051
     52          1           0        7.358093    4.298319    3.461918
     53          1           0        3.041181    4.262650    2.039458
     54          1           0        3.037353    4.594691    0.261198
     55          1           0        4.501221    6.657372    1.560981
     56          1           0        3.272916    6.227115    2.689697
     57          1           0        4.249941    1.098997    6.338208
     58          1           0        4.524680   -0.431592    7.078364
     59          1           0        2.843593    0.035202    6.713170
     60          1           0        3.576247   -2.428849    7.436449
     61          1           0        2.437434   -3.872074    7.215804
     62          1           0        1.996604   -2.214118    6.726129
     63          1           0        4.499410   -5.437119    0.896542
     64          1           0        6.409395   -4.716112   -1.271427
     65          1           0        6.382274   -6.488684    1.570653
     66          1           0        7.091333   -4.870136    1.896645
     67          1           0        7.356806   -5.611774    0.404508
     68          1           0        4.525514   -6.373197   -1.542301
     69          1           0        4.674124   -5.200129   -2.846014
     70          1           0        2.749942   -5.471504   -0.661852
     71          1           0        2.405877   -5.139082   -2.393269
     72          1           0        2.972178   -3.833978   -1.257172
     73          1           0        5.476990   -0.075922   -5.442211
     74          1           0        5.935100   -1.671393   -4.746745
     75          1           0        7.114537   -0.297850   -4.658025
     76          1           0        6.276243    3.968117   -1.962055
     77          1           0        4.155052    7.533790   -3.147812
     78          1           0        3.537734    7.274500   -1.406715
     79          1           0        2.815525    6.559506   -2.860307
     80         12           0       -4.230505   -0.815256   -0.777444
     81          6           0       -6.758728    1.424898    0.434520
     82          6           0       -2.629637    1.916360   -2.046341
     83          6           0       -2.227470   -2.792888   -2.241766
     84          6           0       -6.547822   -3.395369   -0.432765
     85          7           0       -4.728696    1.339506   -0.744769
     86          6           0       -5.683439    2.079580   -0.201544
     87          6           0       -5.433276    3.609651   -0.278161
     88          6           0       -4.447349    3.628945   -1.545613
     89          6           0       -3.867271    2.221194   -1.425502
     90          6           0       -5.177336    3.732960   -2.874384
     91          6           0       -4.726393    4.164879    1.007938
     92          6           0       -4.729571    5.689782    1.135949
     93          1           0       -4.852028    6.276212    2.467713
     94          7           0       -2.427593   -0.485940   -1.538769
     95          6           0       -1.934055    0.688967   -1.982951
     96          6           0       -0.574336    0.398286   -2.463404
     97          6           0       -0.365890   -1.074561   -2.418645
     98          6           0       -1.702000   -1.519617   -2.076855
     99          6           0        0.406200    1.473946   -2.830727
    100          6           0        0.833986   -1.940126   -2.658033
    101          8           0        0.731017   -3.209998   -2.798150
    102          6           0        2.120986   -1.247324   -2.816614
    103          7           0       -4.428038   -2.766373   -1.467716
    104          6           0       -3.386487   -3.413153   -2.019792
    105          6           0       -3.684269   -4.884150   -2.186794
    106          6           0       -5.057313   -5.135832   -1.406424
    107          6           0       -5.375590   -3.685865   -0.980166
    108          6           0       -3.820572   -5.375885   -3.627627
    109          6           0       -5.054873   -6.242913   -0.316910
    110          6           0       -4.178638   -5.824726    0.841850
    111          7           0       -6.216633   -1.022131    0.047518
    112          6           0       -7.015991   -2.186095    0.065089
    113          6           0       -8.328111   -1.804693    0.626604
    114          6           0       -8.207878   -0.429504    0.877373
    115          6           0       -6.919218    0.018868    0.480112
    116          6           0       -9.444061   -2.671823    0.796507
    117          6           0       -8.881763    0.746926    1.377953
    118          8           0       -9.960437    0.961541    1.929459
    119          6           0       -8.017587    2.025164    0.996276
    120          6           0       -7.896013    2.886893    2.223141
    121          8           0       -7.272951    2.482298    3.220479
    122          8           0       -8.345044    4.123146    1.939547
    123          6           0       -8.234570    5.017904    3.122343
    124          1           0       -2.165148    2.674529   -2.677470
    125          1           0       -1.537386   -3.539660   -2.641246
    126          1           0       -7.290388   -4.162175   -0.201974
    127          1           0       -6.315153    4.204379   -0.484001
    128          1           0       -3.665752    4.374829   -1.426729
    129          1           0       -6.247715    3.657479   -2.753023
    130          1           0       -4.806482    2.915342   -3.478555
    131          1           0       -4.884285    4.649295   -3.394759
    132          1           0       -3.646486    3.985227    0.928792
    133          1           0       -5.146367    3.727115    1.892592
    134          1           0       -5.437107    6.160183    0.442368
    135          1           0       -3.753784    6.066582    0.819911
    136          1           0       -0.084013    2.451089   -2.921759
    137          1           0        0.759775    1.252043   -3.843451
    138          1           0        1.264627    1.509472   -2.156549
    139          1           0        2.056709   -0.552443   -3.650550
    140          1           0        2.871032   -2.037249   -2.889679
    141          1           0        2.307547   -0.646176   -1.919710
    142          1           0       -2.907649   -5.489565   -1.735769
    143          1           0       -5.862425   -5.446836   -2.088273
    144          1           0       -3.123162   -6.198080   -3.876027
    145          1           0       -3.668686   -4.534909   -4.291116
    146          1           0       -4.816657   -5.714279   -3.907829
    147          1           0       -4.624026   -7.164954   -0.714868
    148          1           0       -6.044762   -6.484553    0.055565
    149          1           0       -3.175287   -6.102414    0.505290
    150          1           0       -4.455242   -6.364180    1.745464
    151          1           0       -4.192826   -4.736534    0.973310
    152          1           0       -9.859424   -2.457182    1.772161
    153          1           0       -9.152851   -3.716456    0.708594
    154          1           0      -10.071043   -2.348768   -0.038827
    155          1           0       -8.533781    2.539126    0.184511
    156          1           0       -9.232590    5.426795    3.307965
    157          1           0       -7.432287    5.739092    2.877474
    158          1           0       -8.012706    4.559197    4.078812
 ---------------------------------------------------------------------

 SCF Done:  E(RCAM-B3LYP) =  -4069.81565840     A.U. after   17 cycles

 Excitation energies and oscillator strengths:

 Excited State   1:      Singlet-A      1.6354 eV  758.15 nm  f=0.2190  <S**2>=0.000
     309 -> 315       -0.11918
     310 -> 316       -0.11345
     311 -> 313        0.49449
     312 -> 314       -0.47848
 This state for optimization and/or second-order correction.
 Total Energy, E(TD-HF/TD-DFT) =  -4069.75556031
 Copying the excited state density for this state as the 1-particle RhoCI density.

 Excited State   2:      Singlet-A      1.7013 eV  728.76 nm  f=0.5461  <S**2>=0.000
     309 -> 315       -0.12770
     310 -> 316        0.12831
     311 -> 313        0.47553
     312 -> 314        0.49203

 Excited State   3:      Singlet-A      2.1855 eV  567.30 nm  f=0.0024  <S**2>=0.000
     309 -> 313       -0.43369
     310 -> 314        0.47653
     311 -> 315       -0.18153
     312 -> 316       -0.20073

 Excited State   4:      Singlet-A      2.1994 eV  563.73 nm  f=0.1676  <S**2>=0.000
     309 -> 313        0.47168
     310 -> 314        0.42896
     311 -> 315        0.20988
     312 -> 316       -0.18832

 Excited State   5:      Singlet-A      2.2543 eV  549.98 nm  f=0.0003  <S**2>=0.000
     312 -> 313        0.70538

 The electronic state is 1-A.
 Alpha  occ. eigenvalues --  -46.88080 -46.87318 -19.26936 -19.26180 -19.19857
 Alpha  occ. eigenvalues --  -19.18972 -19.18969 -19.18565 -19.18422 -19.17735
 Alpha  occ. eigenvalues --  -14.42752 -14.42162 -14.41634 -14.41014 -14.39665
 Alpha  occ. eigenvalues --  -14.38998 -14.38965 -14.38256 -10.39801 -10.38894
 Alpha  occ. eigenvalues --  -10.35594 -10.34969 -10.34803 -10.33923 -10.32271
 Alpha  occ. eigenvalues --  -10.31743 -10.31637 -10.31214 -10.30973 -10.30897
 Alpha  occ. eigenvalues --  -10.30787 -10.30641 -10.30306 -10.30113 -10.30085
 Alpha  occ. eigenvalues --  -10.29974 -10.29926 -10.29764 -10.29622 -10.29457
 Alpha  occ. eigenvalues --  -10.29096 -10.29023 -10.28955 -10.28930 -10.28720
 Alpha  occ. eigenvalues --  -10.28512 -10.28434 -10.28428 -10.28068 -10.28020
 Alpha  occ. eigenvalues --  -10.28002 -10.27850 -10.27823 -10.27753 -10.27659
 Alpha  occ. eigenvalues --  -10.27621 -10.27604 -10.27314 -10.27269 -10.27250
 Alpha  occ. eigenvalues --  -10.27231 -10.27152 -10.27140 -10.27116 -10.26992
 Alpha  occ. eigenvalues --  -10.26776 -10.26504 -10.26484 -10.26478 -10.26149
 Alpha  occ. eigenvalues --  -10.26093 -10.26081 -10.25904 -10.25714 -10.25579
 Alpha  occ. eigenvalues --  -10.25559 -10.25482 -10.25389 -10.25363 -10.25206
 Alpha  occ. eigenvalues --  -10.25183 -10.24992 -10.24503 -10.24498 -10.24369
 Alpha  occ. eigenvalues --  -10.23090  -3.16836  -3.16070  -1.91720  -1.91301
 Alpha  occ. eigenvalues --   -1.91147  -1.90953  -1.90541  -1.90377  -1.17298
 Alpha  occ. eigenvalues --   -1.16469  -1.09056  -1.08362  -1.07391  -1.07360
 Alpha  occ. eigenvalues --   -1.06754  -1.06693  -1.04887  -1.04151  -1.03979
 Alpha  occ. eigenvalues --   -1.03515  -1.03324  -1.02692  -1.02670  -1.01759
 Alpha  occ. eigenvalues --   -0.92332  -0.91656  -0.89584  -0.89433  -0.89183
 Alpha  occ. eigenvalues --   -0.88855  -0.88194  -0.88133  -0.87935  -0.87914
 Alpha  occ. eigenvalues --   -0.87487  -0.87456  -0.87328  -0.86451  -0.85277
 Alpha  occ. eigenvalues --   -0.84690  -0.83851  -0.83610  -0.82994  -0.82773
 Alpha  occ. eigenvalues --   -0.82483  -0.82107  -0.81951  -0.81330  -0.80866
 Alpha  occ. eigenvalues --   -0.80106  -0.79031  -0.78082  -0.77419  -0.77107
 Alpha  occ. eigenvalues --   -0.76738  -0.76632  -0.76195  -0.75460  -0.74851
 Alpha  occ. eigenvalues --   -0.74481  -0.72990  -0.72323  -0.71907  -0.71260
 Alpha  occ. eigenvalues --   -0.69503  -0.69474  -0.69092  -0.68486  -0.67910
 Alpha  occ. eigenvalues --   -0.67509  -0.67263  -0.66836  -0.65607  -0.65177
 Alpha  occ. eigenvalues --   -0.64974  -0.64837  -0.64454  -0.64368  -0.64100
 Alpha  occ. eigenvalues --   -0.63906  -0.62644  -0.62022  -0.60611  -0.60117
 Alpha  occ. eigenvalues --   -0.59829  -0.59471  -0.59231  -0.58759  -0.58667
 Alpha  occ. eigenvalues --   -0.58083  -0.58055  -0.57415  -0.57278  -0.56870
 Alpha  occ. eigenvalues --   -0.56639  -0.56371  -0.55821  -0.55781  -0.55572
 Alpha  occ. eigenvalues --   -0.55510  -0.55061  -0.54961  -0.54565  -0.54243
 Alpha  occ. eigenvalues --   -0.54215  -0.53618  -0.53513  -0.53477  -0.53250
 Alpha  occ. eigenvalues --   -0.52985  -0.52896  -0.52794  -0.52618  -0.52340
 Alpha  occ. eigenvalues --   -0.52142  -0.52015  -0.51934  -0.51878  -0.51575
 Alpha  occ. eigenvalues --   -0.51426  -0.51115  -0.50867  -0.50691  -0.50188
 Alpha  occ. eigenvalues --   -0.49958  -0.49846  -0.49692  -0.49544  -0.49516
 Alpha  occ. eigenvalues --   -0.49345  -0.49328  -0.49057  -0.48958  -0.48814
 Alpha  occ. eigenvalues --   -0.48738  -0.48684  -0.48449  -0.48240  -0.48099
 Alpha  occ. eigenvalues --   -0.47950  -0.47851  -0.47498  -0.47178  -0.46978
 Alpha  occ. eigenvalues --   -0.46814  -0.46630  -0.46506  -0.46373  -0.46265
 Alpha  occ. eigenvalues --   -0.46199  -0.46143  -0.45848  -0.45702  -0.45553
 Alpha  occ. eigenvalues --   -0.45156  -0.44913  -0.44876  -0.44673  -0.44442
 Alpha  occ. eigenvalues --   -0.44285  -0.44214  -0.44150  -0.44052  -0.43822
 Alpha  occ. eigenvalues --   -0.43796  -0.43717  -0.43567  -0.43378  -0.43306
 Alpha  occ. eigenvalues --   -0.43270  -0.43111  -0.43018  -0.42687  -0.42559
 Alpha  occ. eigenvalues --   -0.42527  -0.42227  -0.41955  -0.41893  -0.41684
 Alpha  occ. eigenvalues --   -0.41431  -0.41369  -0.41334  -0.41123  -0.41020
 Alpha  occ. eigenvalues --   -0.40947  -0.40654  -0.40558  -0.40412  -0.40392
 Alpha  occ. eigenvalues --   -0.40227  -0.40172  -0.39833  -0.39158  -0.38925
 Alpha  occ. eigenvalues --   -0.38408  -0.38083  -0.38054  -0.37607  -0.37407
 Alpha  occ. eigenvalues --   -0.37291  -0.37164  -0.36959  -0.36849  -0.36566
 Alpha  occ. eigenvalues --   -0.36250  -0.35941  -0.34601  -0.34442  -0.33922
 Alpha  occ. eigenvalues --   -0.33645  -0.33409  -0.32835  -0.31512  -0.31321
 Alpha  occ. eigenvalues --   -0.30831  -0.30630  -0.30439  -0.29752  -0.29654
 Alpha  occ. eigenvalues --   -0.29628  -0.28920  -0.28811  -0.24371  -0.23698
 Alpha  occ. eigenvalues --   -0.21380  -0.20748
 Alpha virt. eigenvalues --   -0.09056  -0.08406  -0.02000  -0.01361  -0.00320
 Alpha virt. eigenvalues --    0.00350   0.01875   0.02513   0.02570   0.03578
 Alpha virt. eigenvalues --    0.04399   0.04431   0.05028   0.05377   0.05788

 Mulliken charges:
               1
     1  Mg   0.827952
     2  C   -0.008229
     3  C   -0.093647
     4  C   -0.045291
     5  C   -0.052215
     6  N   -0.256634
     7  C   -0.055348
     8  C   -0.013519
     9  C   -0.087180
    10  C    0.047596
    11  C    0.104570
    12  C    0.053124
    13  C   -0.071823
    14  H    0.034301
    15  N   -0.432018
    16  C    0.168791
    17  C   -0.176117
    18  C   -0.002697
    19  C    0.150188
    20  C    0.109813
    21  C    0.013573
    22  O   -0.247553
    23  C    0.061905
    24  N   -0.341957
    25  C    0.046295
    26  C   -0.028343
    27  C   -0.020973
    28  C    0.068543
    29  C    0.076480
    30  C    0.033758
    31  C    0.009354
    32  N   -0.311501
    33  C    0.066900
    34  C   -0.172927
    35  C    0.009155
    36  C    0.076762
    37  C    0.128481
    38  C    0.040755
    39  O   -0.188786
    40  C   -0.004374
    41  C    0.216675
    42  O   -0.261999
    43  O   -0.302674
    44  C    0.157569
    45  H   -0.016841
    46  H   -0.014885
    47  H   -0.038087
    48  H    0.000889
    49  H   -0.003325
    50  H    0.025705
    51  H    0.017196
    52  H    0.017526
    53  H    0.012329
    54  H    0.040557
    55  H    0.018806
    56  H    0.019485
    57  H    0.006225
    58  H    0.027888
    59  H    0.041616
    60  H    0.037345
    61  H    0.037040
    62  H    0.032787
    63  H    0.019412
    64  H    0.007794
    65  H    0.023633
    66  H    0.010960
    67  H    0.005097
    68  H    0.002234
    69  H    0.001489
    70  H   -0.004313
    71  H    0.035425
    72  H    0.020572
    73  H    0.044556
    74  H    0.011630
    75  H    0.046636
    76  H    0.036599
    77  H    0.044705
    78  H    0.047828
    79  H    0.051248
    80  Mg   0.835798
    81  C   -0.016853
    82  C   -0.085518
    83  C   -0.046816
    84  C   -0.065303
    85  N   -0.254217
    86  C   -0.051358
    87  C   -0.014967
    88  C   -0.090212
    89  C    0.044548
    90  C    0.114368
    91  C    0.062537
    92  C   -0.076975
    93  H    0.032228
    94  N   -0.423515
    95  C    0.161067
    96  C   -0.176637
    97  C   -0.004873
    98  C    0.153165
    99  C    0.105535
   100  C    0.021092
   101  O   -0.255365
   102  C    0.048171
   103  N   -0.350221
   104  C    0.038366
   105  C   -0.019858
   106  C   -0.034336
   107  C    0.088219
   108  C    0.073981
   109  C    0.035004
   110  C   -0.007317
   111  N   -0.323623
   112  C    0.077057
   113  C   -0.164424
   114  C    0.001747
   115  C    0.094989
   116  C    0.131764
   117  C    0.041396
   118  O   -0.189913
   119  C    0.001116
   120  C    0.211131
   121  O   -0.251924
   122  O   -0.305484
   123  C    0.152431
   124  H   -0.015976
   125  H   -0.017324
   126  H   -0.041715
   127  H   -0.001481
   128  H   -0.003442
   129  H    0.021731
   130  H    0.015084
   131  H    0.016336
   132  H    0.014039
   133  H    0.036709
   134  H    0.020764
   135  H    0.019303
   136  H    0.013710
   137  H    0.028276
   138  H    0.050434
   139  H    0.042051
   140  H    0.037351
   141  H    0.042896
   142  H    0.013451
   143  H    0.011654
   144  H    0.023574
   145  H    0.011882
   146  H    0.005393
   147  H    0.005169
   148  H    0.003146
   149  H    0.010713
   150  H    0.017354
   151  H    0.030392
   152  H    0.044751
   153  H    0.007662
   154  H    0.045974
   155  H    0.034451
   156  H    0.043362
   157  H    0.049103
   158  H    0.052728
 Sum of Mulliken charges =  -0.00000

 Dipole moment (field-independent basis, Debye):
    X=              4.5444    Y=              3.2039    Z=              1.6143  Tot=              5.7899
 Quadrupole moment (field-independent basis, Debye-Ang):
   XX=           -545.7192   YY=           -465.7580   ZZ=           -513.2260
   XY=              9.8053   XZ=             43.6774   YZ=             27.6438

 Normal termination of Gaussian 16 at Thu Sep  9 14:12:45 2021.
