 Gaussian 16, Revision A.03,
 Gaussian 16:  ES64L-G16RevA.03 25-Dec-2016

 -----------------------------------
 #p cam-b3lyp/Def2SVP td=(nstates=5)
 -----------------------------------

 --------------------------------
 TDDFT excited states in gaussian
 --------------------------------
 Symbolic Z-matrix:
 Charge =  0 Multiplicity = 1

                         Standard orientation:
 ---------------------------------------------------------------------
 Center     Atomic      Atomic             Coordinates (Angstroms)
 Number     Number       Type             X           Y           Z
 ---------------------------------------------------------------------
      1         12           0       -7.894894   -0.651767    0.150698
      2          6           0       -8.035244    2.915276    0.412844
      3          6           0       -8.799562   -0.298163   -3.120327
      4          6           0       -8.220233   -3.803243    0.012955
      5          6           0       -8.120675   -0.768540    3.626478
      6          7           0       -8.331693    1.134216   -1.082232
      7          6           0       -8.291316    2.447142   -0.877863
      8          6           0       -8.472191    3.281151   -2.181353
      9          6           0       -9.252612    2.205476   -3.062185
     10          6           0       -8.738108    0.935781   -2.407139
     11          6           0      -10.767589    2.265035   -2.895456
     12          6           0       -7.102660    3.670304   -2.833023
     13          6           0       -7.177911    4.750372   -3.916140
     14          1           0       -6.087321    5.707167   -4.027966
     15          7           0       -7.951735   -1.867076   -1.405787
     16          6           0       -8.329442   -1.549898   -2.667540
     17          6           0       -8.198991   -2.793558   -3.456828
     18          6           0       -7.896784   -3.903342   -2.510707
     19          6           0       -8.038555   -3.231646   -1.244175
     20          6           0       -8.310260   -2.835937   -4.950003
     21          6           0       -7.547547   -5.343591   -2.715275
     22          8           0       -7.551852   -6.187553   -1.754919
     23          6           0       -7.282854   -5.764681   -4.102957
     24          7           0       -8.356763   -2.095735    1.585713
     25          6           0       -8.376367   -3.396392    1.274438
     26          6           0       -8.448916   -4.251252    2.504840
     27          6           0       -8.229107   -3.265458    3.741629
     28          6           0       -8.145212   -1.928038    2.965395
     29          6           0       -9.755524   -5.032504    2.700881
     30          6           0       -7.087794   -3.618559    4.728109
     31          6           0       -5.749620   -3.467706    4.039900
     32          7           0       -7.873300    0.791935    1.771286
     33          6           0       -8.003676    0.523358    3.141520
     34          6           0       -8.038782    1.823972    3.835233
     35          6           0       -7.942438    2.765268    2.812236
     36          6           0       -7.879259    2.095654    1.556880
     37          6           0       -8.205852    2.017693    5.234874
     38          6           0       -7.902979    4.181516    2.485826
     39          8           0       -7.829231    5.221059    3.142640
     40          6           0       -8.084237    4.338114    0.911517
     41          6           0       -7.026382    5.290632    0.424731
     42          8           0       -5.818439    4.979697    0.464216
     43          8           0       -7.610335    6.309628   -0.224259
     44          6           0       -6.614403    7.276411   -0.758678
     45          1           0       -9.305254   -0.324147   -4.087561
     46          1           0       -8.226251   -4.895190    0.020398
     47          1           0       -8.104538   -0.728062    4.717145
     48          1           0       -9.079575    4.179017   -2.065830
     49          1           0       -8.951239    2.240778   -4.108918
     50          1           0      -11.054086    2.952304   -2.099528
     51          1           0      -11.073459    1.248132   -2.648788
     52          1           0      -11.252500    2.502338   -3.842728
     53          1           0       -6.738110    2.834208   -3.429771
     54          1           0       -6.384916    3.974083   -2.070207
     55          1           0       -8.138349    5.266277   -3.898514
     56          1           0       -7.151430    4.260394   -4.889495
     57          1           0       -8.699866   -1.900349   -5.349288
     58          1           0       -9.075129   -3.573754   -5.191477
     59          1           0       -7.368740   -3.113857   -5.423957
     60          1           0       -8.162658   -5.562849   -4.714316
     61          1           0       -6.962615   -6.804407   -4.045803
     62          1           0       -6.478863   -5.151323   -4.510805
     63          1           0       -7.662351   -5.004737    2.504444
     64          1           0       -9.115150   -3.197904    4.373324
     65          1           0       -9.612166   -6.109360    2.793272
     66          1           0      -10.417652   -4.796135    1.868411
     67          1           0      -10.355643   -4.713168    3.552527
     68          1           0       -7.169514   -4.657304    5.046349
     69          1           0       -7.084962   -2.996656    5.623363
     70          1           0       -5.634176   -4.418630    3.521007
     71          1           0       -4.957342   -3.325736    4.775666
     72          1           0       -5.777696   -2.684366    3.282222
     73          1           0       -7.491302    2.788433    5.523572
     74          1           0       -8.035250    1.093013    5.785751
     75          1           0       -9.246488    2.339564    5.271380
     76          1           0       -9.089699    4.724968    0.748689
     77          1           0       -6.874034    8.257542   -0.360927
     78          1           0       -6.613655    7.153585   -1.841877
     79          1           0       -5.593202    7.169073   -0.391302
     80         12           0        7.983956   -0.913714   -0.027930
     81          6           0        8.155215    2.661306    0.234732
     82          6           0        6.794028   -0.474687   -3.194299
     83          6           0        7.396635   -4.030040   -0.132716
     84          6           0        8.082850   -1.035337    3.453619
     85          7           0        7.572067    0.906807   -1.214654
     86          6           0        7.733758    2.208802   -1.032963
     87          6           0        7.503654    3.069112   -2.304369
     88          6           0        6.548624    2.059111   -3.108541
     89          6           0        7.019177    0.740167   -2.498932
     90          6           0        5.074874    2.236762   -2.783234
     91          6           0        8.834879    3.346865   -3.087118
     92          6           0        8.734686    4.431788   -4.161666
     93          1           0        9.888475    5.298499   -4.385392
     94          7           0        7.680152   -2.111820   -1.580601
     95          6           0        7.214401   -1.763433   -2.798374
     96          6           0        7.153035   -3.009866   -3.577352
     97          6           0        7.464126   -4.146675   -2.668710
     98          6           0        7.506216   -3.460537   -1.392964
     99          6           0        6.902163   -3.033055   -5.057194
    100          6           0        7.674621   -5.611338   -2.906746
    101          8           0        7.698511   -6.453841   -1.941110
    102          6           0        7.758576   -6.042061   -4.309924
    103          7           0        7.557099   -2.318339    1.444202
    104          6           0        7.396057   -3.616904    1.134809
    105          6           0        7.372655   -4.474838    2.377306
    106          6           0        7.795551   -3.505383    3.576834
    107          6           0        7.908625   -2.175541    2.799583
    108          6           0        6.033477   -5.134947    2.704777
    109          6           0        8.996784   -3.953440    4.453743
    110          6           0       10.270603   -3.919489    3.640330
    111          7           0        8.282874    0.509165    1.570243
    112          6           0        8.260086    0.250183    2.958223
    113          6           0        8.398054    1.550302    3.646017
    114          6           0        8.468972    2.485298    2.602339
    115          6           0        8.361090    1.817230    1.352718
    116          6           0        8.394888    1.750342    5.055310
    117          6           0        8.599892    3.886595    2.273839
    118          8           0        8.813471    4.913365    2.917155
    119          6           0        8.275515    4.076031    0.729402
    120          6           0        9.352896    4.938311    0.130866
    121          8           0       10.526116    4.530751    0.067166
    122          8           0        8.785452    6.005051   -0.461117
    123          6           0        9.813089    6.884755   -1.079094
    124          1           0        6.202822   -0.446453   -4.110032
    125          1           0        7.304015   -5.118396   -0.113567
    126          1           0        8.220668   -0.998612    4.536354
    127          1           0        6.990622    4.007497   -2.131162
    128          1           0        6.757736    2.082394   -4.174888
    129          1           0        4.922264    2.935430   -1.974090
    130          1           0        4.713868    1.254421   -2.508031
    131          1           0        4.521636    2.519922   -3.683274
    132          1           0        9.067328    2.478940   -3.717525
    133          1           0        9.633113    3.581486   -2.410059
    134          1           0        7.819748    5.028217   -4.061172
    135          1           0        8.633035    3.947121   -5.135727
    136          1           0        6.545370   -2.061206   -5.419973
    137          1           0        6.060216   -3.712577   -5.228180
    138          1           0        7.764466   -3.388893   -5.625081
    139          1           0        6.844986   -5.762003   -4.828938
    140          1           0        7.999381   -7.106338   -4.275009
    141          1           0        8.575882   -5.496767   -4.794972
    142          1           0        8.093751   -5.279763    2.305101
    143          1           0        6.979861   -3.376353    4.303366
    144          1           0        6.097896   -6.236534    2.784988
    145          1           0        5.317753   -4.850213    1.945040
    146          1           0        5.555216   -4.781652    3.616733
    147          1           0        8.863409   -4.988274    4.778512
    148          1           0        9.128969   -3.350418    5.345870
    149          1           0       10.251651   -4.877423    3.112049
    150          1           0       11.139130   -3.845030    4.291607
    151          1           0       10.234273   -3.125780    2.885113
    152          1           0        9.186380    2.455548    5.271453
    153          1           0        8.538746    0.813843    5.590125
    154          1           0        7.387100    2.151131    5.193139
    155          1           0        7.291408    4.540476    0.655910
    156          1           0        9.670321    7.885768   -0.660430
    157          1           0        9.684045    6.772761   -2.172048
    158          1           0       10.850430    6.696544   -0.828185
 ---------------------------------------------------------------------

 SCF Done:  E(RCAM-B3LYP) =  -4069.81169470     A.U. after   19 cycles

 Excitation energies and oscillator strengths:

 Excited State   1:      Singlet-A      1.6698 eV  742.49 nm  f=0.0190  <S**2>=0.000
     309 -> 315       -0.10384
     310 -> 316        0.13766
     311 -> 313       -0.41182
     312 -> 314        0.54909
 This state for optimization and/or second-order correction.
 Total Energy, E(TD-HF/TD-DFT) =  -4069.75032902
 Copying the excited state density for this state as the 1-particle RhoCI density.

 Excited State   2:      Singlet-A      1.6852 eV  735.75 nm  f=0.7381  <S**2>=0.000
     309 -> 315        0.14158
     310 -> 316        0.10557
     311 -> 313        0.54826
     312 -> 314        0.41128

 Excited State   3:      Singlet-A      2.1853 eV  567.35 nm  f=0.0577  <S**2>=0.000
     309 -> 313       -0.13910
     310 -> 314        0.62756
     312 -> 316       -0.26609

 Excited State   4:      Singlet-A      2.1929 eV  565.39 nm  f=0.1356  <S**2>=0.000
     309 -> 313        0.62553
     310 -> 314        0.13801
     311 -> 315       -0.27200

 Excited State   5:      Singlet-A      2.7621 eV  448.88 nm  f=0.0000  <S**2>=0.000
     312 -> 313        0.70710

 The electronic state is 1-A.
 Alpha  occ. eigenvalues --  -46.87847 -46.87589 -19.26333 -19.26278 -19.19091
 Alpha  occ. eigenvalues --  -19.19070 -19.18865 -19.18659 -19.18212 -19.17973
 Alpha  occ. eigenvalues --  -14.42502 -14.42426 -14.41498 -14.41288 -14.39454
 Alpha  occ. eigenvalues --  -14.39283 -14.38635 -14.38527 -10.39129 -10.39019
 Alpha  occ. eigenvalues --  -10.35499 -10.35338 -10.34432 -10.34149 -10.31729
 Alpha  occ. eigenvalues --  -10.31691 -10.31456 -10.31234 -10.30963 -10.30955
 Alpha  occ. eigenvalues --  -10.30619 -10.30555 -10.30326 -10.30288 -10.30255
 Alpha  occ. eigenvalues --  -10.30075 -10.29965 -10.29821 -10.29679 -10.29369
 Alpha  occ. eigenvalues --  -10.29333 -10.29304 -10.28810 -10.28648 -10.28620
 Alpha  occ. eigenvalues --  -10.28604 -10.28415 -10.28334 -10.28174 -10.28065
 Alpha  occ. eigenvalues --  -10.27930 -10.27840 -10.27779 -10.27634 -10.27600
 Alpha  occ. eigenvalues --  -10.27543 -10.27541 -10.27488 -10.27454 -10.27452
 Alpha  occ. eigenvalues --  -10.27422 -10.27412 -10.27400 -10.27308 -10.27205
 Alpha  occ. eigenvalues --  -10.26970 -10.26780 -10.26634 -10.26467 -10.26375
 Alpha  occ. eigenvalues --  -10.26286 -10.26221 -10.26080 -10.26066 -10.25930
 Alpha  occ. eigenvalues --  -10.25877 -10.25864 -10.25768 -10.25470 -10.25326
 Alpha  occ. eigenvalues --  -10.24880 -10.24835 -10.24800 -10.24726 -10.24677
 Alpha  occ. eigenvalues --  -10.24620  -3.16590  -3.16339  -1.91472  -1.91221
 Alpha  occ. eigenvalues --   -1.91058  -1.90900  -1.90810  -1.90647  -1.16682
 Alpha  occ. eigenvalues --   -1.16572  -1.08669  -1.08579  -1.07266  -1.06912
 Alpha  occ. eigenvalues --   -1.06875  -1.06692  -1.04633  -1.04424  -1.03809
 Alpha  occ. eigenvalues --   -1.03593  -1.03283  -1.02968  -1.02460  -1.02040
 Alpha  occ. eigenvalues --   -0.92021  -0.91913  -0.89564  -0.89427  -0.89247
 Alpha  occ. eigenvalues --   -0.89079  -0.88330  -0.88153  -0.87914  -0.87726
 Alpha  occ. eigenvalues --   -0.87719  -0.87615  -0.87327  -0.87063  -0.85040
 Alpha  occ. eigenvalues --   -0.84931  -0.83978  -0.83810  -0.83019  -0.82878
 Alpha  occ. eigenvalues --   -0.82703  -0.82587  -0.81635  -0.81526  -0.80647
 Alpha  occ. eigenvalues --   -0.80375  -0.78848  -0.78572  -0.77269  -0.77077
 Alpha  occ. eigenvalues --   -0.76987  -0.76830  -0.75975  -0.75766  -0.74942
 Alpha  occ. eigenvalues --   -0.74734  -0.72822  -0.72628  -0.71720  -0.71508
 Alpha  occ. eigenvalues --   -0.69949  -0.69694  -0.68928  -0.68760  -0.67690
 Alpha  occ. eigenvalues --   -0.67534  -0.67282  -0.67140  -0.65342  -0.65202
 Alpha  occ. eigenvalues --   -0.64902  -0.64701  -0.64671  -0.64585  -0.64314
 Alpha  occ. eigenvalues --   -0.64137  -0.62346  -0.62209  -0.60492  -0.60278
 Alpha  occ. eigenvalues --   -0.59859  -0.59725  -0.59035  -0.58922  -0.58552
 Alpha  occ. eigenvalues --   -0.58356  -0.57632  -0.57479  -0.57355  -0.57169
 Alpha  occ. eigenvalues --   -0.56359  -0.56136  -0.56030  -0.55819  -0.55571
 Alpha  occ. eigenvalues --   -0.55389  -0.55383  -0.55179  -0.54569  -0.54420
 Alpha  occ. eigenvalues --   -0.53954  -0.53842  -0.53348  -0.53276  -0.53162
 Alpha  occ. eigenvalues --   -0.53076  -0.52965  -0.52835  -0.52812  -0.52612
 Alpha  occ. eigenvalues --   -0.52479  -0.52340  -0.51955  -0.51806  -0.51675
 Alpha  occ. eigenvalues --   -0.51595  -0.51243  -0.51131  -0.50629  -0.50424
 Alpha  occ. eigenvalues --   -0.50077  -0.49971  -0.49914  -0.49803  -0.49569
 Alpha  occ. eigenvalues --   -0.49424  -0.49264  -0.49149  -0.49133  -0.49030
 Alpha  occ. eigenvalues --   -0.48641  -0.48507  -0.48493  -0.48487  -0.48307
 Alpha  occ. eigenvalues --   -0.48279  -0.47746  -0.47530  -0.47346  -0.47055
 Alpha  occ. eigenvalues --   -0.46846  -0.46641  -0.46614  -0.46487  -0.46407
 Alpha  occ. eigenvalues --   -0.46207  -0.46204  -0.46014  -0.45867  -0.45748
 Alpha  occ. eigenvalues --   -0.45245  -0.45140  -0.44624  -0.44560  -0.44444
 Alpha  occ. eigenvalues --   -0.44409  -0.44192  -0.44143  -0.44069  -0.44056
 Alpha  occ. eigenvalues --   -0.44015  -0.43876  -0.43542  -0.43484  -0.43438
 Alpha  occ. eigenvalues --   -0.43316  -0.43075  -0.42861  -0.42829  -0.42746
 Alpha  occ. eigenvalues --   -0.42699  -0.42490  -0.42057  -0.41900  -0.41752
 Alpha  occ. eigenvalues --   -0.41596  -0.41591  -0.41393  -0.41191  -0.40924
 Alpha  occ. eigenvalues --   -0.40917  -0.40877  -0.40664  -0.40635  -0.40616
 Alpha  occ. eigenvalues --   -0.40426  -0.40302  -0.40167  -0.39483  -0.39363
 Alpha  occ. eigenvalues --   -0.38515  -0.38283  -0.37812  -0.37592  -0.37367
 Alpha  occ. eigenvalues --   -0.37321  -0.37198  -0.37131  -0.36761  -0.36702
 Alpha  occ. eigenvalues --   -0.36241  -0.36148  -0.34335  -0.34182  -0.33820
 Alpha  occ. eigenvalues --   -0.33792  -0.33235  -0.33105  -0.31394  -0.31217
 Alpha  occ. eigenvalues --   -0.31085  -0.30902  -0.30071  -0.29877  -0.29499
 Alpha  occ. eigenvalues --   -0.29369  -0.29261  -0.29138  -0.24130  -0.23964
 Alpha  occ. eigenvalues --   -0.21177  -0.21047
 Alpha virt. eigenvalues --   -0.08823  -0.08722  -0.01799  -0.01614  -0.00109
 Alpha virt. eigenvalues --    0.00035   0.02155   0.02282   0.03063   0.03290
 Alpha virt. eigenvalues --    0.04662   0.04800   0.05049   0.05237   0.06111

 Mulliken charges:
               1
     1  Mg   0.838608
     2  C   -0.003049
     3  C   -0.094326
     4  C   -0.045815
     5  C   -0.063891
     6  N   -0.256769
     7  C   -0.052519
     8  C   -0.013979
     9  C   -0.086972
    10  C    0.046241
    11  C    0.104805
    12  C    0.053552
    13  C   -0.071648
    14  H    0.035746
    15  N   -0.433141
    16  C    0.168333
    17  C   -0.177300
    18  C   -0.004028
    19  C    0.148665
    20  C    0.110208
    21  C    0.012252
    22  O   -0.249468
    23  C    0.062527
    24  N   -0.341147
    25  C    0.041218
    26  C   -0.028191
    27  C   -0.024017
    28  C    0.074871
    29  C    0.076128
    30  C    0.035101
    31  C   -0.004514
    32  N   -0.310501
    33  C    0.080438
    34  C   -0.169576
    35  C    0.008442
    36  C    0.082970
    37  C    0.127280
    38  C    0.046208
    39  O   -0.188157
    40  C   -0.005350
    41  C    0.212938
    42  O   -0.257217
    43  O   -0.304759
    44  C    0.157658
    45  H   -0.017658
    46  H   -0.016741
    47  H   -0.041334
    48  H    0.001044
    49  H   -0.004235
    50  H    0.025566
    51  H    0.016530
    52  H    0.016649
    53  H    0.010878
    54  H    0.044043
    55  H    0.018097
    56  H    0.017734
    57  H    0.005766
    58  H    0.026906
    59  H    0.039166
    60  H    0.037364
    61  H    0.035756
    62  H    0.031161
    63  H    0.016616
    64  H    0.009571
    65  H    0.023311
    66  H    0.012551
    67  H    0.004839
    68  H    0.006477
    69  H    0.004818
    70  H    0.008838
    71  H    0.018161
    72  H    0.028867
    73  H    0.047774
    74  H    0.009198
    75  H    0.046122
    76  H    0.035237
    77  H    0.043181
    78  H    0.046200
    79  H    0.053694
    80  Mg   0.837990
    81  C   -0.016789
    82  C   -0.087788
    83  C   -0.045508
    84  C   -0.064717
    85  N   -0.254569
    86  C   -0.049599
    87  C   -0.015117
    88  C   -0.090568
    89  C    0.045843
    90  C    0.114380
    91  C    0.062555
    92  C   -0.077759
    93  H    0.034661
    94  N   -0.423480
    95  C    0.162905
    96  C   -0.174746
    97  C   -0.007910
    98  C    0.152107
    99  C    0.099455
   100  C    0.015492
   101  O   -0.253250
   102  C    0.061249
   103  N   -0.350020
   104  C    0.037581
   105  C   -0.019860
   106  C   -0.034807
   107  C    0.088968
   108  C    0.073619
   109  C    0.034711
   110  C   -0.007634
   111  N   -0.324170
   112  C    0.078555
   113  C   -0.162962
   114  C    0.002425
   115  C    0.096238
   116  C    0.131441
   117  C    0.042593
   118  O   -0.187650
   119  C    0.000819
   120  C    0.211213
   121  O   -0.251196
   122  O   -0.305472
   123  C    0.152094
   124  H   -0.019914
   125  H   -0.015661
   126  H   -0.040419
   127  H   -0.000401
   128  H   -0.004696
   129  H    0.023185
   130  H    0.014657
   131  H    0.015990
   132  H    0.013764
   133  H    0.037639
   134  H    0.020876
   135  H    0.019351
   136  H    0.008537
   137  H    0.025852
   138  H    0.039533
   139  H    0.038080
   140  H    0.036235
   141  H    0.033773
   142  H    0.014244
   143  H    0.012574
   144  H    0.024980
   145  H    0.011875
   146  H    0.005764
   147  H    0.006166
   148  H    0.003658
   149  H    0.010850
   150  H    0.017815
   151  H    0.030121
   152  H    0.045930
   153  H    0.008397
   154  H    0.047538
   155  H    0.035622
   156  H    0.043972
   157  H    0.049346
   158  H    0.053445
 Sum of Mulliken charges =  -0.00000

 Dipole moment (field-independent basis, Debye):
    X=             -4.6044    Y=             -2.0380    Z=             -7.4118  Tot=              8.9604
 Quadrupole moment (field-independent basis, Debye-Ang):
   XX=           -525.2671   YY=           -549.5392   ZZ=           -448.7063
   XY=             -7.6740   XZ=              3.5888   YZ=            -49.4867

 Normal termination of Gaussian 16 at Sun Sep 12 08:16:33 2021.
