 Gaussian 16, Revision A.03,
 Gaussian 16:  ES64L-G16RevA.03 25-Dec-2016

 -----------------------------------
 #p cam-b3lyp/Def2SVP td=(nstates=5)
 -----------------------------------

 --------------------------------
 TDDFT excited states in gaussian
 --------------------------------
 Symbolic Z-matrix:
 Charge =  0 Multiplicity = 1

                         Standard orientation:
 ---------------------------------------------------------------------
 Center     Atomic      Atomic             Coordinates (Angstroms)
 Number     Number       Type             X           Y           Z
 ---------------------------------------------------------------------
      1         12           0        5.047695   -1.305180    0.082692
      2          6           0        6.051623    1.937240   -1.053554
      3          6           0        6.250724   -0.437143    3.155524
      4          6           0        4.587734   -4.308536    0.990937
      5          6           0        4.980195   -2.292918   -3.258786
      6          7           0        6.004979    0.544964    0.831837
      7          6           0        6.277654    1.736832    0.310041
      8          6           0        6.756075    2.778443    1.365282
      9          6           0        7.307037    1.776377    2.476274
     10          6           0        6.445843    0.566210    2.160414
     11          6           0        8.772603    1.399888    2.284244
     12          6           0        5.578425    3.651821    1.914902
     13          6           0        5.999818    4.899293    2.696948
     14          1           0        5.192982    6.104606    2.580403
     15          7           0        4.914985   -2.090979    1.890386
     16          6           0        5.451787   -1.594294    3.030753
     17          6           0        5.074539   -2.539022    4.103998
     18          6           0        4.436683   -3.723144    3.464398
     19          6           0        4.647302   -3.429581    2.069823
     20          6           0        5.281629   -2.255383    5.560161
     21          6           0        3.756076   -4.933152    4.021879
     22          8           0        3.479331   -5.951182    3.299659
     23          6           0        3.498058   -4.931558    5.473246
     24          7           0        5.028479   -3.115769   -0.956072
     25          6           0        4.746684   -4.265543   -0.333500
     26          6           0        4.513205   -5.375174   -1.315409
     27          6           0        4.455003   -4.686648   -2.754957
     28          6           0        4.764107   -3.229264   -2.332163
     29          6           0        5.566127   -6.491978   -1.326061
     30          6           0        3.192142   -4.953992   -3.611771
     31          6           0        1.988165   -4.303305   -2.968232
     32          7           0        5.266552   -0.329745   -1.843878
     33          6           0        5.224507   -0.938282   -3.106648
     34          6           0        5.530906    0.107058   -4.100355
     35          6           0        5.747613    1.254891   -3.340512
     36          6           0        5.612586    0.940257   -1.958099
     37          6           0        5.637181   -0.084976   -5.506151
     38          6           0        6.086056    2.668477   -3.373515
     39          8           0        6.225082    3.506252   -4.265871
     40          6           0        6.416243    3.139448   -1.888594
     41          6           0        5.667623    4.420705   -1.641095
     42          8           0        4.420790    4.433497   -1.590007
     43          8           0        6.533047    5.376642   -1.269923
     44          6           0        5.851294    6.666433   -0.980433
     45          1           0        6.803988   -0.364502    4.093907
     46          1           0        4.321243   -5.334496    1.253284
     47          1           0        4.894204   -2.508074   -4.325448
     48          1           0        7.557568    3.434538    1.025321
     49          1           0        7.102020    2.134494    3.484957
     50          1           0        9.161589    1.781498    1.340324
     51          1           0        8.796708    0.310011    2.293137
     52          1           0        9.369850    1.719787    3.138491
     53          1           0        5.062325    3.104096    2.703381
     54          1           0        4.904598    3.942561    1.108209
     55          1           0        7.054427    5.129187    2.542486
     56          1           0        5.924128    4.676860    3.761370
     57          1           0        5.920184   -1.386049    5.711990
     58          1           0        5.854477   -3.087804    5.968365
     59          1           0        4.338190   -2.159672    6.097836
     60          1           0        4.443045   -4.826533    6.006648
     61          1           0        2.925820   -5.835715    5.677926
     62          1           0        2.904368   -4.052399    5.725360
     63          1           0        3.566110   -5.876732   -1.120789
     64          1           0        5.280873   -5.002191   -3.392958
     65          1           0        5.152867   -7.485098   -1.148197
     66          1           0        6.325812   -6.245997   -0.584668
     67          1           0        6.162305   -6.549437   -2.236384
     68          1           0        2.989064   -6.023068   -3.664504
     69          1           0        3.278120   -4.581984   -4.632784
     70          1           0        1.678311   -5.041544   -2.229432
     71          1           0        1.204085   -4.138391   -3.707984
     72          1           0        2.266138   -3.398253   -2.427771
     73          1           0        5.117636    0.754087   -5.968767
     74          1           0        5.201651   -1.036653   -5.809843
     75          1           0        6.719555   -0.062055   -5.631831
     76          1           0        7.495531    3.279367   -1.836803
     77          1           0        6.316850    7.424139   -1.610809
     78          1           0        5.899933    6.807086    0.099500
     79          1           0        4.811275    6.744127   -1.299282
     80         12           0       -5.213877    1.302308    0.339077
     81          6           0       -5.894618   -2.134134   -0.439733
     82          6           0       -4.290698    1.702662   -2.920072
     83          6           0       -4.180658    4.206270    1.092009
     84          6           0       -5.088051    0.372219    3.695392
     85          7           0       -5.145712   -0.108057   -1.363418
     86          6           0       -5.486621   -1.373482   -1.555261
     87          6           0       -5.461358   -1.828556   -3.039121
     88          6           0       -4.416986   -0.747532   -3.604411
     89          6           0       -4.651087    0.371382   -2.591551
     90          6           0       -2.968933   -1.195370   -3.495216
     91          6           0       -6.862850   -1.689612   -3.730874
     92          6           0       -6.987338   -2.400698   -5.080179
     93          1           0       -8.267491   -3.009784   -5.430457
     94          7           0       -4.828905    2.868415   -0.817502
     95          6           0       -4.492320    2.851760   -2.124290
     96          6           0       -4.293930    4.258398   -2.506610
     97          6           0       -4.379794    5.094820   -1.278695
     98          6           0       -4.447221    4.064344   -0.262004
     99          6           0       -4.130178    4.698808   -3.932313
    100          6           0       -4.385687    6.576814   -1.055420
    101          8           0       -4.228032    7.082544    0.111707
    102          6           0       -4.487895    7.420169   -2.255339
    103          7           0       -4.498408    2.129925    2.106988
    104          6           0       -4.166191    3.430975    2.176460
    105          6           0       -3.943227    3.861413    3.606638
    106          6           0       -4.432904    2.633215    4.506261
    107          6           0       -4.786527    1.626673    3.389461
    108          6           0       -2.504370    4.220993    3.976496
    109          6           0       -5.501051    2.937982    5.592003
    110          6           0       -6.811718    3.309519    4.936646
    111          7           0       -5.624468   -0.490576    1.472680
    112          6           0       -5.481853   -0.670139    2.866053
    113          6           0       -5.769192   -2.090411    3.153658
    114          6           0       -6.038682   -2.648171    1.894788
    115          6           0       -5.907421   -1.650785    0.891039
    116          6           0       -5.712358   -2.707727    4.434992
    117          6           0       -6.393969   -3.856292    1.185632
    118          8           0       -6.718271   -4.995486    1.518498
    119          6           0       -6.192820   -3.606201   -0.371093
    120          6           0       -7.419004   -4.106674   -1.084192
    121          8           0       -8.520988   -3.557997   -0.907571
    122          8           0       -7.051007   -5.004564   -2.016250
    123          6           0       -8.231803   -5.521723   -2.757929
    124          1           0       -3.765220    1.881345   -3.858598
    125          1           0       -3.927595    5.217361    1.419294
    126          1           0       -5.165632    0.025689    4.728140
    127          1           0       -5.082983   -2.830829   -3.200503
    128          1           0       -4.689827   -0.420023   -4.604244
    129          1           0       -2.873529   -2.119941   -2.945485
    130          1           0       -2.451423   -0.395195   -2.982446
    131          1           0       -2.517602   -1.257635   -4.489580
    132          1           0       -7.001577   -0.649577   -4.053098
    133          1           0       -7.645575   -2.018722   -3.075395
    134          1           0       -6.166034   -3.107232   -5.251077
    135          1           0       -6.873015   -1.659503   -5.874897
    136          1           0       -3.942643    3.846875   -4.597481
    137          1           0       -3.208810    5.289227   -3.980782
    138          1           0       -4.962584    5.313478   -4.281536
    139          1           0       -3.657827    7.200820   -2.922689
    140          1           0       -4.566636    8.444719   -1.886582
    141          1           0       -5.403867    7.152745   -2.793940
    142          1           0       -4.540732    4.732511    3.845943
    143          1           0       -3.603708    2.190403    5.077385
    144          1           0       -2.400807    5.245357    4.381498
    145          1           0       -1.884572    4.094662    3.098762
    146          1           0       -2.030458    3.551470    4.692283
    147          1           0       -5.197598    3.800697    6.190163
    148          1           0       -5.667822    2.113599    6.277261
    149          1           0       -6.682940    4.372680    4.712585
    150          1           0       -7.641746    3.148205    5.621524
    151          1           0       -6.937469    2.784467    3.982625
    152          1           0       -6.585041   -3.342322    4.513823
    153          1           0       -5.684729   -1.967606    5.232011
    154          1           0       -4.768335   -3.252168    4.347490
    155          1           0       -5.294030   -4.143705   -0.675796
    156          1           0       -8.213734   -6.612176   -2.666990
    157          1           0       -8.152405   -5.099896   -3.777498
    158          1           0       -9.213403   -5.292537   -2.359966
 ---------------------------------------------------------------------

 SCF Done:  E(RCAM-B3LYP) =  -4069.81183837     A.U. after   19 cycles

 Excitation energies and oscillator strengths:

 Excited State   1:      Singlet-A      1.6598 eV  747.00 nm  f=0.0571  <S**2>=0.000
     309 -> 315        0.11348
     310 -> 316        0.12635
     311 -> 313        0.45714
     312 -> 314        0.51272
 This state for optimization and/or second-order correction.
 Total Energy, E(TD-HF/TD-DFT) =  -4069.75084335
 Copying the excited state density for this state as the 1-particle RhoCI density.

 Excited State   2:      Singlet-A      1.6946 eV  731.63 nm  f=0.6561  <S**2>=0.000
     309 -> 315        0.13385
     310 -> 316       -0.11890
     311 -> 313        0.51108
     312 -> 314       -0.45579

 Excited State   3:      Singlet-A      2.1853 eV  567.35 nm  f=0.0344  <S**2>=0.000
     309 -> 313        0.27882
     310 -> 314        0.57990
     311 -> 315       -0.11699
     312 -> 316       -0.24497

 Excited State   4:      Singlet-A      2.1945 eV  564.99 nm  f=0.1518  <S**2>=0.000
     309 -> 313        0.57699
     310 -> 314       -0.27623
     311 -> 315       -0.25228
     312 -> 316        0.12148

 Excited State   5:      Singlet-A      2.4832 eV  499.28 nm  f=0.0000  <S**2>=0.000
     312 -> 313        0.70709

 The electronic state is 1-A.
 Alpha  occ. eigenvalues --  -46.87882 -46.87492 -19.26354 -19.26234 -19.19101
 Alpha  occ. eigenvalues --  -19.19036 -19.18859 -19.18525 -19.18269 -19.17890
 Alpha  occ. eigenvalues --  -14.42531 -14.42327 -14.41536 -14.41199 -14.39484
 Alpha  occ. eigenvalues --  -14.39175 -14.38679 -14.38434 -10.39160 -10.38964
 Alpha  occ. eigenvalues --  -10.35490 -10.35200 -10.34488 -10.34070 -10.31733
 Alpha  occ. eigenvalues --  -10.31658 -10.31494 -10.31142 -10.30979 -10.30842
 Alpha  occ. eigenvalues --  -10.30664 -10.30596 -10.30290 -10.30235 -10.30192
 Alpha  occ. eigenvalues --  -10.30013 -10.29978 -10.29751 -10.29718 -10.29336
 Alpha  occ. eigenvalues --  -10.29254 -10.29229 -10.28810 -10.28570 -10.28562
 Alpha  occ. eigenvalues --  -10.28538 -10.28446 -10.28225 -10.28184 -10.27970
 Alpha  occ. eigenvalues --  -10.27883 -10.27824 -10.27810 -10.27665 -10.27602
 Alpha  occ. eigenvalues --  -10.27548 -10.27533 -10.27485 -10.27483 -10.27418
 Alpha  occ. eigenvalues --  -10.27317 -10.27283 -10.27270 -10.27243 -10.27206
 Alpha  occ. eigenvalues --  -10.26898 -10.26753 -10.26554 -10.26432 -10.26321
 Alpha  occ. eigenvalues --  -10.26297 -10.26202 -10.26116 -10.26068 -10.25984
 Alpha  occ. eigenvalues --  -10.25832 -10.25783 -10.25728 -10.25501 -10.25305
 Alpha  occ. eigenvalues --  -10.24926 -10.24868 -10.24857 -10.24701 -10.24656
 Alpha  occ. eigenvalues --  -10.24526  -3.16625  -3.16242  -1.91506  -1.91124
 Alpha  occ. eigenvalues --   -1.91093  -1.90935  -1.90713  -1.90549  -1.16705
 Alpha  occ. eigenvalues --   -1.16525  -1.08728  -1.08502  -1.07256  -1.06821
 Alpha  occ. eigenvalues --   -1.06777  -1.06723  -1.04662  -1.04324  -1.03845
 Alpha  occ. eigenvalues --   -1.03496  -1.03321  -1.02875  -1.02498  -1.01945
 Alpha  occ. eigenvalues --   -0.92058  -0.91824  -0.89620  -0.89359  -0.89255
 Alpha  occ. eigenvalues --   -0.88989  -0.88381  -0.88096  -0.87976  -0.87753
 Alpha  occ. eigenvalues --   -0.87639  -0.87519  -0.87343  -0.86916  -0.85050
 Alpha  occ. eigenvalues --   -0.84841  -0.84038  -0.83762  -0.83030  -0.82751
 Alpha  occ. eigenvalues --   -0.82715  -0.82485  -0.81665  -0.81457  -0.80673
 Alpha  occ. eigenvalues --   -0.80287  -0.78878  -0.78450  -0.77306  -0.77009
 Alpha  occ. eigenvalues --   -0.76987  -0.76761  -0.75999  -0.75678  -0.74983
 Alpha  occ. eigenvalues --   -0.74673  -0.72866  -0.72538  -0.71751  -0.71427
 Alpha  occ. eigenvalues --   -0.70021  -0.69651  -0.68944  -0.68667  -0.67720
 Alpha  occ. eigenvalues --   -0.67441  -0.67277  -0.67038  -0.65360  -0.65117
 Alpha  occ. eigenvalues --   -0.64939  -0.64701  -0.64618  -0.64506  -0.64364
 Alpha  occ. eigenvalues --   -0.64073  -0.62377  -0.62144  -0.60517  -0.60162
 Alpha  occ. eigenvalues --   -0.59878  -0.59632  -0.59073  -0.58837  -0.58589
 Alpha  occ. eigenvalues --   -0.58270  -0.57671  -0.57408  -0.57393  -0.57086
 Alpha  occ. eigenvalues --   -0.56396  -0.56048  -0.56039  -0.55745  -0.55591
 Alpha  occ. eigenvalues --   -0.55433  -0.55284  -0.55125  -0.54614  -0.54369
 Alpha  occ. eigenvalues --   -0.53961  -0.53753  -0.53381  -0.53287  -0.53073
 Alpha  occ. eigenvalues --   -0.52996  -0.52977  -0.52816  -0.52752  -0.52559
 Alpha  occ. eigenvalues --   -0.52467  -0.52300  -0.52033  -0.51746  -0.51681
 Alpha  occ. eigenvalues --   -0.51491  -0.51288  -0.51055  -0.50630  -0.50274
 Alpha  occ. eigenvalues --   -0.50127  -0.49982  -0.49811  -0.49721  -0.49580
 Alpha  occ. eigenvalues --   -0.49314  -0.49297  -0.49169  -0.49031  -0.48949
 Alpha  occ. eigenvalues --   -0.48675  -0.48546  -0.48506  -0.48405  -0.48249
 Alpha  occ. eigenvalues --   -0.48155  -0.47770  -0.47430  -0.47371  -0.46946
 Alpha  occ. eigenvalues --   -0.46888  -0.46620  -0.46562  -0.46448  -0.46396
 Alpha  occ. eigenvalues --   -0.46253  -0.46108  -0.45948  -0.45915  -0.45687
 Alpha  occ. eigenvalues --   -0.45288  -0.45075  -0.44670  -0.44576  -0.44369
 Alpha  occ. eigenvalues --   -0.44318  -0.44236  -0.44160  -0.44091  -0.43973
 Alpha  occ. eigenvalues --   -0.43928  -0.43761  -0.43580  -0.43462  -0.43423
 Alpha  occ. eigenvalues --   -0.43233  -0.43113  -0.42796  -0.42786  -0.42757
 Alpha  occ. eigenvalues --   -0.42748  -0.42416  -0.42108  -0.41836  -0.41790
 Alpha  occ. eigenvalues --   -0.41602  -0.41515  -0.41312  -0.41217  -0.40948
 Alpha  occ. eigenvalues --   -0.40871  -0.40832  -0.40662  -0.40570  -0.40529
 Alpha  occ. eigenvalues --   -0.40366  -0.40285  -0.40075  -0.39561  -0.39322
 Alpha  occ. eigenvalues --   -0.38556  -0.38226  -0.37809  -0.37509  -0.37410
 Alpha  occ. eigenvalues --   -0.37333  -0.37127  -0.37035  -0.36795  -0.36649
 Alpha  occ. eigenvalues --   -0.36276  -0.36082  -0.34373  -0.34092  -0.33852
 Alpha  occ. eigenvalues --   -0.33728  -0.33273  -0.33010  -0.31389  -0.31116
 Alpha  occ. eigenvalues --   -0.31088  -0.30807  -0.30129  -0.29799  -0.29530
 Alpha  occ. eigenvalues --   -0.29415  -0.29141  -0.29040  -0.24166  -0.23868
 Alpha  occ. eigenvalues --   -0.21215  -0.20947
 Alpha virt. eigenvalues --   -0.08858  -0.08615  -0.01831  -0.01518  -0.00126
 Alpha virt. eigenvalues --    0.00159   0.02106   0.02365   0.03017   0.03381
 Alpha virt. eigenvalues --    0.04645   0.04890   0.05017   0.05296   0.06128

 Mulliken charges:
               1
     1  Mg   0.838671
     2  C   -0.002849
     3  C   -0.094098
     4  C   -0.045691
     5  C   -0.064414
     6  N   -0.256801
     7  C   -0.052458
     8  C   -0.014013
     9  C   -0.087030
    10  C    0.046489
    11  C    0.104766
    12  C    0.053456
    13  C   -0.072189
    14  H    0.037061
    15  N   -0.433246
    16  C    0.168647
    17  C   -0.177009
    18  C   -0.003652
    19  C    0.148884
    20  C    0.110163
    21  C    0.012678
    22  O   -0.248776
    23  C    0.062334
    24  N   -0.341087
    25  C    0.041206
    26  C   -0.028406
    27  C   -0.023821
    28  C    0.074632
    29  C    0.076022
    30  C    0.035233
    31  C   -0.004683
    32  N   -0.310268
    33  C    0.080000
    34  C   -0.170718
    35  C    0.008129
    36  C    0.082596
    37  C    0.127558
    38  C    0.045582
    39  O   -0.189018
    40  C   -0.005079
    41  C    0.212684
    42  O   -0.257322
    43  O   -0.304747
    44  C    0.157663
    45  H   -0.017326
    46  H   -0.016294
    47  H   -0.042115
    48  H    0.001007
    49  H   -0.003875
    50  H    0.025525
    51  H    0.016465
    52  H    0.016889
    53  H    0.011066
    54  H    0.044305
    55  H    0.017841
    56  H    0.017908
    57  H    0.005951
    58  H    0.027226
    59  H    0.039617
    60  H    0.037311
    61  H    0.036612
    62  H    0.031322
    63  H    0.017046
    64  H    0.009537
    65  H    0.023770
    66  H    0.012731
    67  H    0.004756
    68  H    0.006878
    69  H    0.003960
    70  H    0.010030
    71  H    0.015860
    72  H    0.028957
    73  H    0.046415
    74  H    0.008475
    75  H    0.046289
    76  H    0.035293
    77  H    0.042866
    78  H    0.046854
    79  H    0.053757
    80  Mg   0.838022
    81  C   -0.016715
    82  C   -0.086890
    83  C   -0.044632
    84  C   -0.065363
    85  N   -0.254507
    86  C   -0.050036
    87  C   -0.015053
    88  C   -0.090513
    89  C    0.045490
    90  C    0.113762
    91  C    0.062575
    92  C   -0.077619
    93  H    0.034370
    94  N   -0.423880
    95  C    0.162909
    96  C   -0.172441
    97  C   -0.007234
    98  C    0.152653
    99  C    0.098468
   100  C    0.016256
   101  O   -0.253601
   102  C    0.060947
   103  N   -0.349938
   104  C    0.037684
   105  C   -0.019844
   106  C   -0.034462
   107  C    0.088741
   108  C    0.073619
   109  C    0.034932
   110  C   -0.007551
   111  N   -0.323964
   112  C    0.078155
   113  C   -0.163617
   114  C    0.002270
   115  C    0.095872
   116  C    0.131446
   117  C    0.042281
   118  O   -0.188416
   119  C    0.000906
   120  C    0.211168
   121  O   -0.251211
   122  O   -0.305631
   123  C    0.152140
   124  H   -0.017965
   125  H   -0.015686
   126  H   -0.041503
   127  H   -0.001142
   128  H   -0.004388
   129  H    0.022189
   130  H    0.016553
   131  H    0.015905
   132  H    0.013948
   133  H    0.037479
   134  H    0.020377
   135  H    0.019649
   136  H    0.009281
   137  H    0.029197
   138  H    0.039238
   139  H    0.039897
   140  H    0.035829
   141  H    0.033404
   142  H    0.014055
   143  H    0.011192
   144  H    0.024341
   145  H    0.013582
   146  H    0.004083
   147  H    0.005474
   148  H    0.003055
   149  H    0.010819
   150  H    0.017493
   151  H    0.030574
   152  H    0.045598
   153  H    0.007659
   154  H    0.046783
   155  H    0.035110
   156  H    0.043614
   157  H    0.049359
   158  H    0.053410
 Sum of Mulliken charges =  -0.00000

 Dipole moment (field-independent basis, Debye):
    X=              4.5164    Y=              0.9945    Z=              0.6416  Tot=              4.6689
 Quadrupole moment (field-independent basis, Debye-Ang):
   XX=           -524.0089   YY=           -540.2374   ZZ=           -455.4552
   XY=            -19.0176   XZ=             51.9008   YZ=             34.4607

 Normal termination of Gaussian 16 at Fri Sep 10 11:44:53 2021.
