 Gaussian 16, Revision A.03,
 Gaussian 16:  ES64L-G16RevA.03 25-Dec-2016

 -----------------------------------
 #p cam-b3lyp/Def2SVP td=(nstates=5)
 -----------------------------------

 --------------------------------
 TDDFT excited states in gaussian
 --------------------------------
 Symbolic Z-matrix:
 Charge =  0 Multiplicity = 1

                         Standard orientation:
 ---------------------------------------------------------------------
 Center     Atomic      Atomic             Coordinates (Angstroms)
 Number     Number       Type             X           Y           Z
 ---------------------------------------------------------------------
      1         12           0       -7.840445    0.635217    0.463133
      2          6           0       -8.210018   -2.055468   -1.868356
      3          6           0       -8.557724   -1.605223    2.934773
      4          6           0       -7.967461    3.073417    2.486910
      5          6           0       -8.276366    2.821002   -2.216042
      6          7           0       -8.305085   -1.528652    0.413909
      7          6           0       -8.356190   -2.455070   -0.538094
      8          6           0       -8.504515   -3.903415    0.016586
      9          6           0       -9.162435   -3.565866    1.429101
     10          6           0       -8.615017   -2.162768    1.622945
     11          6           0      -10.685731   -3.497881    1.391040
     12          6           0       -7.122539   -4.620038    0.184885
     13          6           0       -7.194172   -6.133506    0.407686
     14          1           0       -6.157888   -6.976163   -0.169716
     15          7           0       -7.726786    0.670699    2.435105
     16          6           0       -8.042913   -0.337657    3.282789
     17          6           0       -7.789083    0.179947    4.644530
     18          6           0       -7.480980    1.632477    4.529099
     19          6           0       -7.741812    1.858933    3.130506
     20          6           0       -7.803760   -0.683015    5.868797
     21          6           0       -7.034099    2.656560    5.523928
     22          8           0       -7.048145    3.908378    5.264451
     23          6           0       -6.658197    2.155796    6.858459
     24          7           0       -8.304219    2.656452    0.224051
     25          6           0       -8.226448    3.508568    1.252075
     26          6           0       -8.324764    4.932179    0.789900
     27          6           0       -8.242294    4.886159   -0.804099
     28          6           0       -8.190015    3.350033   -0.993447
     29          6           0       -9.592032    5.687419    1.213758
     30          6           0       -7.146022    5.749962   -1.476744
     31          6           0       -5.778744    5.202063   -1.134028
     32          7           0       -8.006897    0.456176   -1.693550
     33          6           0       -8.206651    1.496073   -2.612999
     34          6           0       -8.362906    0.874528   -3.940905
     35          6           0       -8.259061   -0.493652   -3.697707
     36          6           0       -8.077351   -0.714256   -2.302498
     37          6           0       -8.628707    1.563145   -5.157289
     38          6           0       -8.283974   -1.821797   -4.288695
     39          8           0       -8.313859   -2.258058   -5.440336
     40          6           0       -8.375187   -2.891808   -3.112863
     41          6           0       -7.347745   -3.956206   -3.386229
     42          8           0       -6.128228   -3.696253   -3.335553
     43          8           0       -7.949739   -5.154674   -3.428884
     44          6           0       -6.981853   -6.258488   -3.667517
     45          1           0       -8.999303   -2.161018    3.764256
     46          1           0       -7.908624    3.950321    3.134996
     47          1           0       -8.331108    3.444390   -3.110382
     48          1           0       -9.170552   -4.545123   -0.560502
     49          1           0       -8.798665   -4.226582    2.215769
     50          1           0      -11.062164   -3.565411    0.370423
     51          1           0      -10.945108   -2.534040    1.829476
     52          1           0      -11.123605   -4.252224    2.045265
     53          1           0       -6.671938   -4.314618    1.129204
     54          1           0       -6.473499   -4.411249   -0.666279
     55          1           0       -8.182954   -6.525366    0.167551
     56          1           0       -7.077449   -6.327666    1.473931
     57          1           0       -8.222809   -1.666647    5.660440
     58          1           0       -8.506486   -0.231053    6.568521
     59          1           0       -6.819439   -0.755511    6.331602
     60          1           0       -7.508421    1.635787    7.300341
     61          1           0       -6.280570    3.017580    7.407619
     62          1           0       -5.868333    1.412391    6.747044
     63          1           0       -7.496073    5.525963    1.173459
     64          1           0       -9.168659    5.221018   -1.271423
     65          1           0       -9.390610    6.601842    1.772296
     66          1           0      -10.213598    5.004651    1.792354
     67          1           0      -10.262398    5.950510    0.395950
     68          1           0       -7.185274    6.772030   -1.101535
     69          1           0       -7.236534    5.791463   -2.562256
     70          1           0       -5.574328    5.648555   -0.161562
     71          1           0       -5.044077    5.523102   -1.873223
     72          1           0       -5.806043    4.120886   -0.996919
     73          1           0       -7.981040    1.113788   -5.910001
     74          1           0       -8.437997    2.631436   -5.057358
     75          1           0       -9.686966    1.338463   -5.289436
     76          1           0       -9.389790   -3.288633   -3.128156
     77          1           0       -7.324124   -6.800508   -4.549162
     78          1           0       -6.905833   -6.811767   -2.731296
     79          1           0       -5.981113   -5.962123   -3.983784
     80         12           0        8.006264    0.585549   -0.601884
     81          6           0        7.930660   -2.339681    1.475711
     82          6           0        7.322620    2.409410    2.198247
     83          6           0        7.620507    3.122012   -2.468697
     84          6           0        7.546056   -1.518341   -3.341879
     85          7           0        7.690172   -0.002959    1.506672
     86          6           0        7.746536   -1.136831    2.188945
     87          6           0        7.677448   -0.964277    3.730049
     88          6           0        6.923977    0.452995    3.779789
     89          6           0        7.363132    1.010875    2.427535
     90          6           0        5.409331    0.329778    3.776523
     91          6           0        9.100153   -0.881814    4.386652
     92          6           0        9.114445   -1.023628    5.910275
     93          1           0       10.238477   -1.716142    6.534338
     94          7           0        8.026324    2.520237   -0.160132
     95          6           0        7.745271    3.085510    1.032663
     96          6           0        7.881459    4.536526    0.832308
     97          6           0        8.104749    4.791034   -0.616859
     98          6           0        7.900653    3.460152   -1.152741
     99          6           0        7.875556    5.518790    1.967447
    100          6           0        8.433353    6.029985   -1.393535
    101          8           0        8.347868    6.065792   -2.671917
    102          6           0        8.767880    7.226803   -0.607919
    103          7           0        7.426313    0.800229   -2.586806
    104          6           0        7.391108    2.011431   -3.169631
    105          6           0        7.215003    1.892460   -4.664693
    106          6           0        7.382431    0.336582   -4.994545
    107          6           0        7.544813   -0.210332   -3.559300
    108          6           0        5.879861    2.389106   -5.218867
    109          6           0        8.448930   -0.046861   -6.056721
    110          6           0        9.833802    0.249811   -5.528043
    111          7           0        7.961331   -1.548909   -0.933724
    112          6           0        7.728447   -2.217466   -2.155561
    113          6           0        7.679499   -3.663680   -1.858070
    114          6           0        7.865820   -3.735270   -0.469318
    115          6           0        7.999845   -2.424910    0.064081
    116          6           0        7.436580   -4.699686   -2.803481
    117          6           0        7.968977   -4.620784    0.668192
    118          8           0        8.017144   -5.841075    0.817541
    119          6           0        7.889151   -3.749915    1.995444
    120          6           0        8.998917   -4.192851    2.909076
    121          8           0       10.188048   -4.013535    2.592168
    122          8           0        8.475682   -4.554567    4.094716
    123          6           0        9.538630   -4.991343    5.038755
    124          1           0        6.887061    3.048738    2.966656
    125          1           0        7.587562    3.956373   -3.173130
    126          1           0        7.504213   -2.245427   -4.155676
    127          1           0        7.091002   -1.715451    4.245413
    128          1           0        7.301560    1.072887    4.588814
    129          1           0        5.088371   -0.689587    3.621541
    130          1           0        5.064499    0.961962    2.968760
    131          1           0        4.994262    0.758644    4.693116
    132          1           0        9.480338    0.143276    4.289786
    133          1           0        9.763514   -1.603090    3.950363
    134          1           0        8.163139   -1.408488    6.297371
    135          1           0        9.199589   -0.027248    6.350742
    136          1           0        7.528040    5.055044    2.898886
    137          1           0        7.112168    6.269673    1.736588
    138          1           0        8.837204    6.020287    2.095513
    139          1           0        7.936191    7.472150    0.048269
    140          1           0        9.059504    7.983837   -1.338482
    141          1           0        9.620928    6.993491    0.038988
    142          1           0        7.982520    2.447605   -5.189880
    143          1           0        6.453771   -0.097663   -5.393117
    144          1           0        5.992481    3.172226   -5.992243
    145          1           0        5.281873    2.752700   -4.393793
    146          1           0        5.240909    1.617427   -5.644830
    147          1           0        8.323271    0.560960   -6.956119
    148          1           0        8.400482   -1.086918   -6.361554
    149          1           0        9.954854    1.316715   -5.738160
    150          1           0       10.579640   -0.343081   -6.053629
    151          1           0        9.875678    0.121267   -4.440213
    152          1           0        8.141497   -5.491105   -2.586094
    153          1           0        7.544438   -4.339535   -3.824466
    154          1           0        6.398788   -4.944619   -2.562082
    155          1           0        6.905359   -3.914557    2.436613
    156          1           0        9.273607   -5.998711    5.374396
    157          1           0        9.595027   -4.201553    5.811294
    158          1           0       10.530505   -5.157106    4.634830
 ---------------------------------------------------------------------

 SCF Done:  E(RCAM-B3LYP) =  -4069.81181243     A.U. after   19 cycles

 Excitation energies and oscillator strengths:

 Excited State   1:      Singlet-A      1.6745 eV  740.43 nm  f=0.3257  <S**2>=0.000
     310 -> 316        0.16273
     311 -> 313       -0.23667
     312 -> 314        0.64394
 This state for optimization and/or second-order correction.
 Total Energy, E(TD-HF/TD-DFT) =  -4069.75027571
 Copying the excited state density for this state as the 1-particle RhoCI density.

 Excited State   2:      Singlet-A      1.6801 eV  737.96 nm  f=0.4230  <S**2>=0.000
     309 -> 315        0.16466
     311 -> 313        0.64355
     312 -> 314        0.23663

 Excited State   3:      Singlet-A      2.1859 eV  567.21 nm  f=0.1005  <S**2>=0.000
     310 -> 314        0.64229
     312 -> 316       -0.27296

 Excited State   4:      Singlet-A      2.1921 eV  565.59 nm  f=0.0990  <S**2>=0.000
     309 -> 313        0.64053
     311 -> 315       -0.27785

 Excited State   5:      Singlet-A      2.7657 eV  448.29 nm  f=0.0000  <S**2>=0.000
     312 -> 313        0.70710

 The electronic state is 1-A.
 Alpha  occ. eigenvalues --  -46.87835 -46.87593 -19.26326 -19.26292 -19.19129
 Alpha  occ. eigenvalues --  -19.19034 -19.18874 -19.18652 -19.18200 -19.17998
 Alpha  occ. eigenvalues --  -14.42485 -14.42433 -14.41488 -14.41287 -14.39443
 Alpha  occ. eigenvalues --  -14.39285 -14.38624 -14.38533 -10.39094 -10.39058
 Alpha  occ. eigenvalues --  -10.35508 -10.35330 -10.34419 -10.34176 -10.31745
 Alpha  occ. eigenvalues --  -10.31676 -10.31436 -10.31247 -10.30965 -10.30943
 Alpha  occ. eigenvalues --  -10.30605 -10.30547 -10.30329 -10.30295 -10.30249
 Alpha  occ. eigenvalues --  -10.30065 -10.29959 -10.29819 -10.29671 -10.29367
 Alpha  occ. eigenvalues --  -10.29335 -10.29296 -10.28768 -10.28676 -10.28635
 Alpha  occ. eigenvalues --  -10.28533 -10.28402 -10.28342 -10.28138 -10.28092
 Alpha  occ. eigenvalues --  -10.27936 -10.27831 -10.27762 -10.27627 -10.27605
 Alpha  occ. eigenvalues --  -10.27544 -10.27527 -10.27494 -10.27438 -10.27425
 Alpha  occ. eigenvalues --  -10.27421 -10.27408 -10.27401 -10.27284 -10.27183
 Alpha  occ. eigenvalues --  -10.27003 -10.26714 -10.26660 -10.26484 -10.26360
 Alpha  occ. eigenvalues --  -10.26254 -10.26230 -10.26058 -10.26051 -10.25977
 Alpha  occ. eigenvalues --  -10.25876 -10.25860 -10.25774 -10.25479 -10.25284
 Alpha  occ. eigenvalues --  -10.24870 -10.24828 -10.24808 -10.24739 -10.24655
 Alpha  occ. eigenvalues --  -10.24619  -3.16578  -3.16342  -1.91459  -1.91225
 Alpha  occ. eigenvalues --   -1.91046  -1.90888  -1.90813  -1.90650  -1.16642
 Alpha  occ. eigenvalues --   -1.16618  -1.08656  -1.08608  -1.07276  -1.06914
 Alpha  occ. eigenvalues --   -1.06904  -1.06656  -1.04615  -1.04433  -1.03799
 Alpha  occ. eigenvalues --   -1.03596  -1.03273  -1.02968  -1.02449  -1.02043
 Alpha  occ. eigenvalues --   -0.92005  -0.91927  -0.89560  -0.89420  -0.89209
 Alpha  occ. eigenvalues --   -0.89102  -0.88328  -0.88140  -0.87906  -0.87726
 Alpha  occ. eigenvalues --   -0.87706  -0.87620  -0.87321  -0.87058  -0.85008
 Alpha  occ. eigenvalues --   -0.84948  -0.83977  -0.83797  -0.83022  -0.82867
 Alpha  occ. eigenvalues --   -0.82679  -0.82599  -0.81609  -0.81549  -0.80629
 Alpha  occ. eigenvalues --   -0.80388  -0.78839  -0.78571  -0.77253  -0.77085
 Alpha  occ. eigenvalues --   -0.76958  -0.76843  -0.75948  -0.75788  -0.74935
 Alpha  occ. eigenvalues --   -0.74725  -0.72811  -0.72632  -0.71705  -0.71514
 Alpha  occ. eigenvalues --   -0.69950  -0.69677  -0.68902  -0.68774  -0.67679
 Alpha  occ. eigenvalues --   -0.67540  -0.67247  -0.67152  -0.65311  -0.65221
 Alpha  occ. eigenvalues --   -0.64886  -0.64708  -0.64651  -0.64599  -0.64309
 Alpha  occ. eigenvalues --   -0.64129  -0.62319  -0.62231  -0.60488  -0.60272
 Alpha  occ. eigenvalues --   -0.59832  -0.59743  -0.59022  -0.58927  -0.58539
 Alpha  occ. eigenvalues --   -0.58363  -0.57611  -0.57505  -0.57347  -0.57168
 Alpha  occ. eigenvalues --   -0.56346  -0.56143  -0.55996  -0.55845  -0.55561
 Alpha  occ. eigenvalues --   -0.55399  -0.55374  -0.55180  -0.54552  -0.54426
 Alpha  occ. eigenvalues --   -0.53917  -0.53864  -0.53340  -0.53255  -0.53164
 Alpha  occ. eigenvalues --   -0.53088  -0.52945  -0.52850  -0.52798  -0.52613
 Alpha  occ. eigenvalues --   -0.52482  -0.52324  -0.51949  -0.51814  -0.51645
 Alpha  occ. eigenvalues --   -0.51610  -0.51227  -0.51142  -0.50627  -0.50414
 Alpha  occ. eigenvalues --   -0.50073  -0.49962  -0.49921  -0.49789  -0.49549
 Alpha  occ. eigenvalues --   -0.49432  -0.49249  -0.49148  -0.49121  -0.49051
 Alpha  occ. eigenvalues --   -0.48620  -0.48507  -0.48506  -0.48484  -0.48301
 Alpha  occ. eigenvalues --   -0.48279  -0.47730  -0.47536  -0.47335  -0.47052
 Alpha  occ. eigenvalues --   -0.46832  -0.46644  -0.46579  -0.46502  -0.46396
 Alpha  occ. eigenvalues --   -0.46204  -0.46196  -0.46016  -0.45847  -0.45767
 Alpha  occ. eigenvalues --   -0.45241  -0.45129  -0.44608  -0.44547  -0.44460
 Alpha  occ. eigenvalues --   -0.44420  -0.44185  -0.44115  -0.44072  -0.44054
 Alpha  occ. eigenvalues --   -0.44012  -0.43885  -0.43520  -0.43505  -0.43417
 Alpha  occ. eigenvalues --   -0.43327  -0.43060  -0.42888  -0.42840  -0.42729
 Alpha  occ. eigenvalues --   -0.42682  -0.42479  -0.42044  -0.41900  -0.41738
 Alpha  occ. eigenvalues --   -0.41609  -0.41558  -0.41404  -0.41173  -0.40926
 Alpha  occ. eigenvalues --   -0.40901  -0.40871  -0.40667  -0.40643  -0.40608
 Alpha  occ. eigenvalues --   -0.40418  -0.40251  -0.40186  -0.39485  -0.39345
 Alpha  occ. eigenvalues --   -0.38506  -0.38274  -0.37767  -0.37609  -0.37359
 Alpha  occ. eigenvalues --   -0.37289  -0.37194  -0.37144  -0.36735  -0.36730
 Alpha  occ. eigenvalues --   -0.36221  -0.36152  -0.34322  -0.34188  -0.33824
 Alpha  occ. eigenvalues --   -0.33789  -0.33222  -0.33109  -0.31403  -0.31211
 Alpha  occ. eigenvalues --   -0.31072  -0.30908  -0.30058  -0.29904  -0.29492
 Alpha  occ. eigenvalues --   -0.29359  -0.29262  -0.29146  -0.24117  -0.23969
 Alpha  occ. eigenvalues --   -0.21165  -0.21050
 Alpha virt. eigenvalues --   -0.08814  -0.08726  -0.01790  -0.01615  -0.00102
 Alpha virt. eigenvalues --    0.00032   0.02164   0.02270   0.03076   0.03288
 Alpha virt. eigenvalues --    0.04690   0.04789   0.05081   0.05201   0.06167

 Mulliken charges:
               1
     1  Mg   0.838652
     2  C   -0.002916
     3  C   -0.094045
     4  C   -0.046020
     5  C   -0.064000
     6  N   -0.256798
     7  C   -0.052387
     8  C   -0.013984
     9  C   -0.087005
    10  C    0.046308
    11  C    0.104792
    12  C    0.053441
    13  C   -0.072036
    14  H    0.036683
    15  N   -0.433126
    16  C    0.168325
    17  C   -0.177193
    18  C   -0.004183
    19  C    0.148683
    20  C    0.110158
    21  C    0.012055
    22  O   -0.249854
    23  C    0.062592
    24  N   -0.341140
    25  C    0.041240
    26  C   -0.028134
    27  C   -0.023988
    28  C    0.074861
    29  C    0.076168
    30  C    0.035143
    31  C   -0.004494
    32  N   -0.310504
    33  C    0.080464
    34  C   -0.169691
    35  C    0.008413
    36  C    0.082995
    37  C    0.127308
    38  C    0.046142
    39  O   -0.188263
    40  C   -0.005325
    41  C    0.212902
    42  O   -0.257104
    43  O   -0.304789
    44  C    0.157619
    45  H   -0.017522
    46  H   -0.017004
    47  H   -0.041444
    48  H    0.001056
    49  H   -0.003911
    50  H    0.025517
    51  H    0.016379
    52  H    0.016775
    53  H    0.011156
    54  H    0.044157
    55  H    0.017893
    56  H    0.018028
    57  H    0.006042
    58  H    0.026812
    59  H    0.039303
    60  H    0.037525
    61  H    0.035271
    62  H    0.031198
    63  H    0.016330
    64  H    0.009545
    65  H    0.023100
    66  H    0.012599
    67  H    0.004832
    68  H    0.006335
    69  H    0.004861
    70  H    0.008505
    71  H    0.018231
    72  H    0.028961
    73  H    0.047614
    74  H    0.009130
    75  H    0.046108
    76  H    0.035259
    77  H    0.043046
    78  H    0.046576
    79  H    0.053773
    80  Mg   0.838032
    81  C   -0.016921
    82  C   -0.087858
    83  C   -0.045427
    84  C   -0.064411
    85  N   -0.254554
    86  C   -0.049816
    87  C   -0.015105
    88  C   -0.090524
    89  C    0.045781
    90  C    0.114375
    91  C    0.062573
    92  C   -0.077747
    93  H    0.034647
    94  N   -0.423524
    95  C    0.162934
    96  C   -0.174613
    97  C   -0.007796
    98  C    0.152166
    99  C    0.099357
   100  C    0.015541
   101  O   -0.253150
   102  C    0.061219
   103  N   -0.350012
   104  C    0.037684
   105  C   -0.019961
   106  C   -0.034872
   107  C    0.088888
   108  C    0.073437
   109  C    0.034686
   110  C   -0.007651
   111  N   -0.324134
   112  C    0.078420
   113  C   -0.162940
   114  C    0.002187
   115  C    0.096255
   116  C    0.131476
   117  C    0.042382
   118  O   -0.188176
   119  C    0.000899
   120  C    0.211203
   121  O   -0.251039
   122  O   -0.305702
   123  C    0.152097
   124  H   -0.019719
   125  H   -0.015492
   126  H   -0.040177
   127  H   -0.000926
   128  H   -0.004512
   129  H    0.022358
   130  H    0.014846
   131  H    0.015974
   132  H    0.013946
   133  H    0.037640
   134  H    0.020550
   135  H    0.019546
   136  H    0.008683
   137  H    0.026213
   138  H    0.039633
   139  H    0.038269
   140  H    0.036302
   141  H    0.033786
   142  H    0.014259
   143  H    0.013103
   144  H    0.025048
   145  H    0.011865
   146  H    0.006483
   147  H    0.006398
   148  H    0.003758
   149  H    0.010859
   150  H    0.017802
   151  H    0.029942
   152  H    0.045758
   153  H    0.008674
   154  H    0.047352
   155  H    0.034867
   156  H    0.043651
   157  H    0.049393
   158  H    0.053562
 Sum of Mulliken charges =  -0.00000

 Dipole moment (field-independent basis, Debye):
    X=             -3.6148    Y=              1.8869    Z=              6.3048  Tot=              7.5085
 Quadrupole moment (field-independent basis, Debye-Ang):
   XX=           -518.7170   YY=           -511.8083   ZZ=           -487.0713
   XY=             41.6578   XZ=            -10.8049   YZ=            -11.6210

 Normal termination of Gaussian 16 at Sat Sep  4 14:43:40 2021.
