 Gaussian 16, Revision A.03,
 Gaussian 16:  ES64L-G16RevA.03 25-Dec-2016

 -----------------------------------
 #p cam-b3lyp/Def2SVP td=(nstates=5)
 -----------------------------------

 --------------------------------
 TDDFT excited states in gaussian
 --------------------------------
 Symbolic Z-matrix:
 Charge =  0 Multiplicity = 1

                         Standard orientation:
 ---------------------------------------------------------------------
 Center     Atomic      Atomic             Coordinates (Angstroms)
 Number     Number       Type             X           Y           Z
 ---------------------------------------------------------------------
      1         12           0        5.289154    0.543507    1.196454
      2          6           0        5.998456   -2.390950   -0.726581
      3          6           0        6.740841    2.353225   -1.305664
      4          6           0        5.084860    3.093816    3.070170
      5          6           0        4.945732   -1.537154    3.971084
      6          7           0        6.213878   -0.056665   -0.723266
      7          6           0        6.368584   -1.207809   -1.369875
      8          6           0        6.891616   -1.032521   -2.826956
      9          6           0        7.603180    0.385601   -2.670094
     10          6           0        6.781979    0.943644   -1.521121
     11          6           0        9.060886    0.290621   -2.231263
     12          6           0        5.728329   -0.977146   -3.873582
     13          6           0        6.156542   -1.135403   -5.335410
     14          1           0        5.277902   -1.849934   -6.249076
     15          7           0        5.378461    2.467295    0.756097
     16          6           0        5.997491    3.025780   -0.311697
     17          6           0        5.779918    4.483562   -0.192469
     18          6           0        5.147248    4.742478    1.130703
     19          6           0        5.202873    3.430809    1.723836
     20          6           0        6.114088    5.457091   -1.280734
     21          6           0        4.591717    5.978426    1.764700
     22          8           0        4.300683    6.032914    3.008446
     23          6           0        4.478580    7.166562    0.899498
     24          7           0        5.265776    0.784018    3.269916
     25          6           0        5.109674    1.991897    3.822768
     26          6           0        4.840958    1.888023    5.294821
     27          6           0        4.603591    0.337284    5.592514
     28          6           0        4.873359   -0.219534    4.172849
     29          6           0        5.946751    2.421136    6.216246
     30          6           0        3.278677   -0.048798    6.296760
     31          6           0        2.110594    0.216051    5.373432
     32          7           0        5.263412   -1.596876    1.555814
     33          6           0        5.129972   -2.242453    2.793594
     34          6           0        5.279539   -3.688126    2.545147
     35          6           0        5.507588   -3.782454    1.173673
     36          6           0        5.527016   -2.476512    0.605843
     37          6           0        5.256739   -4.710467    3.534457
     38          6           0        5.763875   -4.681072    0.059824
     39          8           0        5.768412   -5.904503   -0.084011
     40          6           0        6.213027   -3.808884   -1.194520
     41          6           0        5.424059   -4.283722   -2.384213
     42          8           0        4.189519   -4.111160   -2.443357
     43          8           0        6.268728   -4.647950   -3.361154
     44          6           0        5.549884   -5.101726   -4.581606
     45          1           0        7.379303    2.998711   -1.912009
     46          1           0        4.901671    3.938927    3.737004
     47          1           0        4.766636   -2.253258    4.775181
     48          1           0        7.618813   -1.781110   -3.141954
     49          1           0        7.479636    1.003473   -3.559304
     50          1           0        9.333465   -0.732683   -1.973440
     51          1           0        9.144885    0.938384   -1.358429
     52          1           0        9.721320    0.717978   -2.986226
     53          1           0        5.323115    0.034150   -3.907401
     54          1           0        4.963348   -1.718389   -3.639724
     55          1           0        7.176699   -1.512390   -5.413319
     56          1           0        6.198523   -0.144724   -5.788172
     57          1           0        6.716374    4.993978   -2.061326
     58          1           0        6.768788    6.210802   -0.843704
     59          1           0        5.224558    5.935806   -1.690491
     60          1           0        5.464520    7.425424    0.512897
     61          1           0        3.979285    7.927825    1.497858
     62          1           0        3.865840    6.915462    0.033214
     63          1           0        3.946344    2.445464    5.569321
     64          1           0        5.378328   -0.078737    6.237016
     65          1           0        5.607603    3.195717    6.904510
     66          1           0        6.761456    2.783764    5.590109
     67          1           0        6.452355    1.660726    6.810854
     68          1           0        3.129724    0.562797    7.185978
     69          1           0        3.243085   -1.094218    6.603488
     70          1           0        1.915749    1.277053    5.525557
     71          1           0        1.249505   -0.385088    5.667315
     72          1           0        2.391034    0.082813    4.328402
     73          1           0        4.649268   -5.517553    3.125114
     74          1           0        4.845659   -4.342829    4.474381
     75          1           0        6.318564   -4.945372    3.606593
     76          1           0        7.282958   -3.970632   -1.321824
     77          1           0        5.909090   -6.104935   -4.811342
     78          1           0        5.697222   -4.326862   -5.334123
     79          1           0        4.480786   -5.286312   -4.470718
     80         12           0       -5.013953    0.366742   -1.202700
     81          6           0       -6.906499   -1.675451    1.061532
     82          6           0       -7.148063    2.918617   -0.448999
     83          6           0       -3.652342    2.056806   -3.517248
     84          6           0       -3.782280   -2.575275   -2.607421
     85          7           0       -6.762166    0.483764    0.147220
     86          6           0       -7.350460   -0.337935    1.003407
     87          6           0       -8.424786    0.331004    1.902230
     88          6           0       -8.794435    1.571852    0.952213
     89          6           0       -7.477467    1.695972    0.188750
     90          6           0       -9.897124    1.258446   -0.045375
     91          6           0       -7.838988    0.813564    3.275546
     92          6           0       -8.887047    1.194207    4.323612
     93          1           0       -8.605562    0.903881    5.726806
     94          7           0       -5.020579    2.322621   -1.538973
     95          6           0       -5.952982    3.213513   -1.141217
     96          6           0       -5.508863    4.517857   -1.656572
     97          6           0       -4.324710    4.298296   -2.530797
     98          6           0       -4.298708    2.850218   -2.580627
     99          6           0       -6.144194    5.814322   -1.245529
    100          6           0       -3.380613    5.236530   -3.219710
    101          8           0       -2.566038    4.829983   -4.121948
    102          6           0       -3.502503    6.660287   -2.873959
    103          7           0       -4.047125   -0.174354   -2.961918
    104          6           0       -3.500209    0.755621   -3.764380
    105          6           0       -2.625467    0.120164   -4.818619
    106          6           0       -2.505687   -1.420308   -4.406093
    107          6           0       -3.445858   -1.427995   -3.180769
    108          6           0       -3.134410    0.223688   -6.256201
    109          6           0       -1.072222   -1.995401   -4.241478
    110          6           0       -0.395454   -1.360819   -3.047883
    111          7           0       -5.128936   -1.741892   -0.746089
    112          6           0       -4.560549   -2.805855   -1.480252
    113          6           0       -5.007522   -4.061770   -0.843605
    114          6           0       -5.830089   -3.638444    0.211224
    115          6           0       -5.907655   -2.219484    0.218258
    116          6           0       -4.687780   -5.377159   -1.283657
    117          6           0       -6.658944   -4.069630    1.313842
    118          8           0       -6.902629   -5.151797    1.846085
    119          6           0       -7.494307   -2.822284    1.836050
    120          6           0       -7.384179   -2.784485    3.335704
    121          8           0       -6.288922   -2.568541    3.883777
    122          8           0       -8.619636   -2.792420    3.868588
    123          6           0       -8.562937   -2.744771    5.353957
    124          1           0       -7.891569    3.716118   -0.457522
    125          1           0       -3.075461    2.594683   -4.273140
    126          1           0       -3.363182   -3.532090   -2.926087
    127          1           0       -9.305394   -0.273380    2.083991
    128          1           0       -8.984820    2.470789    1.532741
    129          1           0      -10.169383    0.213558   -0.029905
    130          1           0       -9.502964    1.532387   -1.015240
    131          1           0      -10.757313    1.911949    0.125902
    132          1           0       -7.351855    1.787032    3.134798
    133          1           0       -7.170047    0.080707    3.683038
    134          1           0       -9.889153    0.841032    4.051623
    135          1           0       -8.981825    2.282676    4.340202
    136          1           0       -7.095133    5.648804   -0.724259
    137          1           0       -6.426223    6.337983   -2.165366
    138          1           0       -5.468688    6.450473   -0.669631
    139          1           0       -4.510875    7.000948   -3.096665
    140          1           0       -2.686073    7.159545   -3.399383
    141          1           0       -3.364634    6.770757   -1.792573
    142          1           0       -1.636560    0.561952   -4.818319
    143          1           0       -2.963542   -2.080166   -5.157617
    144          1           0       -2.413516    0.709597   -6.940506
    145          1           0       -4.072996    0.761772   -6.248095
    146          1           0       -3.414492   -0.722437   -6.716201
    147          1           0       -0.461865   -1.746364   -5.113033
    148          1           0       -1.049819   -3.074343   -4.130299
    149          1           0       -0.011122   -0.420107   -3.453374
    150          1           0        0.412080   -1.993120   -2.684393
    151          1           0       -1.124965   -1.110394   -2.268930
    152          1           0       -4.444405   -5.950794   -0.399230
    153          1           0       -3.862835   -5.369551   -1.993009
    154          1           0       -5.632480   -5.659921   -1.755743
    155          1           0       -8.524707   -2.956092    1.504466
    156          1           0       -9.127490   -3.606605    5.723044
    157          1           0       -8.934410   -1.741414    5.635066
    158          1           0       -7.599893   -2.905685    5.824181
 ---------------------------------------------------------------------

 SCF Done:  E(RCAM-B3LYP) =  -4069.81234046     A.U. after   19 cycles

 Excitation energies and oscillator strengths:

 Excited State   1:      Singlet-A      1.6558 eV  748.78 nm  f=0.0056  <S**2>=0.000
     309 -> 315       -0.11216
     310 -> 316        0.12629
     311 -> 313       -0.45454
     312 -> 314        0.51535
 This state for optimization and/or second-order correction.
 Total Energy, E(TD-HF/TD-DFT) =  -4069.75149033
 Copying the excited state density for this state as the 1-particle RhoCI density.

 Excited State   2:      Singlet-A      1.6957 eV  731.18 nm  f=0.7174  <S**2>=0.000
     309 -> 315        0.13479
     310 -> 316        0.11805
     311 -> 313        0.51350
     312 -> 314        0.45296

 Excited State   3:      Singlet-A      2.1831 eV  567.94 nm  f=0.0469  <S**2>=0.000
     309 -> 313        0.21775
     310 -> 314        0.60565
     312 -> 316       -0.25485

 Excited State   4:      Singlet-A      2.1939 eV  565.12 nm  f=0.1413  <S**2>=0.000
     309 -> 313        0.60256
     310 -> 314       -0.21536
     311 -> 315       -0.26319

 Excited State   5:      Singlet-A      2.5661 eV  483.15 nm  f=0.0000  <S**2>=0.000
     312 -> 313        0.70699

 The electronic state is 1-A.
 Alpha  occ. eigenvalues --  -46.87674 -46.87479 -19.26312 -19.26232 -19.19059
 Alpha  occ. eigenvalues --  -19.19034 -19.18703 -19.18612 -19.18081 -19.17892
 Alpha  occ. eigenvalues --  -14.42337 -14.42326 -14.41324 -14.41164 -14.39280
 Alpha  occ. eigenvalues --  -14.39180 -14.38466 -14.38416 -10.39104 -10.38961
 Alpha  occ. eigenvalues --  -10.35337 -10.35294 -10.34305 -10.34070 -10.31732
 Alpha  occ. eigenvalues --  -10.31657 -10.31297 -10.31131 -10.30875 -10.30810
 Alpha  occ. eigenvalues --  -10.30450 -10.30385 -10.30214 -10.30172 -10.30070
 Alpha  occ. eigenvalues --  -10.29940 -10.29795 -10.29692 -10.29509 -10.29265
 Alpha  occ. eigenvalues --  -10.29224 -10.29126 -10.28687 -10.28586 -10.28553
 Alpha  occ. eigenvalues --  -10.28538 -10.28254 -10.28244 -10.28036 -10.28001
 Alpha  occ. eigenvalues --  -10.27829 -10.27671 -10.27609 -10.27497 -10.27462
 Alpha  occ. eigenvalues --  -10.27341 -10.27340 -10.27338 -10.27315 -10.27308
 Alpha  occ. eigenvalues --  -10.27301 -10.27301 -10.27230 -10.27152 -10.27101
 Alpha  occ. eigenvalues --  -10.26903 -10.26681 -10.26573 -10.26362 -10.26298
 Alpha  occ. eigenvalues --  -10.26154 -10.25976 -10.25899 -10.25882 -10.25714
 Alpha  occ. eigenvalues --  -10.25690 -10.25686 -10.25602 -10.25313 -10.25240
 Alpha  occ. eigenvalues --  -10.24717 -10.24700 -10.24668 -10.24514 -10.24434
 Alpha  occ. eigenvalues --  -10.24132  -3.16416  -3.16229  -1.91298  -1.91111
 Alpha  occ. eigenvalues --   -1.90884  -1.90726  -1.90700  -1.90537  -1.16660
 Alpha  occ. eigenvalues --   -1.16524  -1.08547  -1.08500  -1.07106  -1.06870
 Alpha  occ. eigenvalues --   -1.06818  -1.06671  -1.04471  -1.04327  -1.03639
 Alpha  occ. eigenvalues --   -1.03484  -1.03111  -1.02850  -1.02290  -1.01929
 Alpha  occ. eigenvalues --   -0.91875  -0.91818  -0.89375  -0.89249  -0.89111
 Alpha  occ. eigenvalues --   -0.89002  -0.88145  -0.87966  -0.87742  -0.87598
 Alpha  occ. eigenvalues --   -0.87564  -0.87508  -0.87149  -0.86980  -0.84901
 Alpha  occ. eigenvalues --   -0.84850  -0.83792  -0.83599  -0.82840  -0.82782
 Alpha  occ. eigenvalues --   -0.82565  -0.82492  -0.81528  -0.81434  -0.80507
 Alpha  occ. eigenvalues --   -0.80282  -0.78672  -0.78470  -0.77103  -0.76965
 Alpha  occ. eigenvalues --   -0.76856  -0.76703  -0.75844  -0.75681  -0.74776
 Alpha  occ. eigenvalues --   -0.74591  -0.72650  -0.72505  -0.71568  -0.71413
 Alpha  occ. eigenvalues --   -0.69736  -0.69422  -0.68784  -0.68669  -0.67537
 Alpha  occ. eigenvalues --   -0.67437  -0.67146  -0.67070  -0.65206  -0.65118
 Alpha  occ. eigenvalues --   -0.64759  -0.64584  -0.64525  -0.64481  -0.64132
 Alpha  occ. eigenvalues --   -0.63948  -0.62249  -0.62113  -0.60316  -0.60177
 Alpha  occ. eigenvalues --   -0.59713  -0.59643  -0.58878  -0.58810  -0.58399
 Alpha  occ. eigenvalues --   -0.58245  -0.57527  -0.57399  -0.57195  -0.57042
 Alpha  occ. eigenvalues --   -0.56204  -0.56029  -0.55947  -0.55744  -0.55417
 Alpha  occ. eigenvalues --   -0.55316  -0.55234  -0.55030  -0.54440  -0.54254
 Alpha  occ. eigenvalues --   -0.53823  -0.53771  -0.53183  -0.53136  -0.53060
 Alpha  occ. eigenvalues --   -0.52979  -0.52844  -0.52738  -0.52652  -0.52553
 Alpha  occ. eigenvalues --   -0.52260  -0.52016  -0.51785  -0.51667  -0.51538
 Alpha  occ. eigenvalues --   -0.51525  -0.51092  -0.50999  -0.50442  -0.50342
 Alpha  occ. eigenvalues --   -0.49889  -0.49830  -0.49804  -0.49607  -0.49427
 Alpha  occ. eigenvalues --   -0.49351  -0.49122  -0.49055  -0.49013  -0.48941
 Alpha  occ. eigenvalues --   -0.48518  -0.48407  -0.48353  -0.48336  -0.48219
 Alpha  occ. eigenvalues --   -0.48170  -0.47592  -0.47427  -0.47189  -0.46961
 Alpha  occ. eigenvalues --   -0.46678  -0.46511  -0.46482  -0.46400  -0.46243
 Alpha  occ. eigenvalues --   -0.46073  -0.46055  -0.45895  -0.45740  -0.45644
 Alpha  occ. eigenvalues --   -0.45071  -0.44989  -0.44491  -0.44397  -0.44371
 Alpha  occ. eigenvalues --   -0.44287  -0.44033  -0.43988  -0.43981  -0.43924
 Alpha  occ. eigenvalues --   -0.43821  -0.43803  -0.43426  -0.43362  -0.43283
 Alpha  occ. eigenvalues --   -0.43220  -0.42922  -0.42780  -0.42724  -0.42681
 Alpha  occ. eigenvalues --   -0.42507  -0.42302  -0.41880  -0.41689  -0.41602
 Alpha  occ. eigenvalues --   -0.41493  -0.41449  -0.41261  -0.41039  -0.40826
 Alpha  occ. eigenvalues --   -0.40771  -0.40720  -0.40610  -0.40518  -0.40435
 Alpha  occ. eigenvalues --   -0.40219  -0.40181  -0.40107  -0.39260  -0.39063
 Alpha  occ. eigenvalues --   -0.38339  -0.38120  -0.37691  -0.37510  -0.37188
 Alpha  occ. eigenvalues --   -0.37179  -0.37057  -0.37024  -0.36691  -0.36620
 Alpha  occ. eigenvalues --   -0.36109  -0.36013  -0.34171  -0.34072  -0.33781
 Alpha  occ. eigenvalues --   -0.33725  -0.33076  -0.32994  -0.31234  -0.31171
 Alpha  occ. eigenvalues --   -0.30927  -0.30800  -0.29944  -0.29795  -0.29326
 Alpha  occ. eigenvalues --   -0.29202  -0.29168  -0.29034  -0.23965  -0.23855
 Alpha  occ. eigenvalues --   -0.21005  -0.20936
 Alpha virt. eigenvalues --   -0.08654  -0.08620  -0.01628  -0.01505   0.00053
 Alpha virt. eigenvalues --    0.00108   0.02308   0.02383   0.03205   0.03487
 Alpha virt. eigenvalues --    0.04808   0.04891   0.05084   0.05298   0.06207

 Mulliken charges:
               1
     1  Mg   0.839341
     2  C   -0.003763
     3  C   -0.093898
     4  C   -0.045791
     5  C   -0.063372
     6  N   -0.256781
     7  C   -0.052662
     8  C   -0.014045
     9  C   -0.087059
    10  C    0.046282
    11  C    0.104833
    12  C    0.053408
    13  C   -0.071385
    14  H    0.034185
    15  N   -0.433143
    16  C    0.168741
    17  C   -0.176725
    18  C   -0.003846
    19  C    0.148811
    20  C    0.110054
    21  C    0.012364
    22  O   -0.250022
    23  C    0.062207
    24  N   -0.341242
    25  C    0.041394
    26  C   -0.028075
    27  C   -0.024075
    28  C    0.074974
    29  C    0.076286
    30  C    0.034977
    31  C   -0.004754
    32  N   -0.310487
    33  C    0.080510
    34  C   -0.169054
    35  C    0.008191
    36  C    0.082993
    37  C    0.127228
    38  C    0.045809
    39  O   -0.188770
    40  C   -0.005365
    41  C    0.213457
    42  O   -0.259146
    43  O   -0.304284
    44  C    0.158023
    45  H   -0.017750
    46  H   -0.016992
    47  H   -0.040899
    48  H    0.000691
    49  H   -0.003961
    50  H    0.025335
    51  H    0.016582
    52  H    0.016531
    53  H    0.011940
    54  H    0.042610
    55  H    0.018137
    56  H    0.018590
    57  H    0.005839
    58  H    0.026387
    59  H    0.040752
    60  H    0.037234
    61  H    0.034864
    62  H    0.032538
    63  H    0.016599
    64  H    0.009268
    65  H    0.022935
    66  H    0.012256
    67  H    0.004686
    68  H    0.006044
    69  H    0.005357
    70  H    0.008052
    71  H    0.020858
    72  H    0.028841
    73  H    0.048011
    74  H    0.009905
    75  H    0.045667
    76  H    0.035154
    77  H    0.043262
    78  H    0.046429
    79  H    0.052112
    80  Mg   0.838048
    81  C   -0.017198
    82  C   -0.088088
    83  C   -0.045702
    84  C   -0.063873
    85  N   -0.254592
    86  C   -0.049788
    87  C   -0.015141
    88  C   -0.090437
    89  C    0.045611
    90  C    0.114504
    91  C    0.062592
    92  C   -0.077653
    93  H    0.034387
    94  N   -0.423292
    95  C    0.162698
    96  C   -0.174956
    97  C   -0.008302
    98  C    0.152002
    99  C    0.099447
   100  C    0.015063
   101  O   -0.254533
   102  C    0.061417
   103  N   -0.350331
   104  C    0.037721
   105  C   -0.019204
   106  C   -0.035294
   107  C    0.089665
   108  C    0.074137
   109  C    0.035019
   110  C   -0.011611
   111  N   -0.324312
   112  C    0.079057
   113  C   -0.161862
   114  C    0.002032
   115  C    0.096638
   116  C    0.131149
   117  C    0.042591
   118  O   -0.187881
   119  C    0.000813
   120  C    0.211252
   121  O   -0.251063
   122  O   -0.305661
   123  C    0.152182
   124  H   -0.020267
   125  H   -0.016485
   126  H   -0.038594
   127  H   -0.000897
   128  H   -0.004645
   129  H    0.022269
   130  H    0.014348
   131  H    0.015826
   132  H    0.014037
   133  H    0.037599
   134  H    0.020632
   135  H    0.019480
   136  H    0.008550
   137  H    0.025411
   138  H    0.039424
   139  H    0.038245
   140  H    0.034630
   141  H    0.034100
   142  H    0.013799
   143  H    0.011669
   144  H    0.023713
   145  H    0.010983
   146  H    0.005382
   147  H    0.004569
   148  H    0.006758
   149  H    0.006860
   150  H    0.032869
   151  H    0.027460
   152  H    0.046849
   153  H    0.010699
   154  H    0.046257
   155  H    0.034691
   156  H    0.043709
   157  H    0.049304
   158  H    0.053328
 Sum of Mulliken charges =  -0.00000

 Dipole moment (field-independent basis, Debye):
    X=              0.1630    Y=              6.8122    Z=             -2.3946  Tot=              7.2227
 Quadrupole moment (field-independent basis, Debye-Ang):
   XX=           -449.9996   YY=           -538.6351   ZZ=           -478.8433
   XY=            -18.0391   XZ=            -22.4276   YZ=              7.9444

 Normal termination of Gaussian 16 at Fri Sep 10 12:00:10 2021.
