 Gaussian 16, Revision A.03,
 Gaussian 16:  ES64L-G16RevA.03 25-Dec-2016

 -----------------------------------
 #p cam-b3lyp/Def2SVP td=(nstates=5)
 -----------------------------------

 --------------------------------
 TDDFT excited states in gaussian
 --------------------------------
 Symbolic Z-matrix:
 Charge =  0 Multiplicity = 1

                         Standard orientation:
 ---------------------------------------------------------------------
 Center     Atomic      Atomic             Coordinates (Angstroms)
 Number     Number       Type             X           Y           Z
 ---------------------------------------------------------------------
      1         12           0       -7.836736    0.614429    0.510032
      2          6           0       -8.234760   -1.943759   -1.961701
      3          6           0       -8.551910   -1.753137    2.860824
      4          6           0       -7.938475    2.939790    2.663858
      5          6           0       -8.276237    2.944674   -2.043878
      6          7           0       -8.313584   -1.541136    0.346326
      7          6           0       -8.375359   -2.414227   -0.654208
      8          6           0       -8.528429   -3.889759   -0.178029
      9          6           0       -9.176213   -3.625981    1.254729
     10          6           0       -8.619941   -2.238337    1.521054
     11          6           0      -10.699308   -3.548124    1.229755
     12          6           0       -7.149467   -4.621627   -0.057338
     13          6           0       -7.228144   -6.144565    0.083454
     14          1           0       -6.199916   -6.960001   -0.545163
     15          7           0       -7.711364    0.542211    2.480290
     16          6           0       -8.028090   -0.509023    3.273939
     17          6           0       -7.763458   -0.067434    4.660174
     18          6           0       -7.448027    1.387601    4.621836
     19          6           0       -7.715773    1.691002    3.239216
     20          6           0       -7.775742   -0.995501    5.835883
     21          6           0       -6.989700    2.353832    5.668004
     22          8           0       -6.998355    3.617946    5.476920
     23          6           0       -6.608775    1.779411    6.971069
     24          7           0       -8.290742    2.648042    0.383817
     25          6           0       -8.202267    3.442676    1.456064
     26          6           0       -8.295427    4.889769    1.072422
     27          6           0       -8.222526    4.929927   -0.522202
     28          6           0       -8.179828    3.406095   -0.794933
     29          6           0       -9.556012    5.627454    1.544397
     30          6           0       -7.125454    5.823271   -1.153699
     31          6           0       -5.759240    5.250484   -0.849607
     32          7           0       -8.016769    0.553602   -1.652127
     33          6           0       -8.216152    1.642904   -2.512558
     34          6           0       -8.383589    1.095186   -3.871247
     35          6           0       -8.285873   -0.284699   -3.703282
     36          6           0       -8.097235   -0.581663   -2.323238
     37          6           0       -8.652689    1.850195   -5.046824
     38          6           0       -8.321564   -1.578654   -4.365297
     39          8           0       -8.360583   -1.951590   -5.538707
     40          6           0       -8.411807   -2.710435   -3.248715
     41          6           0       -7.391867   -3.763741   -3.585726
     42          8           0       -6.170659   -3.513256   -3.528501
     43          8           0       -8.000701   -4.954985   -3.689650
     44          6           0       -7.040330   -6.049225   -3.993753
     45          1           0       -8.991695   -2.350844    3.661622
     46          1           0       -7.871017    3.779900    3.358194
     47          1           0       -8.332764    3.615971   -2.902725
     48          1           0       -9.201355   -4.495725   -0.784988
     49          1           0       -8.811504   -4.330310    2.002144
     50          1           0      -11.082064   -3.558191    0.209305
     51          1           0      -10.950798   -2.608173    1.721423
     52          1           0      -11.137506   -4.334588    1.844762
     53          1           0       -6.691679   -4.370266    0.899380
     54          1           0       -6.504269   -4.370309   -0.899885
     55          1           0       -8.220459   -6.517673   -0.171520
     56          1           0       -7.106267   -6.396928    1.136857
     57          1           0       -8.201421   -1.964182    5.577038
     58          1           0       -8.471865   -0.578551    6.563396
     59          1           0       -6.789149   -1.098124    6.288028
     60          1           0       -7.459259    1.240601    7.389292
     61          1           0       -6.223199    2.608139    7.563851
     62          1           0       -5.823688    1.039062    6.814640
     63          1           0       -7.461247    5.457545    1.482544
     64          1           0       -9.149744    5.294467   -0.964979
     65          1           0       -9.346289    6.509148    2.150480
     66          1           0      -10.177944    4.917516    2.088897
     67          1           0      -10.229682    5.938030    0.746195
     68          1           0       -7.156875    6.823652   -0.723355
     69          1           0       -7.222076    5.924111   -2.234785
     70          1           0       -5.546687    5.642456    0.144380
     71          1           0       -5.027145    5.607362   -1.574787
     72          1           0       -5.791702    4.163615   -0.771197
     73          1           0       -8.011919    1.439009   -5.826766
     74          1           0       -8.455508    2.910481   -4.890249
     75          1           0       -9.712925    1.638515   -5.184475
     76          1           0       -9.428655   -3.100572   -3.279294
     77          1           0       -7.390730   -6.540798   -4.901392
     78          1           0       -6.961895   -6.652901   -3.089414
     79          1           0       -6.039834   -5.741325   -4.299606
     80         12           0        8.002946    0.541326   -0.653571
     81          6           0        7.951800   -2.226352    1.630364
     82          6           0        7.330135    2.560457    2.011956
     83          6           0        7.595578    2.934942   -2.696141
     84          6           0        7.533396   -1.756606   -3.231308
     85          7           0        7.702543    0.105666    1.494027
     86          6           0        7.767603   -0.975737    2.256044
     87          6           0        7.707657   -0.692508    3.781082
     88          6           0        6.949084    0.722114    3.733301
     89          6           0        7.377481    1.182289    2.341405
     90          6           0        5.434935    0.593875    3.748981
     91          6           0        9.134186   -0.558015    4.420567
     92          6           0        9.158724   -0.589305    5.950335
     93          1           0       10.289348   -1.231125    6.615332
     94          7           0        8.018387    2.502944   -0.352872
     95          6           0        7.742759    3.151972    0.797800
     96          6           0        7.872101    4.585176    0.492247
     97          6           0        8.085183    4.735051   -0.972966
     98          6           0        7.882795    3.368241   -1.409944
     99          6           0        7.869657    5.646875    1.553481
    100          6           0        8.404090    5.915732   -1.839274
    101          8           0        8.310326    5.858781   -3.116302
    102          6           0        8.739005    7.167318   -1.144388
    103          7           0        7.409555    0.610051   -2.644934
    104          6           0        7.365996    1.775853   -3.313478
    105          6           0        7.180831    1.548551   -4.794841
    106          6           0        7.352139   -0.026516   -5.012541
    107          6           0        7.525739   -0.467737   -3.542646
    108          6           0        5.840298    1.999356   -5.374590
    109          6           0        8.413318   -0.482106   -6.051286
    110          6           0        9.800374   -0.143348   -5.554602
    111          7           0        7.964092   -1.611666   -0.830045
    112          6           0        7.726022   -2.367547   -1.998828
    113          6           0        7.684510   -3.788636   -1.597327
    114          6           0        7.879940   -3.759057   -0.208285
    115          6           0        8.012318   -2.413145    0.228154
    116          6           0        7.439567   -4.891072   -2.463792
    117          6           0        7.993738   -4.559712    0.989505
    118          8           0        8.047538   -5.765851    1.226294
    119          6           0        7.919009   -3.595478    2.250882
    120          6           0        9.036263   -3.967498    3.186750
    121          8           0       10.222657   -3.807537    2.849839
    122          8           0        8.521977   -4.244348    4.398869
    123          6           0        9.592578   -4.608172    5.364928
    124          1           0        6.897030    3.252159    2.735044
    125          1           0        7.554960    3.716105   -3.458777
    126          1           0        7.489165   -2.540726   -3.990167
    127          1           0        7.127394   -1.406446    4.353243
    128          1           0        7.329425    1.400117    4.492916
    129          1           0        5.116909   -0.435105    3.670173
    130          1           0        5.082542    1.164870    2.899960
    131          1           0        5.024062    1.086450    4.634922
    132          1           0        9.509813    0.458672    4.247393
    133          1           0        9.797531   -1.306686    4.033147
    134          1           0        8.211383   -0.948387    6.370513
    135          1           0        9.242840    0.436578    6.317096
    136          1           0        7.529857    5.250476    2.518268
    137          1           0        7.101934    6.376526    1.274040
    138          1           0        8.830167    6.159548    1.638608
    139          1           0        7.910575    7.456629   -0.502158
    140          1           0        9.023065    7.870559   -1.929659
    141          1           0        9.597044    6.984237   -0.487992
    142          1           0        7.942862    2.066883   -5.363842
    143          1           0        6.422635   -0.491558   -5.372546
    144          1           0        5.944983    2.724919   -6.203253
    145          1           0        5.246181    2.419609   -4.573989
    146          1           0        5.201608    1.196765   -5.739456
    147          1           0        8.279603    0.058703   -6.991393
    148          1           0        8.366925   -1.541639   -6.279858
    149          1           0        9.915982    0.905989   -5.842042
    150          1           0       10.545123   -0.770159   -6.040920
    151          1           0        9.849667   -0.192801   -4.460629
    152          1           0        8.148882   -5.662337   -2.194475
    153          1           0        7.539534   -4.605272   -3.508825
    154          1           0        6.404283   -5.121409   -2.198460
    155          1           0        6.938692   -3.731121    2.709300
    156          1           0        9.333572   -5.589547    5.774212
    157          1           0        9.650866   -3.764441    6.077995
    158          1           0       10.582491   -4.799350    4.967464
 ---------------------------------------------------------------------

 SCF Done:  E(RCAM-B3LYP) =  -4069.81182769     A.U. after   19 cycles

 Excitation energies and oscillator strengths:

 Excited State   1:      Singlet-A      1.6750 eV  740.22 nm  f=0.3652  <S**2>=0.000
     310 -> 316        0.17025
     311 -> 313       -0.13253
     312 -> 314        0.67311
     310 <- 316        0.10268
 This state for optimization and/or second-order correction.
 Total Energy, E(TD-HF/TD-DFT) =  -4069.75027385
 Copying the excited state density for this state as the 1-particle RhoCI density.

 Excited State   2:      Singlet-A      1.6796 eV  738.16 nm  f=0.3834  <S**2>=0.000
     309 -> 315        0.17201
     311 -> 313        0.67276
     312 -> 314        0.13255
     309 <- 315        0.10301

 Excited State   3:      Singlet-A      2.1859 eV  567.21 nm  f=0.1018  <S**2>=0.000
     310 -> 314        0.64252
     312 -> 316       -0.27303

 Excited State   4:      Singlet-A      2.1922 eV  565.58 nm  f=0.0978  <S**2>=0.000
     309 -> 313        0.64075
     311 -> 315       -0.27796

 Excited State   5:      Singlet-A      2.7657 eV  448.28 nm  f=0.0000  <S**2>=0.000
     312 -> 313        0.70710

 The electronic state is 1-A.
 Alpha  occ. eigenvalues --  -46.87835 -46.87593 -19.26327 -19.26295 -19.19131
 Alpha  occ. eigenvalues --  -19.19037 -19.18873 -19.18652 -19.18201 -19.18000
 Alpha  occ. eigenvalues --  -14.42485 -14.42433 -14.41489 -14.41287 -14.39443
 Alpha  occ. eigenvalues --  -14.39285 -14.38624 -14.38533 -10.39097 -10.39059
 Alpha  occ. eigenvalues --  -10.35508 -10.35330 -10.34420 -10.34178 -10.31746
 Alpha  occ. eigenvalues --  -10.31681 -10.31436 -10.31248 -10.30964 -10.30943
 Alpha  occ. eigenvalues --  -10.30605 -10.30548 -10.30330 -10.30296 -10.30250
 Alpha  occ. eigenvalues --  -10.30064 -10.29961 -10.29819 -10.29671 -10.29367
 Alpha  occ. eigenvalues --  -10.29336 -10.29296 -10.28768 -10.28675 -10.28633
 Alpha  occ. eigenvalues --  -10.28533 -10.28402 -10.28342 -10.28137 -10.28091
 Alpha  occ. eigenvalues --  -10.27937 -10.27831 -10.27762 -10.27627 -10.27604
 Alpha  occ. eigenvalues --  -10.27546 -10.27524 -10.27497 -10.27438 -10.27423
 Alpha  occ. eigenvalues --  -10.27421 -10.27407 -10.27402 -10.27281 -10.27184
 Alpha  occ. eigenvalues --  -10.27005 -10.26714 -10.26658 -10.26481 -10.26359
 Alpha  occ. eigenvalues --  -10.26253 -10.26233 -10.26059 -10.26049 -10.25975
 Alpha  occ. eigenvalues --  -10.25877 -10.25860 -10.25779 -10.25481 -10.25278
 Alpha  occ. eigenvalues --  -10.24870 -10.24829 -10.24809 -10.24744 -10.24654
 Alpha  occ. eigenvalues --  -10.24619  -3.16578  -3.16343  -1.91460  -1.91225
 Alpha  occ. eigenvalues --   -1.91046  -1.90888  -1.90813  -1.90650  -1.16645
 Alpha  occ. eigenvalues --   -1.16619  -1.08657  -1.08610  -1.07276  -1.06915
 Alpha  occ. eigenvalues --   -1.06904  -1.06659  -1.04616  -1.04432  -1.03799
 Alpha  occ. eigenvalues --   -1.03596  -1.03273  -1.02968  -1.02450  -1.02043
 Alpha  occ. eigenvalues --   -0.92005  -0.91928  -0.89562  -0.89420  -0.89209
 Alpha  occ. eigenvalues --   -0.89101  -0.88330  -0.88138  -0.87906  -0.87728
 Alpha  occ. eigenvalues --   -0.87706  -0.87620  -0.87320  -0.87058  -0.85008
 Alpha  occ. eigenvalues --   -0.84947  -0.83980  -0.83796  -0.83021  -0.82866
 Alpha  occ. eigenvalues --   -0.82680  -0.82599  -0.81610  -0.81550  -0.80629
 Alpha  occ. eigenvalues --   -0.80389  -0.78839  -0.78572  -0.77253  -0.77085
 Alpha  occ. eigenvalues --   -0.76959  -0.76842  -0.75949  -0.75788  -0.74937
 Alpha  occ. eigenvalues --   -0.74723  -0.72811  -0.72632  -0.71706  -0.71514
 Alpha  occ. eigenvalues --   -0.69953  -0.69675  -0.68902  -0.68774  -0.67679
 Alpha  occ. eigenvalues --   -0.67540  -0.67246  -0.67152  -0.65312  -0.65221
 Alpha  occ. eigenvalues --   -0.64887  -0.64708  -0.64652  -0.64599  -0.64310
 Alpha  occ. eigenvalues --   -0.64128  -0.62322  -0.62232  -0.60487  -0.60272
 Alpha  occ. eigenvalues --   -0.59832  -0.59742  -0.59023  -0.58927  -0.58539
 Alpha  occ. eigenvalues --   -0.58363  -0.57612  -0.57507  -0.57348  -0.57168
 Alpha  occ. eigenvalues --   -0.56346  -0.56144  -0.55998  -0.55845  -0.55561
 Alpha  occ. eigenvalues --   -0.55399  -0.55376  -0.55179  -0.54555  -0.54426
 Alpha  occ. eigenvalues --   -0.53917  -0.53864  -0.53340  -0.53255  -0.53164
 Alpha  occ. eigenvalues --   -0.53088  -0.52946  -0.52851  -0.52797  -0.52612
 Alpha  occ. eigenvalues --   -0.52485  -0.52323  -0.51949  -0.51818  -0.51645
 Alpha  occ. eigenvalues --   -0.51610  -0.51229  -0.51143  -0.50625  -0.50413
 Alpha  occ. eigenvalues --   -0.50075  -0.49962  -0.49920  -0.49787  -0.49549
 Alpha  occ. eigenvalues --   -0.49432  -0.49249  -0.49148  -0.49121  -0.49051
 Alpha  occ. eigenvalues --   -0.48621  -0.48508  -0.48506  -0.48484  -0.48300
 Alpha  occ. eigenvalues --   -0.48279  -0.47730  -0.47536  -0.47335  -0.47052
 Alpha  occ. eigenvalues --   -0.46832  -0.46644  -0.46579  -0.46502  -0.46397
 Alpha  occ. eigenvalues --   -0.46204  -0.46197  -0.46016  -0.45848  -0.45768
 Alpha  occ. eigenvalues --   -0.45243  -0.45126  -0.44609  -0.44547  -0.44460
 Alpha  occ. eigenvalues --   -0.44420  -0.44186  -0.44115  -0.44072  -0.44054
 Alpha  occ. eigenvalues --   -0.44012  -0.43885  -0.43522  -0.43506  -0.43418
 Alpha  occ. eigenvalues --   -0.43326  -0.43061  -0.42889  -0.42841  -0.42731
 Alpha  occ. eigenvalues --   -0.42685  -0.42478  -0.42046  -0.41899  -0.41738
 Alpha  occ. eigenvalues --   -0.41610  -0.41559  -0.41403  -0.41174  -0.40926
 Alpha  occ. eigenvalues --   -0.40901  -0.40871  -0.40667  -0.40642  -0.40610
 Alpha  occ. eigenvalues --   -0.40417  -0.40251  -0.40185  -0.39488  -0.39344
 Alpha  occ. eigenvalues --   -0.38508  -0.38272  -0.37767  -0.37609  -0.37360
 Alpha  occ. eigenvalues --   -0.37289  -0.37194  -0.37144  -0.36737  -0.36731
 Alpha  occ. eigenvalues --   -0.36222  -0.36152  -0.34323  -0.34188  -0.33825
 Alpha  occ. eigenvalues --   -0.33792  -0.33223  -0.33109  -0.31402  -0.31210
 Alpha  occ. eigenvalues --   -0.31073  -0.30908  -0.30059  -0.29906  -0.29492
 Alpha  occ. eigenvalues --   -0.29360  -0.29263  -0.29147  -0.24117  -0.23969
 Alpha  occ. eigenvalues --   -0.21165  -0.21050
 Alpha virt. eigenvalues --   -0.08814  -0.08726  -0.01790  -0.01615  -0.00102
 Alpha virt. eigenvalues --    0.00032   0.02164   0.02268   0.03077   0.03289
 Alpha virt. eigenvalues --    0.04690   0.04789   0.05079   0.05199   0.06166

 Mulliken charges:
               1
     1  Mg   0.838700
     2  C   -0.002925
     3  C   -0.094002
     4  C   -0.046032
     5  C   -0.063998
     6  N   -0.256811
     7  C   -0.052359
     8  C   -0.014000
     9  C   -0.087006
    10  C    0.046302
    11  C    0.104788
    12  C    0.053423
    13  C   -0.072022
    14  H    0.036636
    15  N   -0.433126
    16  C    0.168324
    17  C   -0.177156
    18  C   -0.004180
    19  C    0.148681
    20  C    0.110141
    21  C    0.012056
    22  O   -0.249885
    23  C    0.062584
    24  N   -0.341156
    25  C    0.041249
    26  C   -0.028138
    27  C   -0.023975
    28  C    0.074835
    29  C    0.076170
    30  C    0.035149
    31  C   -0.004484
    32  N   -0.310512
    33  C    0.080461
    34  C   -0.169693
    35  C    0.008407
    36  C    0.082976
    37  C    0.127309
    38  C    0.046144
    39  O   -0.188286
    40  C   -0.005328
    41  C    0.212903
    42  O   -0.257120
    43  O   -0.304780
    44  C    0.157641
    45  H   -0.017499
    46  H   -0.017019
    47  H   -0.041455
    48  H    0.001045
    49  H   -0.003883
    50  H    0.025510
    51  H    0.016380
    52  H    0.016790
    53  H    0.011199
    54  H    0.044131
    55  H    0.017885
    56  H    0.018074
    57  H    0.006063
    58  H    0.026819
    59  H    0.039375
    60  H    0.037536
    61  H    0.035268
    62  H    0.031254
    63  H    0.016298
    64  H    0.009546
    65  H    0.023081
    66  H    0.012614
    67  H    0.004831
    68  H    0.006298
    69  H    0.004871
    70  H    0.008460
    71  H    0.018200
    72  H    0.028989
    73  H    0.047613
    74  H    0.009124
    75  H    0.046103
    76  H    0.035258
    77  H    0.043028
    78  H    0.046583
    79  H    0.053725
    80  Mg   0.838023
    81  C   -0.016932
    82  C   -0.087855
    83  C   -0.045387
    84  C   -0.064435
    85  N   -0.254557
    86  C   -0.049854
    87  C   -0.015113
    88  C   -0.090490
    89  C    0.045763
    90  C    0.114360
    91  C    0.062565
    92  C   -0.077756
    93  H    0.034643
    94  N   -0.423523
    95  C    0.162949
    96  C   -0.174599
    97  C   -0.007771
    98  C    0.152135
    99  C    0.099354
   100  C    0.015554
   101  O   -0.253112
   102  C    0.061210
   103  N   -0.350000
   104  C    0.037708
   105  C   -0.019996
   106  C   -0.034853
   107  C    0.088865
   108  C    0.073400
   109  C    0.034687
   110  C   -0.007654
   111  N   -0.324110
   112  C    0.078435
   113  C   -0.162983
   114  C    0.002160
   115  C    0.096255
   116  C    0.131483
   117  C    0.042348
   118  O   -0.188235
   119  C    0.000944
   120  C    0.211180
   121  O   -0.251031
   122  O   -0.305707
   123  C    0.152087
   124  H   -0.019690
   125  H   -0.015457
   126  H   -0.040211
   127  H   -0.000936
   128  H   -0.004485
   129  H    0.022318
   130  H    0.014849
   131  H    0.016056
   132  H    0.013950
   133  H    0.037631
   134  H    0.020563
   135  H    0.019568
   136  H    0.008707
   137  H    0.026216
   138  H    0.039643
   139  H    0.038263
   140  H    0.036318
   141  H    0.033787
   142  H    0.014271
   143  H    0.013101
   144  H    0.025097
   145  H    0.011902
   146  H    0.006544
   147  H    0.006429
   148  H    0.003724
   149  H    0.010874
   150  H    0.017789
   151  H    0.029932
   152  H    0.045746
   153  H    0.008667
   154  H    0.047243
   155  H    0.034820
   156  H    0.043638
   157  H    0.049416
   158  H    0.053562
 Sum of Mulliken charges =  -0.00000

 Dipole moment (field-independent basis, Debye):
    X=             -3.5985    Y=              1.8447    Z=              6.0067  Tot=              7.2410
 Quadrupole moment (field-independent basis, Debye-Ang):
   XX=           -518.9291   YY=           -505.2971   ZZ=           -493.5339
   XY=             44.8380   XZ=            -12.4719   YZ=             -5.6641

 Normal termination of Gaussian 16 at Sun Sep 12 02:38:05 2021.
