 Gaussian 16, Revision A.03,
 Gaussian 16:  ES64L-G16RevA.03 25-Dec-2016

 -----------------------------------
 #p cam-b3lyp/Def2SVP td=(nstates=5)
 -----------------------------------

 --------------------------------
 TDDFT excited states in gaussian
 --------------------------------
 Symbolic Z-matrix:
 Charge =  0 Multiplicity = 1

                         Standard orientation:
 ---------------------------------------------------------------------
 Center     Atomic      Atomic             Coordinates (Angstroms)
 Number     Number       Type             X           Y           Z
 ---------------------------------------------------------------------
      1         12           0        6.796663   -0.516520    0.434772
      2          6           0        7.020405    2.542449   -1.410454
      3          6           0        7.485522    1.299085    3.240501
      4          6           0        7.053545   -3.255452    2.012392
      5          6           0        7.253663   -2.198385   -2.583198
      6          7           0        7.182506    1.640809    0.747340
      7          6           0        7.180309    2.716352   -0.033925
      8          6           0        7.288465    4.054483    0.756696
      9          6           0        7.987768    3.508383    2.081365
     10          6           0        7.495081    2.072547    2.041878
     11          6           0        9.511374    3.507014    2.009788
     12          6           0        5.885625    4.678053    1.064804
     13          6           0        5.907806    6.133546    1.540622
     14          1           0        4.830078    7.020946    1.130291
     15          7           0        6.726089   -0.889851    2.373455
     16          6           0        7.023830   -0.028126    3.375486
     17          6           0        6.817532   -0.778338    4.632986
     18          6           0        6.559177   -2.201184    4.276819
     19          6           0        6.798291   -2.177202    2.856387
     20          6           0        6.827247   -0.135276    5.985807
     21          6           0        6.170338   -3.395524    5.089523
     22          8           0        6.223632   -4.583810    4.620791
     23          6           0        5.805093   -3.142988    6.495177
     24          7           0        7.327233   -2.448515   -0.151341
     25          6           0        7.301739   -3.464796    0.717857
     26          6           0        7.441084   -4.784661    0.018944
     27          6           0        7.323317   -4.472580   -1.542623
     28          6           0        7.212163   -2.929781   -1.467221
     29          6           0        8.743223   -5.551003    0.289433
     30          6           0        6.244640   -5.251882   -2.336073
     31          6           0        4.866206   -4.823438   -1.885014
     32          7           0        6.910943    0.031519   -1.662283
     33          6           0        7.128246   -0.829086   -2.748014
     34          6           0        7.234055    0.013967   -3.953059
     35          6           0        7.086535    1.316116   -3.479254
     36          6           0        6.926613    1.290015   -2.064320
     37          6           0        7.498509   -0.447848   -5.272614
     38          6           0        7.051445    2.725116   -3.836105
     39          8           0        7.041344    3.350946   -4.897109
     40          6           0        7.129205    3.583252   -2.496933
     41          6           0        6.058816    4.637871   -2.570116
     42          8           0        4.850716    4.325947   -2.546360
     43          8           0        6.616545    5.848704   -2.417258
     44          6           0        5.604987    6.938569   -2.450395
     45          1           0        7.924400    1.723085    4.145791
     46          1           0        7.039817   -4.231063    2.502732
     47          1           0        7.311722   -2.658698   -3.571224
     48          1           0        7.918779    4.810023    0.287346
     49          1           0        7.617335    4.011696    2.974214
     50          1           0        9.863476    3.760984    1.010066
     51          1           0        9.814258    2.493648    2.274069
     52          1           0        9.935744    4.156080    2.776209
     53          1           0        5.466309    4.199855    1.949994
     54          1           0        5.226602    4.591399    0.200220
     55          1           0        6.876646    6.598501    1.356028
     56          1           0        5.806801    6.139640    2.625961
     57          1           0        7.206364    0.884949    5.941568
     58          1           0        7.560328   -0.671590    6.588028
     59          1           0        5.850976   -0.180476    6.468697
     60          1           0        6.645342   -2.672721    7.006429
     61          1           0        5.470217   -4.099330    6.895325
     62          1           0        4.986978   -2.422686    6.523477
     63          1           0        6.642449   -5.466544    0.308158
     64          1           0        8.250966   -4.687237   -2.073720
     65          1           0        8.586480   -6.553931    0.687267
     66          1           0        9.352086   -4.952482    0.966448
     67          1           0        9.405114   -5.645562   -0.571018
     68          1           0        6.328333   -6.320426   -2.140739
     69          1           0        6.313592   -5.105394   -3.414052
     70          1           0        4.698502   -5.435773   -0.999716
     71          1           0        4.128011   -5.042923   -2.657094
     72          1           0        4.857733   -3.780869   -1.566481
     73          1           0        6.819413    0.097012   -5.928301
     74          1           0        7.348267   -1.524218   -5.352979
     75          1           0        8.545026   -0.163121   -5.380259
     76          1           0        8.128422    4.016019   -2.459523
     77          1           0        5.908934    7.634948   -3.231999
     78          1           0        5.529061    7.321920   -1.432710
     79          1           0        4.609014    6.661425   -2.797624
     80         12           0       -6.407440   -0.829710   -0.234743
     81          6           0       -8.979278    1.606719    0.338425
     82          6           0       -4.273020    1.772712   -0.788159
     83          6           0       -4.237386   -2.941005   -1.183795
     84          6           0       -8.935265   -3.170259   -0.761643
     85          7           0       -6.705623    1.361670   -0.199594
     86          6           0       -7.711382    2.173021    0.091112
     87          6           0       -7.319168    3.671169    0.197220
     88          6           0       -6.003115    3.640934   -0.722545
     89          6           0       -5.608274    2.177349   -0.536221
     90          6           0       -6.293182    3.873525   -2.196002
     91          6           0       -6.981696    4.097909    1.668960
     92          6           0       -6.891678    5.608584    1.895924
     93          1           0       -7.353716    6.149587    3.171186
     94          7           0       -4.438378   -0.656344   -0.411628
     95          6           0       -3.735983    0.478860   -0.609709
     96          6           0       -2.325166    0.070020   -0.691087
     97          6           0       -2.266900   -1.417028   -0.689696
     98          6           0       -3.677285   -1.736191   -0.784704
     99          6           0       -1.191085    1.053462   -0.680520
    100          6           0       -1.129188   -2.390668   -0.627690
    101          8           0       -1.294614   -3.636486   -0.879495
    102          6           0        0.201321   -1.827733   -0.355060
    103          7           0       -6.557758   -2.720406   -1.086216
    104          6           0       -5.458815   -3.447575   -1.353537
    105          6           0       -5.818786   -4.872177   -1.701841
    106          6           0       -7.378085   -5.013281   -1.375878
    107          6           0       -7.682806   -3.556929   -0.961632
    108          6           0       -5.562223   -5.288061   -3.150157
    109          6           0       -7.794916   -6.158341   -0.412677
    110          6           0       -7.270325   -5.879991    0.977536
    111          7           0       -8.559114   -0.865164   -0.042171
    112          6           0       -9.424522   -1.940670   -0.339579
    113          6           0      -10.806378   -1.449871   -0.160670
    114          6           0      -10.648387   -0.105680    0.209030
    115          6           0       -9.266335    0.223912    0.237519
    116          6           0      -11.992585   -2.204098   -0.384641
    117          6           0      -11.336885    1.112268    0.571342
    118          8           0      -12.508111    1.413751    0.797305
    119          6           0      -10.291749    2.309573    0.548298
    120          6           0      -10.466880    3.103423    1.813864
    121          8           0      -10.205768    2.596612    2.919110
    122          8           0      -10.703240    4.389780    1.497971
    123          6           0      -10.872979    5.219412    2.720565
    124          1           0       -3.578500    2.504349   -1.201954
    125          1           0       -3.526601   -3.737716   -1.415141
    126          1           0       -9.775925   -3.865583   -0.811540
    127          1           0       -8.045391    4.361184   -0.215406
    128          1           0       -5.231131    4.297167   -0.329157
    129          1           0       -7.353577    3.903407   -2.398051
    130          1           0       -5.831186    3.047527   -2.720734
    131          1           0       -5.781002    4.775432   -2.543238
    132          1           0       -5.946740    3.811750    1.896354
    133          1           0       -7.681742    3.669785    2.359819
    134          1           0       -7.317782    6.177052    1.060325
    135          1           0       -5.837446    5.895829    1.905536
    136          1           0       -1.546143    2.078649   -0.842734
    137          1           0       -0.572810    0.838001   -1.558690
    138          1           0       -0.572235    0.973120    0.215718
    139          1           0        0.447927   -1.096433   -1.121125
    140          1           0        0.868343   -2.686823   -0.260523
    141          1           0        0.163714   -1.286059    0.596665
    142          1           0       -5.266468   -5.572034   -1.086822
    143          1           0       -7.967631   -5.211885   -2.282970
    144          1           0       -4.895895   -6.166654   -3.240477
    145          1           0       -5.148203   -4.440712   -3.680364
    146          1           0       -6.455154   -5.510697   -3.731792
    147          1           0       -7.346176   -7.102707   -0.730430
    148          1           0       -8.867719   -6.312120   -0.363215
    149          1           0       -6.240050   -6.245207    0.930242
    150          1           0       -7.848428   -6.424669    1.721296
    151          1           0       -7.229353   -4.802371    1.174286
    152          1           0      -12.659219   -1.987996    0.439624
    153          1           0      -11.779353   -3.268627   -0.455933
    154          1           0      -12.312613   -1.784534   -1.342153
    155          1           0      -10.497014    2.906534   -0.341122
    156          1           0      -11.842022    5.720646    2.634542
    157          1           0       -9.975273    5.863851    2.771302
    158          1           0      -10.985860    4.701669    3.665894
 ---------------------------------------------------------------------

 SCF Done:  E(RCAM-B3LYP) =  -4069.81221448     A.U. after   19 cycles

 Excitation energies and oscillator strengths:

 Excited State   1:      Singlet-A      1.6728 eV  741.17 nm  f=0.3590  <S**2>=0.000
     310 -> 316       -0.14722
     311 -> 313       -0.36078
     312 -> 314        0.58363
 This state for optimization and/or second-order correction.
 Total Energy, E(TD-HF/TD-DFT) =  -4069.75073966
 Copying the excited state density for this state as the 1-particle RhoCI density.

 Excited State   2:      Singlet-A      1.6813 eV  737.43 nm  f=0.4291  <S**2>=0.000
     309 -> 315        0.14996
     311 -> 313        0.58318
     312 -> 314        0.36068

 Excited State   3:      Singlet-A      2.1867 eV  567.00 nm  f=0.0340  <S**2>=0.000
     309 -> 313       -0.22733
     310 -> 314        0.60139
     312 -> 316        0.25554

 Excited State   4:      Singlet-A      2.1951 eV  564.83 nm  f=0.1531  <S**2>=0.000
     309 -> 313        0.59905
     310 -> 314        0.22554
     311 -> 315       -0.26192

 Excited State   5:      Singlet-A      2.5983 eV  477.17 nm  f=0.0000  <S**2>=0.000
     312 -> 313        0.70689

 The electronic state is 1-A.
 Alpha  occ. eigenvalues --  -46.87970 -46.87521 -19.26549 -19.26268 -19.19302
 Alpha  occ. eigenvalues --  -19.19072 -19.18925 -19.18546 -19.18354 -19.17925
 Alpha  occ. eigenvalues --  -14.42622 -14.42358 -14.41598 -14.41222 -14.39568
 Alpha  occ. eigenvalues --  -14.39207 -14.38763 -14.38462 -10.39350 -10.38999
 Alpha  occ. eigenvalues --  -10.35556 -10.35222 -10.34578 -10.34105 -10.31954
 Alpha  occ. eigenvalues --  -10.31692 -10.31583 -10.31173 -10.31087 -10.30873
 Alpha  occ. eigenvalues --  -10.30740 -10.30663 -10.30331 -10.30264 -10.30217
 Alpha  occ. eigenvalues --  -10.30058 -10.29993 -10.29785 -10.29772 -10.29405
 Alpha  occ. eigenvalues --  -10.29279 -10.29244 -10.28956 -10.28797 -10.28594
 Alpha  occ. eigenvalues --  -10.28577 -10.28538 -10.28303 -10.28256 -10.28001
 Alpha  occ. eigenvalues --  -10.27953 -10.27890 -10.27851 -10.27736 -10.27617
 Alpha  occ. eigenvalues --  -10.27578 -10.27561 -10.27517 -10.27514 -10.27402
 Alpha  occ. eigenvalues --  -10.27363 -10.27347 -10.27304 -10.27263 -10.27151
 Alpha  occ. eigenvalues --  -10.26968 -10.26934 -10.26594 -10.26498 -10.26396
 Alpha  occ. eigenvalues --  -10.26206 -10.26180 -10.26157 -10.26038 -10.25982
 Alpha  occ. eigenvalues --  -10.25870 -10.25796 -10.25736 -10.25494 -10.25291
 Alpha  occ. eigenvalues --  -10.25001 -10.24932 -10.24729 -10.24637 -10.24630
 Alpha  occ. eigenvalues --  -10.24554  -3.16715  -3.16272  -1.91597  -1.91183
 Alpha  occ. eigenvalues --   -1.91154  -1.91025  -1.90743  -1.90579  -1.16899
 Alpha  occ. eigenvalues --   -1.16559  -1.08819  -1.08538  -1.07323  -1.06918
 Alpha  occ. eigenvalues --   -1.06856  -1.06798  -1.04755  -1.04354  -1.03913
 Alpha  occ. eigenvalues --   -1.03524  -1.03394  -1.02899  -1.02570  -1.01971
 Alpha  occ. eigenvalues --   -0.92150  -0.91853  -0.89624  -0.89381  -0.89367
 Alpha  occ. eigenvalues --   -0.89021  -0.88382  -0.88098  -0.88028  -0.87839
 Alpha  occ. eigenvalues --   -0.87660  -0.87544  -0.87413  -0.86922  -0.85167
 Alpha  occ. eigenvalues --   -0.84869  -0.84020  -0.83761  -0.83070  -0.82815
 Alpha  occ. eigenvalues --   -0.82756  -0.82507  -0.81784  -0.81484  -0.80768
 Alpha  occ. eigenvalues --   -0.80313  -0.78944  -0.78458  -0.77364  -0.77105
 Alpha  occ. eigenvalues --   -0.77001  -0.76783  -0.76103  -0.75700  -0.75007
 Alpha  occ. eigenvalues --   -0.74677  -0.72924  -0.72557  -0.71825  -0.71447
 Alpha  occ. eigenvalues --   -0.69959  -0.69643  -0.69046  -0.68692  -0.67801
 Alpha  occ. eigenvalues --   -0.67465  -0.67410  -0.67065  -0.65476  -0.65146
 Alpha  occ. eigenvalues --   -0.65025  -0.64781  -0.64639  -0.64530  -0.64375
 Alpha  occ. eigenvalues --   -0.64081  -0.62499  -0.62169  -0.60573  -0.60170
 Alpha  occ. eigenvalues --   -0.59987  -0.59661  -0.59143  -0.58860  -0.58662
 Alpha  occ. eigenvalues --   -0.58290  -0.57790  -0.57443  -0.57438  -0.57098
 Alpha  occ. eigenvalues --   -0.56471  -0.56197  -0.56053  -0.55771  -0.55669
 Alpha  occ. eigenvalues --   -0.55470  -0.55302  -0.55133  -0.54672  -0.54380
 Alpha  occ. eigenvalues --   -0.54091  -0.53784  -0.53440  -0.53393  -0.53098
 Alpha  occ. eigenvalues --   -0.53088  -0.53000  -0.52903  -0.52776  -0.52477
 Alpha  occ. eigenvalues --   -0.52475  -0.52290  -0.52069  -0.51802  -0.51762
 Alpha  occ. eigenvalues --   -0.51515  -0.51352  -0.51076  -0.50689  -0.50268
 Alpha  occ. eigenvalues --   -0.50130  -0.50042  -0.49819  -0.49726  -0.49678
 Alpha  occ. eigenvalues --   -0.49383  -0.49336  -0.49271  -0.49051  -0.48976
 Alpha  occ. eigenvalues --   -0.48778  -0.48595  -0.48568  -0.48428  -0.48257
 Alpha  occ. eigenvalues --   -0.48169  -0.47843  -0.47442  -0.47441  -0.46946
 Alpha  occ. eigenvalues --   -0.46939  -0.46745  -0.46577  -0.46510  -0.46420
 Alpha  occ. eigenvalues --   -0.46310  -0.46119  -0.46004  -0.45960  -0.45709
 Alpha  occ. eigenvalues --   -0.45301  -0.45083  -0.44753  -0.44644  -0.44389
 Alpha  occ. eigenvalues --   -0.44341  -0.44287  -0.44235  -0.44176  -0.43994
 Alpha  occ. eigenvalues --   -0.43940  -0.43775  -0.43681  -0.43541  -0.43446
 Alpha  occ. eigenvalues --   -0.43255  -0.43181  -0.42926  -0.42822  -0.42772
 Alpha  occ. eigenvalues --   -0.42737  -0.42418  -0.42124  -0.41864  -0.41848
 Alpha  occ. eigenvalues --   -0.41706  -0.41540  -0.41335  -0.41297  -0.41029
 Alpha  occ. eigenvalues --   -0.40956  -0.40854  -0.40667  -0.40589  -0.40552
 Alpha  occ. eigenvalues --   -0.40449  -0.40374  -0.40106  -0.39476  -0.39314
 Alpha  occ. eigenvalues --   -0.38578  -0.38232  -0.37958  -0.37541  -0.37457
 Alpha  occ. eigenvalues --   -0.37437  -0.37140  -0.37064  -0.36934  -0.36676
 Alpha  occ. eigenvalues --   -0.36356  -0.36100  -0.34451  -0.34118  -0.34033
 Alpha  occ. eigenvalues --   -0.33764  -0.33352  -0.33037  -0.31456  -0.31194
 Alpha  occ. eigenvalues --   -0.31108  -0.30834  -0.30217  -0.29833  -0.29606
 Alpha  occ. eigenvalues --   -0.29490  -0.29168  -0.29067  -0.24246  -0.23898
 Alpha  occ. eigenvalues --   -0.21284  -0.20972
 Alpha virt. eigenvalues --   -0.08932  -0.08642  -0.01901  -0.01544  -0.00208
 Alpha virt. eigenvalues --    0.00133   0.02036   0.02338   0.02764   0.03344
 Alpha virt. eigenvalues --    0.04537   0.04841   0.04858   0.05261   0.05950

 Mulliken charges:
               1
     1  Mg   0.836071
     2  C   -0.004023
     3  C   -0.094472
     4  C   -0.045385
     5  C   -0.063380
     6  N   -0.256879
     7  C   -0.053016
     8  C   -0.013773
     9  C   -0.086890
    10  C    0.045917
    11  C    0.104704
    12  C    0.053520
    13  C   -0.071596
    14  H    0.034898
    15  N   -0.433380
    16  C    0.168113
    17  C   -0.177255
    18  C   -0.003812
    19  C    0.148471
    20  C    0.110114
    21  C    0.012485
    22  O   -0.248588
    23  C    0.062455
    24  N   -0.341212
    25  C    0.041330
    26  C   -0.028305
    27  C   -0.024142
    28  C    0.074879
    29  C    0.076023
    30  C    0.034855
    31  C   -0.004747
    32  N   -0.310347
    33  C    0.079812
    34  C   -0.169811
    35  C    0.008216
    36  C    0.082033
    37  C    0.127382
    38  C    0.045510
    39  O   -0.188625
    40  C   -0.005071
    41  C    0.213271
    42  O   -0.259250
    43  O   -0.304230
    44  C    0.157878
    45  H   -0.017297
    46  H   -0.015943
    47  H   -0.040822
    48  H    0.001141
    49  H   -0.004085
    50  H    0.025627
    51  H    0.016833
    52  H    0.016983
    53  H    0.010551
    54  H    0.042518
    55  H    0.018635
    56  H    0.018308
    57  H    0.005847
    58  H    0.027391
    59  H    0.039599
    60  H    0.037443
    61  H    0.036542
    62  H    0.031260
    63  H    0.017644
    64  H    0.009579
    65  H    0.023864
    66  H    0.012330
    67  H    0.004984
    68  H    0.007180
    69  H    0.004696
    70  H    0.010308
    71  H    0.021283
    72  H    0.026475
    73  H    0.047239
    74  H    0.009730
    75  H    0.046290
    76  H    0.035564
    77  H    0.043496
    78  H    0.046492
    79  H    0.052428
    80  Mg   0.837432
    81  C   -0.016865
    82  C   -0.087739
    83  C   -0.045518
    84  C   -0.064952
    85  N   -0.254502
    86  C   -0.050213
    87  C   -0.015049
    88  C   -0.090410
    89  C    0.045450
    90  C    0.114258
    91  C    0.062588
    92  C   -0.077583
    93  H    0.034016
    94  N   -0.423636
    95  C    0.162594
    96  C   -0.173897
    97  C   -0.007772
    98  C    0.152270
    99  C    0.098689
   100  C    0.015613
   101  O   -0.253638
   102  C    0.059682
   103  N   -0.350037
   104  C    0.037686
   105  C   -0.019874
   106  C   -0.034661
   107  C    0.088652
   108  C    0.073703
   109  C    0.034842
   110  C   -0.007620
   111  N   -0.323971
   112  C    0.078040
   113  C   -0.163505
   114  C    0.002061
   115  C    0.095885
   116  C    0.131559
   117  C    0.042076
   118  O   -0.188550
   119  C    0.001006
   120  C    0.211183
   121  O   -0.251276
   122  O   -0.305572
   123  C    0.152168
   124  H   -0.018075
   125  H   -0.015715
   126  H   -0.040881
   127  H   -0.000865
   128  H   -0.004213
   129  H    0.022166
   130  H    0.015003
   131  H    0.016713
   132  H    0.013753
   133  H    0.037395
   134  H    0.020849
   135  H    0.019492
   136  H    0.010132
   137  H    0.030711
   138  H    0.039434
   139  H    0.041407
   140  H    0.036597
   141  H    0.033165
   142  H    0.014228
   143  H    0.012185
   144  H    0.024783
   145  H    0.011960
   146  H    0.005507
   147  H    0.005959
   148  H    0.003424
   149  H    0.010888
   150  H    0.017590
   151  H    0.030206
   152  H    0.045581
   153  H    0.008215
   154  H    0.046672
   155  H    0.034887
   156  H    0.043680
   157  H    0.049384
   158  H    0.053309
 Sum of Mulliken charges =  -0.00000

 Dipole moment (field-independent basis, Debye):
    X=              5.5679    Y=              2.7137    Z=              2.2720  Tot=              6.5976
 Quadrupole moment (field-independent basis, Debye-Ang):
   XX=           -554.2651   YY=           -472.0900   ZZ=           -513.2776
   XY=             15.4830   XZ=             48.9230   YZ=             38.2785

 Normal termination of Gaussian 16 at Sat Sep 11 18:27:11 2021.
