 Gaussian 16, Revision A.03,
 Gaussian 16:  ES64L-G16RevA.03 25-Dec-2016

 -----------------------------------
 #p cam-b3lyp/Def2SVP td=(nstates=5)
 -----------------------------------

 --------------------------------
 TDDFT excited states in gaussian
 --------------------------------
 Symbolic Z-matrix:
 Charge =  0 Multiplicity = 1

                         Standard orientation:
 ---------------------------------------------------------------------
 Center     Atomic      Atomic             Coordinates (Angstroms)
 Number     Number       Type             X           Y           Z
 ---------------------------------------------------------------------
      1         12           0        4.695449   -0.363905    0.425587
      2          6           0        4.815568    2.732046   -1.366863
      3          6           0        5.246265    1.434494    3.272590
      4          6           0        5.046004   -3.114054    1.965200
      5          6           0        5.287129   -1.973429   -2.608389
      6          7           0        4.976549    1.803215    0.779451
      7          6           0        4.940592    2.890289    0.015155
      8          6           0        4.972335    4.218729    0.828550
      9          6           0        5.669877    3.683037    2.158387
     10          6           0        5.243916    2.227246    2.086601
     11          6           0        7.193070    3.751714    2.117549
     12          6           0        3.536841    4.773094    1.117973
     13          6           0        3.483494    6.220062    1.616763
     14          1           0        2.374675    7.064485    1.198650
     15          7           0        4.604255   -0.771943    2.356400
     16          6           0        4.842923    0.085728    3.377539
     17          6           0        4.646571   -0.693664    4.618778
     18          6           0        4.460222   -2.120671    4.235345
     19          6           0        4.725573   -2.062499    2.820572
     20          6           0        4.600698   -0.073202    5.981376
     21          6           0        4.110417   -3.344596    5.021332
     22          8           0        4.226846   -4.521372    4.535313
     23          6           0        3.706790   -3.132027    6.423096
     24          7           0        5.324704   -2.260022   -0.179735
     25          6           0        5.328596   -3.290604    0.672831
     26          6           0        5.541436   -4.591124   -0.043609
     27          6           0        5.439975   -4.258992   -1.602181
     28          6           0        5.257269   -2.724246   -1.505007
     29          6           0        6.871600   -5.302182    0.241121
     30          6           0        4.413520   -5.073069   -2.429277
     31          6           0        3.008503   -4.714858   -1.999497
     32          7           0        4.825424    0.223226   -1.659942
     33          6           0        5.102746   -0.608668   -2.754346
     34          6           0        5.193486    0.258051   -3.943729
     35          6           0        4.977664    1.544216   -3.452764
     36          6           0        4.791611    1.487598   -2.041924
     37          6           0        5.504296   -0.169530   -5.264716
     38          6           0        4.885425    2.955880   -3.788254
     39          8           0        4.867483    3.598014   -4.839365
     40          6           0        4.897989    3.794466   -2.434577
     41          6           0        3.782333    4.800691   -2.512897
     42          8           0        2.589449    4.434133   -2.518381
     43          8           0        4.281294    6.032810   -2.329972
     44          6           0        3.222014    7.076239   -2.366523
     45          1           0        5.647702    1.862920    4.193047
     46          1           0        5.067163   -4.097237    2.439903
     47          1           0        5.385281   -2.414302   -3.602094
     48          1           0        5.576614    5.009618    0.383841
     49          1           0        5.259628    4.154310    3.051315
     50          1           0        7.552622    4.037780    1.129212
     51          1           0        7.536568    2.748856    2.372065
     52          1           0        7.572474    4.406578    2.902394
     53          1           0        3.122591    4.261908    1.986966
     54          1           0        2.899382    4.671001    0.239025
     55          1           0        4.433573    6.731310    1.459018
     56          1           0        3.361229    6.203697    2.699807
     57          1           0        4.933774    0.963705    5.960695
     58          1           0        5.345580   -0.585686    6.589833
     59          1           0        3.618290   -0.170434    6.443710
     60          1           0        4.514664   -2.632752    6.958460
     61          1           0        3.408072   -4.108992    6.801457
     62          1           0        2.856342   -2.450002    6.446105
     63          1           0        4.769193   -5.313080    0.218775
     64          1           0        6.386585   -4.422720   -2.117736
     65          1           0        6.752962   -6.317590    0.620037
     66          1           0        7.439309   -4.687992    0.939525
     67          1           0        7.553715   -5.352534   -0.607171
     68          1           0        4.541948   -6.139812   -2.248967
     69          1           0        4.496682   -4.905868   -3.503232
     70          1           0        2.851660   -5.348654   -1.127410
     71          1           0        2.296217   -4.954730   -2.789637
     72          1           0        2.946392   -3.679128   -1.664994
     73          1           0        4.813983    0.354811   -5.925400
     74          1           0        5.404792   -1.250119   -5.364857
     75          1           0        6.538664    0.163942   -5.346777
     76          1           0        5.875556    4.271278   -2.370278
     77          1           0        3.509091    7.798431   -3.130891
     78          1           0        3.108942    7.438943   -1.344728
     79          1           0        2.246628    6.760123   -2.738050
     80         12           0       -4.253060   -0.973323   -0.211072
     81          6           0       -6.939674    1.371138    0.194704
     82          6           0       -2.165248    1.703903   -0.539903
     83          6           0       -1.946586   -2.997193   -1.018272
     84          6           0       -6.653466   -3.378113   -0.986101
     85          7           0       -4.623169    1.206735   -0.159969
     86          6           0       -5.674678    1.980817    0.062431
     87          6           0       -5.340584    3.487662    0.227905
     88          6           0       -3.953922    3.516808   -0.581539
     89          6           0       -3.528816    2.062334   -0.390599
     90          6           0       -4.130731    3.771389   -2.069242
     91          6           0       -5.137549    3.893443    1.729945
     92          6           0       -5.114694    5.401051    1.991365
     93          1           0       -5.695830    5.900822    3.234340
     94          7           0       -2.282695   -0.736440   -0.223077
     95          6           0       -1.603278    0.423516   -0.342043
     96          6           0       -0.178141    0.059602   -0.315298
     97          6           0       -0.072563   -1.424688   -0.336605
     98          6           0       -1.459631   -1.784553   -0.552530
     99          6           0        0.919243    1.076662   -0.193839
    100          6           0        1.086967   -2.364344   -0.199729
    101          8           0        0.982536   -3.609046   -0.487185
    102          6           0        2.372241   -1.767031    0.191160
    103          7           0       -4.273106   -2.849412   -1.106753
    104          6           0       -3.133350   -3.537019   -1.296672
    105          6           0       -3.418022   -4.964283   -1.699500
    106          6           0       -4.993312   -5.159587   -1.504826
    107          6           0       -5.377167   -3.722211   -1.090078
    108          6           0       -3.031547   -5.341637   -3.129408
    109          6           0       -5.450058   -6.336792   -0.600257
    110          6           0       -5.049241   -6.071888    0.833114
    111          7           0       -6.411017   -1.078270   -0.195824
    112          6           0       -7.214516   -2.173130   -0.582836
    113          6           0       -8.621351   -1.728483   -0.508514
    114          6           0       -8.537042   -0.388170   -0.102377
    115          6           0       -7.173143   -0.017341    0.045132
    116          6           0       -9.760688   -2.513580   -0.842647
    117          6           0       -9.291349    0.800381    0.224842
    118          8           0      -10.486116    1.061269    0.359775
    119          6           0       -8.286698    2.029155    0.309470
    120          6           0       -8.589328    2.790540    1.570909
    121          8           0       -8.402695    2.268796    2.684263
    122          8           0       -8.840363    4.075469    1.260550
    123          6           0       -9.135279    4.873664    2.480267
    124          1           0       -1.463225    2.464864   -0.881921
    125          1           0       -1.194211   -3.766871   -1.205373
    126          1           0       -7.464593   -4.097504   -1.117417
    127          1           0       -6.052651    4.163770   -0.229929
    128          1           0       -3.237843    4.187832   -0.114270
    129          1           0       -5.171627    3.773221   -2.356756
    130          1           0       -3.601434    2.971041   -2.569582
    131          1           0       -3.621215    4.695556   -2.356705
    132          1           0       -4.115827    3.634192    2.035914
    133          1           0       -5.877288    3.429787    2.353202
    134          1           0       -5.489554    5.973723    1.134349
    135          1           0       -4.074472    5.719978    2.092479
    136          1           0        0.545862    2.093755   -0.365598
    137          1           0        1.613349    0.898618   -1.022323
    138          1           0        1.465559    0.996376    0.748373
    139          1           0        2.656650   -1.012629   -0.538528
    140          1           0        3.056564   -2.607220    0.324056
    141          1           0        2.240159   -1.246867    1.146462
    142          1           0       -2.895321   -5.659775   -1.054387
    143          1           0       -5.500612   -5.356935   -2.460621
    144          1           0       -2.332280   -6.197453   -3.181126
    145          1           0       -2.603220   -4.471128   -3.608234
    146          1           0       -3.866724   -5.579067   -3.786142
    147          1           0       -4.946966   -7.260170   -0.897627
    148          1           0       -6.517853   -6.524148   -0.641555
    149          1           0       -4.007353   -6.404511    0.863511
    150          1           0       -5.668054   -6.649415    1.516907
    151          1           0       -5.058918   -4.997895    1.052406
    152          1           0      -10.498614   -2.335228   -0.071827
    153          1           0       -9.508372   -3.569391   -0.915903
    154          1           0      -10.015203   -2.083919   -1.815209
    155          1           0       -8.438104    2.638153   -0.582598
    156          1           0      -10.109698    5.346887    2.324540
    157          1           0       -8.265763    5.543913    2.616154
    158          1           0       -9.307877    4.332975    3.403486
 ---------------------------------------------------------------------

 SCF Done:  E(RCAM-B3LYP) =  -4069.80480062     A.U. after   19 cycles

 Excitation energies and oscillator strengths:

 Excited State   1:      Singlet-A      1.6552 eV  749.06 nm  f=0.4146  <S**2>=0.000
     310 -> 316       -0.12910
     311 -> 313        0.33289
     312 -> 314        0.59087
 This state for optimization and/or second-order correction.
 Total Energy, E(TD-HF/TD-DFT) =  -4069.74397349
 Copying the excited state density for this state as the 1-particle RhoCI density.

 Excited State   2:      Singlet-A      1.6723 eV  741.41 nm  f=0.3978  <S**2>=0.000
     309 -> 315       -0.14013
     311 -> 313        0.59406
     312 -> 314       -0.34106

 Excited State   3:      Singlet-A      2.1655 eV  572.54 nm  f=0.0031  <S**2>=0.000
     309 -> 313        0.50227
     310 -> 314       -0.40111
     311 -> 315        0.18334
     312 -> 316       -0.13907

 Excited State   4:      Singlet-A      2.1853 eV  567.35 nm  f=0.1677  <S**2>=0.000
     309 -> 313        0.39703
     310 -> 314        0.50057
     311 -> 315        0.16794
     312 -> 316        0.19637

 Excited State   5:      Singlet-A      2.3131 eV  536.00 nm  f=0.0001  <S**2>=0.000
     312 -> 313        0.69882

 The electronic state is 1-A.
 Alpha  occ. eigenvalues --  -46.87911 -46.87602 -19.26792 -19.26321 -19.19613
 Alpha  occ. eigenvalues --  -19.19210 -19.19133 -19.18877 -19.18463 -19.18007
 Alpha  occ. eigenvalues --  -14.42628 -14.42425 -14.41283 -14.41274 -14.39437
 Alpha  occ. eigenvalues --  -14.39328 -14.38771 -14.38544 -10.39616 -10.39060
 Alpha  occ. eigenvalues --  -10.36058 -10.35506 -10.34689 -10.34183 -10.32178
 Alpha  occ. eigenvalues --  -10.31740 -10.31626 -10.31169 -10.31169 -10.30944
 Alpha  occ. eigenvalues --  -10.30746 -10.30626 -10.30410 -10.30253 -10.30197
 Alpha  occ. eigenvalues --  -10.30094 -10.29875 -10.29865 -10.29769 -10.29467
 Alpha  occ. eigenvalues --  -10.29408 -10.29387 -10.29081 -10.28996 -10.28624
 Alpha  occ. eigenvalues --  -10.28621 -10.28604 -10.28380 -10.28342 -10.28018
 Alpha  occ. eigenvalues --  -10.27952 -10.27939 -10.27869 -10.27740 -10.27610
 Alpha  occ. eigenvalues --  -10.27600 -10.27495 -10.27490 -10.27487 -10.27484
 Alpha  occ. eigenvalues --  -10.27440 -10.27359 -10.27249 -10.27197 -10.27117
 Alpha  occ. eigenvalues --  -10.27062 -10.27003 -10.26979 -10.26632 -10.26447
 Alpha  occ. eigenvalues --  -10.26445 -10.26130 -10.26110 -10.25987 -10.25864
 Alpha  occ. eigenvalues --  -10.25803 -10.25734 -10.25399 -10.25205 -10.25093
 Alpha  occ. eigenvalues --  -10.25068 -10.24934 -10.24823 -10.24699 -10.24652
 Alpha  occ. eigenvalues --  -10.22745  -3.16631  -3.16352  -1.91524  -1.91234
 Alpha  occ. eigenvalues --   -1.91099  -1.90944  -1.90822  -1.90660  -1.17145
 Alpha  occ. eigenvalues --   -1.16615  -1.08937  -1.08615  -1.07615  -1.07269
 Alpha  occ. eigenvalues --   -1.07197  -1.06917  -1.04791  -1.04422  -1.03875
 Alpha  occ. eigenvalues --   -1.03618  -1.03400  -1.02989  -1.02555  -1.02055
 Alpha  occ. eigenvalues --   -0.92221  -0.91927  -0.89524  -0.89447  -0.89352
 Alpha  occ. eigenvalues --   -0.89014  -0.88180  -0.88091  -0.87992  -0.87812
 Alpha  occ. eigenvalues --   -0.87742  -0.87587  -0.87420  -0.87321  -0.85233
 Alpha  occ. eigenvalues --   -0.84955  -0.83895  -0.83717  -0.83543  -0.82927
 Alpha  occ. eigenvalues --   -0.82643  -0.82615  -0.81846  -0.81564  -0.80771
 Alpha  occ. eigenvalues --   -0.80469  -0.78937  -0.78632  -0.77374  -0.77073
 Alpha  occ. eigenvalues --   -0.76981  -0.76830  -0.76108  -0.75720  -0.74748
 Alpha  occ. eigenvalues --   -0.74701  -0.72892  -0.72620  -0.71801  -0.71506
 Alpha  occ. eigenvalues --   -0.69717  -0.69379  -0.69028  -0.68832  -0.67838
 Alpha  occ. eigenvalues --   -0.67747  -0.67468  -0.67299  -0.65551  -0.65200
 Alpha  occ. eigenvalues --   -0.65068  -0.64749  -0.64717  -0.64626  -0.64167
 Alpha  occ. eigenvalues --   -0.63935  -0.62514  -0.62233  -0.60935  -0.60359
 Alpha  occ. eigenvalues --   -0.60000  -0.59702  -0.59112  -0.58937  -0.58623
 Alpha  occ. eigenvalues --   -0.58376  -0.57926  -0.57547  -0.57450  -0.57280
 Alpha  occ. eigenvalues --   -0.56550  -0.56314  -0.56287  -0.55960  -0.55739
 Alpha  occ. eigenvalues --   -0.55643  -0.55421  -0.55214  -0.54598  -0.54463
 Alpha  occ. eigenvalues --   -0.54176  -0.53900  -0.53786  -0.53442  -0.53366
 Alpha  occ. eigenvalues --   -0.53338  -0.53142  -0.53084  -0.52830  -0.52815
 Alpha  occ. eigenvalues --   -0.52397  -0.52094  -0.51885  -0.51863  -0.51755
 Alpha  occ. eigenvalues --   -0.51675  -0.51360  -0.51154  -0.50866  -0.50622
 Alpha  occ. eigenvalues --   -0.50407  -0.50114  -0.49863  -0.49737  -0.49616
 Alpha  occ. eigenvalues --   -0.49524  -0.49455  -0.49301  -0.49144  -0.49047
 Alpha  occ. eigenvalues --   -0.48852  -0.48788  -0.48531  -0.48476  -0.48382
 Alpha  occ. eigenvalues --   -0.48190  -0.47737  -0.47638  -0.47317  -0.47084
 Alpha  occ. eigenvalues --   -0.46876  -0.46710  -0.46637  -0.46607  -0.46510
 Alpha  occ. eigenvalues --   -0.46215  -0.46103  -0.46029  -0.45874  -0.45769
 Alpha  occ. eigenvalues --   -0.45261  -0.45110  -0.44873  -0.44610  -0.44458
 Alpha  occ. eigenvalues --   -0.44379  -0.44264  -0.44215  -0.44066  -0.44006
 Alpha  occ. eigenvalues --   -0.43959  -0.43820  -0.43717  -0.43509  -0.43409
 Alpha  occ. eigenvalues --   -0.43320  -0.43130  -0.42932  -0.42856  -0.42804
 Alpha  occ. eigenvalues --   -0.42523  -0.42460  -0.42052  -0.41907  -0.41828
 Alpha  occ. eigenvalues --   -0.41657  -0.41501  -0.41306  -0.41235  -0.41052
 Alpha  occ. eigenvalues --   -0.40915  -0.40893  -0.40764  -0.40622  -0.40506
 Alpha  occ. eigenvalues --   -0.40426  -0.40250  -0.39635  -0.39383  -0.38553
 Alpha  occ. eigenvalues --   -0.38303  -0.38247  -0.37961  -0.37587  -0.37471
 Alpha  occ. eigenvalues --   -0.37204  -0.37153  -0.37113  -0.36947  -0.36740
 Alpha  occ. eigenvalues --   -0.36176  -0.36146  -0.34458  -0.34262  -0.34193
 Alpha  occ. eigenvalues --   -0.33827  -0.33355  -0.33101  -0.31627  -0.31398
 Alpha  occ. eigenvalues --   -0.31203  -0.30916  -0.30320  -0.29911  -0.29619
 Alpha  occ. eigenvalues --   -0.29534  -0.29284  -0.29159  -0.24220  -0.23964
 Alpha  occ. eigenvalues --   -0.21309  -0.21046
 Alpha virt. eigenvalues --   -0.08961  -0.08759  -0.02011  -0.01682  -0.00309
 Alpha virt. eigenvalues --   -0.00164   0.01952   0.02196   0.03264   0.04372
 Alpha virt. eigenvalues --    0.04523   0.04810   0.05121   0.05196   0.06247

 Mulliken charges:
               1
     1  Mg   0.565350
     2  C   -0.001146
     3  C   -0.093093
     4  C   -0.038782
     5  C   -0.053043
     6  N   -0.247363
     7  C   -0.056389
     8  C   -0.012500
     9  C   -0.085737
    10  C    0.045780
    11  C    0.104795
    12  C    0.050473
    13  C   -0.071386
    14  H    0.033567
    15  N   -0.418970
    16  C    0.168218
    17  C   -0.178928
    18  C   -0.003194
    19  C    0.142442
    20  C    0.110894
    21  C    0.012741
    22  O   -0.246888
    23  C    0.062624
    24  N   -0.317552
    25  C    0.022999
    26  C   -0.014959
    27  C   -0.024576
    28  C    0.075711
    29  C    0.078373
    30  C    0.050681
    31  C    0.012943
    32  N   -0.310248
    33  C    0.075456
    34  C   -0.169208
    35  C    0.008503
    36  C    0.076842
    37  C    0.127773
    38  C    0.045149
    39  O   -0.187968
    40  C   -0.008100
    41  C    0.213698
    42  O   -0.262923
    43  O   -0.303256
    44  C    0.157579
    45  H   -0.018880
    46  H   -0.014596
    47  H   -0.040827
    48  H    0.001028
    49  H   -0.004480
    50  H    0.025640
    51  H    0.017941
    52  H    0.016972
    53  H    0.010910
    54  H    0.041439
    55  H    0.019669
    56  H    0.019168
    57  H    0.005650
    58  H    0.027291
    59  H    0.039503
    60  H    0.037256
    61  H    0.036847
    62  H    0.031215
    63  H    0.019108
    64  H    0.007057
    65  H    0.023191
    66  H    0.010613
    67  H    0.004338
    68  H   -0.000076
    69  H   -0.004908
    70  H    0.011918
    71  H    0.007612
    72  H    0.012833
    73  H    0.046764
    74  H    0.011332
    75  H    0.046294
    76  H    0.036186
    77  H    0.044614
    78  H    0.046775
    79  H    0.051311
    80  Mg   0.838675
    81  C   -0.016548
    82  C   -0.089683
    83  C   -0.045806
    84  C   -0.065299
    85  N   -0.254335
    86  C   -0.049660
    87  C   -0.015277
    88  C   -0.089695
    89  C    0.043749
    90  C    0.114003
    91  C    0.062587
    92  C   -0.077370
    93  H    0.033516
    94  N   -0.423725
    95  C    0.161516
    96  C   -0.177403
    97  C    0.006593
    98  C    0.152325
    99  C    0.072823
   100  C    0.055751
   101  O   -0.241878
   102  C   -0.055950
   103  N   -0.350491
   104  C    0.037519
   105  C   -0.020019
   106  C   -0.034876
   107  C    0.089456
   108  C    0.073397
   109  C    0.034780
   110  C   -0.007648
   111  N   -0.324058
   112  C    0.078626
   113  C   -0.163410
   114  C    0.002445
   115  C    0.096008
   116  C    0.131510
   117  C    0.042267
   118  O   -0.188067
   119  C    0.000949
   120  C    0.211290
   121  O   -0.251354
   122  O   -0.305419
   123  C    0.152163
   124  H   -0.008132
   125  H   -0.016303
   126  H   -0.040718
   127  H   -0.000700
   128  H   -0.003425
   129  H    0.021166
   130  H    0.017268
   131  H    0.018581
   132  H    0.013547
   133  H    0.037046
   134  H    0.021153
   135  H    0.019290
   136  H    0.021502
   137  H    0.055815
   138  H    0.056315
   139  H    0.135040
   140  H    0.106022
   141  H    0.118904
   142  H    0.014093
   143  H    0.012506
   144  H    0.023913
   145  H    0.012244
   146  H    0.006015
   147  H    0.006006
   148  H    0.003632
   149  H    0.011112
   150  H    0.017841
   151  H    0.030122
   152  H    0.045750
   153  H    0.008366
   154  H    0.047020
   155  H    0.035431
   156  H    0.043820
   157  H    0.049431
   158  H    0.053259
 Sum of Mulliken charges =  -0.00000

 Dipole moment (field-independent basis, Debye):
    X=              4.4604    Y=              2.7140    Z=              2.5695  Tot=              5.8192
 Quadrupole moment (field-independent basis, Debye-Ang):
   XX=           -553.2422   YY=           -471.4205   ZZ=           -511.1324
   XY=             15.2697   XZ=             32.4501   YZ=             41.0194

 Normal termination of Gaussian 16 at Fri Sep 10 08:30:29 2021.
