 Gaussian 16, Revision A.03,
 Gaussian 16:  ES64L-G16RevA.03 25-Dec-2016

 -----------------------------------
 #p cam-b3lyp/Def2SVP td=(nstates=5)
 -----------------------------------

 --------------------------------
 TDDFT excited states in gaussian
 --------------------------------
 Symbolic Z-matrix:
 Charge =  0 Multiplicity = 1

                         Standard orientation:
 ---------------------------------------------------------------------
 Center     Atomic      Atomic             Coordinates (Angstroms)
 Number     Number       Type             X           Y           Z
 ---------------------------------------------------------------------
      1         12           0        4.461671    0.496498    1.365378
      2          6           0        5.284410   -2.429528   -0.525042
      3          6           0        6.096000    2.313240   -1.016110
      4          6           0        4.143659    3.035220    3.238978
      5          6           0        3.912127   -1.600756    4.093965
      6          7           0        5.514146   -0.096875   -0.489575
      7          6           0        5.706138   -1.244594   -1.132266
      8          6           0        6.330649   -1.062931   -2.548020
      9          6           0        7.038682    0.349096   -2.331531
     10          6           0        6.142962    0.904922   -1.238523
     11          6           0        8.461586    0.240964   -1.792872
     12          6           0        5.243577   -0.992270   -3.672749
     13          6           0        5.771678   -1.143446   -5.102297
     14          1           0        4.954309   -1.845549   -6.080207
     15          7           0        4.593897    2.422601    0.946458
     16          6           0        5.289492    2.984097   -0.071460
     17          6           0        5.073551    4.442502    0.043017
     18          6           0        4.351817    4.696707    1.320739
     19          6           0        4.357464    3.380635    1.906656
     20          6           0        5.489094    5.421145   -1.012130
     21          6           0        3.761412    5.932099    1.923533
     22          8           0        3.384694    5.980056    3.144335
     23          6           0        3.716573    7.126915    1.061300
     24          7           0        4.295281    0.722901    3.433877
     25          6           0        4.108802    1.928006    3.983362
     26          6           0        3.737401    1.815882    5.432302
     27          6           0        3.469838    0.264822    5.701327
     28          6           0        3.834368   -0.284084    4.299867
     29          6           0        4.779652    2.334943    6.432452
     30          6           0        2.096565   -0.116871    6.308657
     31          6           0        0.997463    0.162439    5.308128
     32          7           0        4.397104   -1.646076    1.706338
     33          6           0        4.173488   -2.299205    2.927032
     34          6           0        4.330681   -3.744141    2.679002
     35          6           0        4.653219   -3.830619    1.326103
     36          6           0        4.720639   -2.520970    0.770616
     37          6           0        4.232330   -4.773078    3.656781
     38          6           0        4.980763   -4.723316    0.226256
     39          8           0        4.987421   -5.945731    0.074105
     40          6           0        5.521934   -3.845668   -0.987290
     41          6           0        4.814818   -4.306815   -2.232537
     42          8           0        3.588550   -4.125268   -2.376318
     43          8           0        5.723201   -4.670182   -3.150876
     44          6           0        5.088317   -5.110544   -4.421765
     45          1           0        6.779355    2.958424   -1.571721
     46          1           0        3.919867    3.876979    3.897611
     47          1           0        3.672760   -2.321110    4.878342
     48          1           0        7.073196   -1.814375   -2.817055
     49          1           0        6.981453    0.973912   -3.222627
     50          1           0        8.708904   -0.785959   -1.524201
     51          1           0        8.488682    0.882110   -0.911572
     52          1           0        9.175815    0.668900   -2.496807
     53          1           0        4.848248    0.022027   -3.727300
     54          1           0        4.459377   -1.729766   -3.498231
     55          1           0        6.792329   -1.526973   -5.111677
     56          1           0        5.851533   -0.149993   -5.543743
     57          1           0        6.141355    4.959233   -1.752223
     58          1           0        6.116570    6.167262   -0.525004
     59          1           0        4.633420    5.908841   -1.479364
     60          1           0        4.728729    7.381567    0.746272
     61          1           0        3.181686    7.887499    1.628978
     62          1           0        3.164140    6.886046    0.152593
     63          1           0        2.829438    2.377631    5.647865
     64          1           0        4.195031   -0.161000    6.395190
     65          1           0        4.398333    3.107113    7.101074
     66          1           0        5.638370    2.696194    5.867304
     67          1           0        5.237630    1.566965    7.055253
     68          1           0        1.889905    0.489616    7.189798
     69          1           0        2.032915   -1.164102    6.604472
     70          1           0        0.799338    1.223699    5.454091
     71          1           0        0.114108   -0.434704    5.536854
     72          1           0        1.349244    0.034443    4.284237
     73          1           0        3.649690   -5.573085    3.200175
     74          1           0        3.759075   -4.409062    4.568441
     75          1           0        5.284998   -5.015852    3.801025
     76          1           0        6.597072   -4.013974   -1.040893
     77          1           0        5.456186   -6.114623   -4.633267
     78          1           0        5.292785   -4.331566   -5.156470
     79          1           0        4.012919   -5.288448   -4.387023
     80         12           0       -4.134365    0.422035   -1.279082
     81          6           0       -6.392792   -1.660813    0.575709
     82          6           0       -6.417781    2.934482   -0.950138
     83          6           0       -2.380974    2.144045   -3.286015
     84          6           0       -2.603782   -2.493149   -2.421318
     85          7           0       -6.112101    0.504157   -0.292142
     86          6           0       -6.840305   -0.330771    0.433785
     87          6           0       -8.079421    0.316352    1.108610
     88          6           0       -8.280131    1.554535    0.105869
     89          6           0       -6.842882    1.703919   -0.388781
     90          6           0       -9.163835    1.226501   -1.086108
     91          6           0       -7.778283    0.803294    2.569513
     92          6           0       -9.015439    1.162010    3.395663
     93          1           0       -9.005209    0.870914    4.826626
     94          7           0       -4.109855    2.378842   -1.609066
     95          6           0       -5.116832    3.252262   -1.398323
     96          6           0       -4.604249    4.565967   -1.817374
     97          6           0       -3.269936    4.369916   -2.446581
     98          6           0       -3.209696    2.922697   -2.491354
     99          6           0       -5.329385    5.849876   -1.535963
    100          6           0       -2.227007    5.326693   -2.939591
    101          8           0       -1.246615    4.937557   -3.667766
    102          6           0       -2.438049    6.746810   -2.623000
    103          7           0       -2.836799   -0.095660   -2.818779
    104          6           0       -2.161432    0.846596   -3.499928
    105          6           0       -1.088702    0.230200   -4.365761
    106          6           0       -1.024132   -1.309650   -3.938848
    107          6           0       -2.182941   -1.338078   -2.918180
    108          6           0       -1.312190    0.330816   -5.874511
    109          6           0        0.360330   -1.861081   -3.500842
    110          6           0        0.782766   -1.219904   -2.198606
    111          7           0       -4.298769   -1.690028   -0.854604
    112          6           0       -3.580945   -2.741315   -1.465834
    113          6           0       -4.120588   -4.007120   -0.928297
    114          6           0       -5.138575   -3.601938   -0.051927
    115          6           0       -5.240639   -2.184541   -0.059104
    116          6           0       -3.699118   -5.315167   -1.299142
    117          6           0       -6.157134   -4.051444    0.869582
    118          8           0       -6.480196   -5.139677    1.344052
    119          6           0       -7.099112   -2.820479    1.221395
    120          6           0       -7.281314   -2.786769    2.714103
    121          8           0       -6.316415   -2.554531    3.463536
    122          8           0       -8.596087   -2.817700    2.998343
    123          6           0       -8.828110   -2.774988    4.466730
    124          1           0       -7.159372    3.719328   -1.101592
    125          1           0       -1.678410    2.694582   -3.915917
    126          1           0       -2.114509   -3.441472   -2.653652
    127          1           0       -8.967930   -0.303532    1.116490
    128          1           0       -8.594595    2.447818    0.639266
    129          1           0       -9.415787    0.177105   -1.124163
    130          1           0       -8.594623    1.510911   -1.961405
    131          1           0      -10.052104    1.864693   -1.083778
    132          1           0       -7.290101    1.785402    2.526107
    133          1           0       -7.188004    0.080225    3.098068
    134          1           0       -9.939892    0.793034    2.935030
    135          1           0       -9.130498    2.248648    3.394322
    136          1           0       -6.360064    5.666241   -1.208276
    137          1           0       -5.437531    6.372338   -2.492623
    138          1           0       -4.788926    6.495060   -0.840039
    139          1           0       -3.390193    7.071258   -3.036048
    140          1           0       -1.544304    7.261867   -2.980523
    141          1           0       -2.513522    6.855292   -1.535268
    142          1           0       -0.126279    0.688632   -4.174204
    143          1           0       -1.316730   -1.974158   -4.765068
    144          1           0       -0.481264    0.831547   -6.406394
    145          1           0       -2.243864    0.852926   -6.047490
    146          1           0       -1.481715   -0.618077   -6.380540
    147          1           0        1.123078   -1.598316   -4.237949
    148          1           0        0.379559   -2.939931   -3.388100
    149          1           0        1.221787   -0.271220   -2.521643
    150          1           0        1.515752   -1.839904   -1.686398
    151          1           0       -0.087655   -0.984933   -1.575057
    152          1           0       -3.621194   -5.888108   -0.384721
    153          1           0       -2.752983   -5.290806   -1.835804
    154          1           0       -4.529830   -5.611970   -1.944963
    155          1           0       -8.043612   -2.970367    0.696968
    156          1           0       -9.438276   -3.647694    4.719283
    157          1           0       -9.264224   -1.779178    4.671429
    158          1           0       -7.971353   -2.921474    5.113999
 ---------------------------------------------------------------------

 SCF Done:  E(RCAM-B3LYP) =  -4069.81496847     A.U. after   19 cycles

 Excitation energies and oscillator strengths:

 Excited State   1:      Singlet-A      1.6444 eV  753.96 nm  f=0.0044  <S**2>=0.000
     309 -> 315       -0.11193
     310 -> 316        0.12258
     311 -> 313       -0.46150
     312 -> 314        0.50993
 This state for optimization and/or second-order correction.
 Total Energy, E(TD-HF/TD-DFT) =  -4069.75453679
 Copying the excited state density for this state as the 1-particle RhoCI density.

 Excited State   2:      Singlet-A      1.7025 eV  728.23 nm  f=0.6954  <S**2>=0.000
     309 -> 315        0.13466
     310 -> 316        0.12077
     311 -> 313        0.50741
     312 -> 314        0.45916

 Excited State   3:      Singlet-A      2.1808 eV  568.53 nm  f=0.0532  <S**2>=0.000
     309 -> 313        0.22421
     310 -> 314        0.60419
     312 -> 316       -0.25205

 Excited State   4:      Singlet-A      2.1961 eV  564.56 nm  f=0.1330  <S**2>=0.000
     309 -> 313        0.60015
     310 -> 314       -0.22064
     311 -> 315       -0.26317

 Excited State   5:      Singlet-A      2.4123 eV  513.96 nm  f=0.0000  <S**2>=0.000
     312 -> 313        0.70677

 The electronic state is 1-A.
 Alpha  occ. eigenvalues --  -46.87702 -46.87374 -19.26586 -19.26186 -19.19474
 Alpha  occ. eigenvalues --  -19.18985 -19.18713 -19.18565 -19.18167 -19.17818
 Alpha  occ. eigenvalues --  -14.42375 -14.42225 -14.41354 -14.41038 -14.39305
 Alpha  occ. eigenvalues --  -14.39080 -14.38505 -14.38311 -10.39430 -10.38908
 Alpha  occ. eigenvalues --  -10.35344 -10.35250 -10.34402 -10.33994 -10.31943
 Alpha  occ. eigenvalues --  -10.31621 -10.31354 -10.31028 -10.30871 -10.30793
 Alpha  occ. eigenvalues --  -10.30493 -10.30421 -10.30105 -10.30079 -10.30060
 Alpha  occ. eigenvalues --  -10.29831 -10.29794 -10.29559 -10.29542 -10.29162
 Alpha  occ. eigenvalues --  -10.29142 -10.29120 -10.28789 -10.28679 -10.28517
 Alpha  occ. eigenvalues --  -10.28508 -10.28310 -10.28157 -10.28107 -10.27925
 Alpha  occ. eigenvalues --  -10.27734 -10.27704 -10.27641 -10.27486 -10.27396
 Alpha  occ. eigenvalues --  -10.27377 -10.27340 -10.27318 -10.27305 -10.27265
 Alpha  occ. eigenvalues --  -10.27247 -10.27218 -10.27205 -10.26974 -10.26961
 Alpha  occ. eigenvalues --  -10.26849 -10.26830 -10.26516 -10.26344 -10.26277
 Alpha  occ. eigenvalues --  -10.26213 -10.25952 -10.25903 -10.25830 -10.25709
 Alpha  occ. eigenvalues --  -10.25556 -10.25458 -10.25323 -10.25180 -10.25131
 Alpha  occ. eigenvalues --  -10.24764 -10.24703 -10.24609 -10.24406 -10.24393
 Alpha  occ. eigenvalues --  -10.23670  -3.16442  -3.16124  -1.91323  -1.91007
 Alpha  occ. eigenvalues --   -1.90911  -1.90753  -1.90595  -1.90432  -1.16942
 Alpha  occ. eigenvalues --   -1.16476  -1.08652  -1.08428  -1.07114  -1.07012
 Alpha  occ. eigenvalues --   -1.06827  -1.06768  -1.04518  -1.04230  -1.03671
 Alpha  occ. eigenvalues --   -1.03375  -1.03143  -1.02731  -1.02325  -1.01818
 Alpha  occ. eigenvalues --   -0.91956  -0.91724  -0.89399  -0.89192  -0.89078
 Alpha  occ. eigenvalues --   -0.88904  -0.88163  -0.87777  -0.87752  -0.87609
 Alpha  occ. eigenvalues --   -0.87489  -0.87398  -0.87154  -0.86901  -0.84979
 Alpha  occ. eigenvalues --   -0.84764  -0.83821  -0.83388  -0.82844  -0.82688
 Alpha  occ. eigenvalues --   -0.82634  -0.82367  -0.81644  -0.81340  -0.80574
 Alpha  occ. eigenvalues --   -0.80188  -0.78690  -0.78374  -0.77148  -0.76939
 Alpha  occ. eigenvalues --   -0.76868  -0.76561  -0.75921  -0.75588  -0.74809
 Alpha  occ. eigenvalues --   -0.74439  -0.72686  -0.72386  -0.71620  -0.71309
 Alpha  occ. eigenvalues --   -0.69738  -0.69148  -0.68850  -0.68567  -0.67592
 Alpha  occ. eigenvalues --   -0.67339  -0.67219  -0.67002  -0.65293  -0.65034
 Alpha  occ. eigenvalues --   -0.64844  -0.64587  -0.64475  -0.64368  -0.64157
 Alpha  occ. eigenvalues --   -0.63728  -0.62386  -0.62006  -0.60330  -0.60075
 Alpha  occ. eigenvalues --   -0.59778  -0.59556  -0.58934  -0.58695  -0.58466
 Alpha  occ. eigenvalues --   -0.58129  -0.57684  -0.57321  -0.57233  -0.56903
 Alpha  occ. eigenvalues --   -0.56294  -0.56071  -0.55925  -0.55663  -0.55470
 Alpha  occ. eigenvalues --   -0.55318  -0.55244  -0.54896  -0.54550  -0.54075
 Alpha  occ. eigenvalues --   -0.53914  -0.53693  -0.53225  -0.53204  -0.52990
 Alpha  occ. eigenvalues --   -0.52969  -0.52859  -0.52673  -0.52640  -0.52494
 Alpha  occ. eigenvalues --   -0.52258  -0.51833  -0.51682  -0.51611  -0.51521
 Alpha  occ. eigenvalues --   -0.51453  -0.51157  -0.50851  -0.50427  -0.50268
 Alpha  occ. eigenvalues --   -0.49922  -0.49821  -0.49751  -0.49525  -0.49381
 Alpha  occ. eigenvalues --   -0.49263  -0.49181  -0.49084  -0.48979  -0.48837
 Alpha  occ. eigenvalues --   -0.48614  -0.48422  -0.48346  -0.48330  -0.48159
 Alpha  occ. eigenvalues --   -0.48025  -0.47644  -0.47321  -0.47226  -0.46867
 Alpha  occ. eigenvalues --   -0.46725  -0.46563  -0.46404  -0.46299  -0.46288
 Alpha  occ. eigenvalues --   -0.46104  -0.45945  -0.45839  -0.45770  -0.45545
 Alpha  occ. eigenvalues --   -0.45098  -0.44836  -0.44578  -0.44438  -0.44302
 Alpha  occ. eigenvalues --   -0.44177  -0.44109  -0.44024  -0.43964  -0.43911
 Alpha  occ. eigenvalues --   -0.43735  -0.43641  -0.43532  -0.43338  -0.43236
 Alpha  occ. eigenvalues --   -0.43105  -0.42981  -0.42859  -0.42702  -0.42617
 Alpha  occ. eigenvalues --   -0.42520  -0.42137  -0.41924  -0.41664  -0.41518
 Alpha  occ. eigenvalues --   -0.41492  -0.41385  -0.41090  -0.41084  -0.40835
 Alpha  occ. eigenvalues --   -0.40754  -0.40729  -0.40559  -0.40454  -0.40407
 Alpha  occ. eigenvalues --   -0.40283  -0.40050  -0.39938  -0.39256  -0.38773
 Alpha  occ. eigenvalues --   -0.38367  -0.37930  -0.37796  -0.37428  -0.37254
 Alpha  occ. eigenvalues --   -0.37218  -0.36965  -0.36928  -0.36840  -0.36539
 Alpha  occ. eigenvalues --   -0.36186  -0.35852  -0.34237  -0.34079  -0.33963
 Alpha  occ. eigenvalues --   -0.33665  -0.33124  -0.32884  -0.31248  -0.31124
 Alpha  occ. eigenvalues --   -0.30979  -0.30695  -0.30038  -0.29720  -0.29351
 Alpha  occ. eigenvalues --   -0.29237  -0.29079  -0.28938  -0.24013  -0.23747
 Alpha  occ. eigenvalues --   -0.21039  -0.20826
 Alpha virt. eigenvalues --   -0.08687  -0.08520  -0.01661  -0.01397   0.00021
 Alpha virt. eigenvalues --    0.00180   0.02248   0.02478   0.02909   0.03845
 Alpha virt. eigenvalues --    0.04674   0.04762   0.04996   0.05354   0.05968

 Mulliken charges:
               1
     1  Mg   0.838168
     2  C   -0.005197
     3  C   -0.093275
     4  C   -0.045506
     5  C   -0.062811
     6  N   -0.256958
     7  C   -0.053961
     8  C   -0.013436
     9  C   -0.087334
    10  C    0.046784
    11  C    0.104761
    12  C    0.049320
    13  C   -0.071662
    14  H    0.033691
    15  N   -0.433310
    16  C    0.169602
    17  C   -0.175582
    18  C   -0.003203
    19  C    0.149046
    20  C    0.109722
    21  C    0.012744
    22  O   -0.250097
    23  C    0.061517
    24  N   -0.340902
    25  C    0.041521
    26  C   -0.028128
    27  C   -0.024130
    28  C    0.074854
    29  C    0.076278
    30  C    0.034918
    31  C   -0.005083
    32  N   -0.310659
    33  C    0.080760
    34  C   -0.168973
    35  C    0.007189
    36  C    0.082851
    37  C    0.127211
    38  C    0.045307
    39  O   -0.188985
    40  C   -0.005803
    41  C    0.216076
    42  O   -0.259396
    43  O   -0.303208
    44  C    0.157290
    45  H   -0.017682
    46  H   -0.016824
    47  H   -0.040592
    48  H    0.000594
    49  H   -0.003626
    50  H    0.025318
    51  H    0.016951
    52  H    0.016754
    53  H    0.012871
    54  H    0.043763
    55  H    0.018741
    56  H    0.019446
    57  H    0.005851
    58  H    0.026157
    59  H    0.043146
    60  H    0.037205
    61  H    0.034481
    62  H    0.034233
    63  H    0.016762
    64  H    0.009271
    65  H    0.023023
    66  H    0.012191
    67  H    0.004792
    68  H    0.006063
    69  H    0.005662
    70  H    0.007761
    71  H    0.022261
    72  H    0.028657
    73  H    0.047880
    74  H    0.010378
    75  H    0.045622
    76  H    0.035663
    77  H    0.044372
    78  H    0.047201
    79  H    0.052014
    80  Mg   0.837379
    81  C   -0.017683
    82  C   -0.088353
    83  C   -0.046092
    84  C   -0.063410
    85  N   -0.254639
    86  C   -0.049804
    87  C   -0.015094
    88  C   -0.090395
    89  C    0.045464
    90  C    0.114596
    91  C    0.062613
    92  C   -0.077499
    93  H    0.034034
    94  N   -0.423204
    95  C    0.162552
    96  C   -0.175166
    97  C   -0.008555
    98  C    0.151943
    99  C    0.099462
   100  C    0.014669
   101  O   -0.255716
   102  C    0.061564
   103  N   -0.350524
   104  C    0.037920
   105  C   -0.018645
   106  C   -0.037112
   107  C    0.089960
   108  C    0.074708
   109  C    0.038708
   110  C   -0.022911
   111  N   -0.324396
   112  C    0.079165
   113  C   -0.161445
   114  C    0.001738
   115  C    0.096714
   116  C    0.130668
   117  C    0.042423
   118  O   -0.188161
   119  C    0.000932
   120  C    0.211240
   121  O   -0.251435
   122  O   -0.305612
   123  C    0.152268
   124  H   -0.020658
   125  H   -0.017198
   126  H   -0.036152
   127  H   -0.001079
   128  H   -0.004872
   129  H    0.022132
   130  H    0.014339
   131  H    0.015550
   132  H    0.014052
   133  H    0.037396
   134  H    0.020584
   135  H    0.019418
   136  H    0.008406
   137  H    0.024971
   138  H    0.039193
   139  H    0.038374
   140  H    0.033177
   141  H    0.034427
   142  H    0.012904
   143  H    0.010939
   144  H    0.022205
   145  H    0.010389
   146  H    0.005063
   147  H    0.002638
   148  H    0.015239
   149  H    0.004235
   150  H    0.042420
   151  H    0.022735
   152  H    0.046563
   153  H    0.013109
   154  H    0.045803
   155  H    0.034503
   156  H    0.043592
   157  H    0.049277
   158  H    0.053089
 Sum of Mulliken charges =  -0.00000

 Dipole moment (field-independent basis, Debye):
    X=              0.7294    Y=              6.6311    Z=             -2.5707  Tot=              7.1492
 Quadrupole moment (field-independent basis, Debye-Ang):
   XX=           -451.3890   YY=           -538.7001   ZZ=           -483.4327
   XY=            -20.8362   XZ=            -18.2375   YZ=              4.0182

 Normal termination of Gaussian 16 at Thu Sep  9 15:33:23 2021.
