 Gaussian 16, Revision A.03,
 Gaussian 16:  ES64L-G16RevA.03 25-Dec-2016

 -----------------------------------
 #p cam-b3lyp/Def2SVP td=(nstates=5)
 -----------------------------------

 --------------------------------
 TDDFT excited states in gaussian
 --------------------------------
 Symbolic Z-matrix:
 Charge =  0 Multiplicity = 1

                         Standard orientation:
 ---------------------------------------------------------------------
 Center     Atomic      Atomic             Coordinates (Angstroms)
 Number     Number       Type             X           Y           Z
 ---------------------------------------------------------------------
      1         12           0        4.174077   -0.046481   -0.104172
      2          6           0        3.763913    3.163320   -1.634256
      3          6           0        4.957179    1.595167    2.782834
      4          6           0        4.981885   -2.848456    1.142022
      5          6           0        4.474326   -1.373593   -3.312643
      6          7           0        4.307545    2.107927    0.387109
      7          6           0        4.067502    3.236578   -0.272965
      8          6           0        4.094634    4.501637    0.636025
      9          6           0        5.017351    3.946902    1.811976
     10          6           0        4.717223    2.464421    1.677460
     11          6           0        6.507372    4.169954    1.574091
     12          6           0        2.670433    4.888427    1.159262
     13          6           0        2.558819    6.284558    1.778708
     14          1           0        1.331284    7.041154    1.583596
     15          7           0        4.392241   -0.595112    1.781102
     16          6           0        4.694665    0.208859    2.828698
     17          6           0        4.745279   -0.670816    4.016255
     18          6           0        4.634996   -2.079097    3.544368
     19          6           0        4.692394   -1.896301    2.116548
     20          6           0        4.836359   -0.154483    5.419413
     21          6           0        4.509941   -3.383598    4.266011
     22          8           0        4.661429   -4.506140    3.673115
     23          6           0        4.290197   -3.310563    5.721834
     24          7           0        4.878660   -1.823513   -0.942835
     25          6           0        5.094461   -2.905443   -0.186633
     26          6           0        5.319642   -4.125130   -1.030194
     27          6           0        4.970665   -3.697007   -2.528419
     28          6           0        4.667158   -2.198682   -2.281085
     29          6           0        6.734754   -4.717965   -0.985308
     30          6           0        3.914876   -4.549862   -3.275660
     31          6           0        2.557988   -4.364504   -2.634103
     32          7           0        3.956393    0.694560   -2.132599
     33          6           0        4.150136   -0.027216   -3.319266
     34          6           0        3.994885    0.924982   -4.434292
     35          6           0        3.736324    2.145833   -3.814200
     36          6           0        3.756423    1.972769   -2.400716
     37          6           0        4.153671    0.623641   -5.815746
     38          6           0        3.472135    3.561166   -4.016418
     39          8           0        3.249228    4.269968   -4.998969
     40          6           0        3.600105    4.300457   -2.611819
     41          6           0        2.399189    5.193294   -2.457053
     42          8           0        1.254939    4.710774   -2.333636
     43          8           0        2.806903    6.453311   -2.241023
     44          6           0        1.664129    7.385792   -2.049449
     45          1           0        5.444255    1.996348    3.673762
     46          1           0        5.157319   -3.855289    1.526665
     47          1           0        4.470661   -1.732156   -4.343600
     48          1           0        4.557284    5.377945    0.181643
     49          1           0        4.696390    4.311508    2.787562
     50          1           0        6.697302    4.558642    0.573707
     51          1           0        6.971414    3.191108    1.696641
     52          1           0        6.933425    4.803138    2.352766
     53          1           0        2.429877    4.279149    2.030453
     54          1           0        1.927339    4.784703    0.367821
     55          1           0        3.427775    6.897829    1.538455
     56          1           0        2.592102    6.180653    2.863280
     57          1           0        5.069290    0.909402    5.440344
     58          1           0        5.702189   -0.631196    5.878534
     59          1           0        3.941415   -0.381265    5.999048
     60          1           0        5.117521   -2.771662    6.184078
     61          1           0        4.136115   -4.336441    6.054524
     62          1           0        3.393983   -2.720102    5.914462
     63          1           0        4.659570   -4.937082   -0.727762
     64          1           0        5.846123   -3.729109   -3.177431
     65          1           0        6.761745   -5.764064   -0.679279
     66          1           0        7.337951   -4.100335   -0.320494
     67          1           0        7.292480   -4.640754   -1.918260
     68          1           0        4.162119   -5.608416   -3.202986
     69          1           0        3.830850   -4.300779   -4.333557
     70          1           0        2.582622   -5.070002   -1.804346
     71          1           0        1.765910   -4.618639   -3.339254
     72          1           0        2.451335   -3.365982   -2.209763
     73          1           0        3.333240    1.121209   -6.332746
     74          1           0        4.137948   -0.451868   -5.990779
     75          1           0        5.132259    1.063599   -6.007210
     76          1           0        4.530480    4.866822   -2.639299
     77          1           0        1.775171    8.184525   -2.782887
     78          1           0        1.664015    7.663322   -0.995228
     79          1           0        0.678333    7.000552   -2.312383
     80         12           0       -3.645560   -1.329599    0.352373
     81          6           0       -6.259504    1.120618    0.145518
     82          6           0       -1.516276    1.224164    1.113302
     83          6           0       -1.244644   -3.388667    0.100908
     84          6           0       -5.684942   -3.459403   -1.505198
     85          7           0       -3.965489    0.847904    0.572323
     86          6           0       -5.013301    1.657058    0.531070
     87          6           0       -4.724862    3.107481    1.002925
     88          6           0       -3.144588    3.142795    0.719412
     89          6           0       -2.840821    1.651059    0.842296
     90          6           0       -2.796080    3.586545   -0.691612
     91          6           0       -5.039934    3.314329    2.526060
     92          6           0       -5.076687    4.774433    2.982660
     93          1           0       -6.037733    5.157430    4.013279
     94          7           0       -1.785693   -1.223487    1.036615
     95          6           0       -1.082686   -0.105006    1.312425
     96          6           0        0.239296   -0.562692    1.767444
     97          6           0        0.314973   -2.037207    1.580973
     98          6           0       -0.921507   -2.276035    0.863927
     99          6           0        1.249640    0.357606    2.388485
    100          6           0        1.337823   -3.060938    1.970798
    101          8           0        1.312315   -4.252116    1.498279
    102          6           0        2.423707   -2.601373    2.848944
    103          7           0       -3.396682   -3.078142   -0.744442
    104          6           0       -2.275305   -3.811402   -0.631450
    105          6           0       -2.434416   -5.157553   -1.296984
    106          6           0       -3.984853   -5.270640   -1.672390
    107          6           0       -4.457596   -3.871824   -1.219381
    108          6           0       -1.589689   -5.383849   -2.550624
    109          6           0       -4.747990   -6.515900   -1.143618
    110          6           0       -4.856700   -6.453333    0.362923
    111          7           0       -5.680027   -1.293060   -0.374028
    112          6           0       -6.325014   -2.277674   -1.154171
    113          6           0       -7.662732   -1.753466   -1.497873
    114          6           0       -7.694779   -0.480620   -0.908525
    115          6           0       -6.456406   -0.221129   -0.261523
    116          6           0       -8.634863   -2.415511   -2.299595
    117          6           0       -8.490690    0.706777   -0.695646
    118          8           0       -9.653772    1.027659   -0.936512
    119          6           0       -7.550451    1.847336   -0.111295
    120          6           0       -8.250784    2.468845    1.065894
    121          8           0       -8.467445    1.805102    2.095023
    122          8           0       -8.353685    3.795615    0.867227
    123          6           0       -9.031723    4.458124    2.013159
    124          1           0       -0.723952    1.972944    1.134549
    125          1           0       -0.489811   -4.177995    0.074987
    126          1           0       -6.416826   -4.102552   -1.998529
    127          1           0       -5.222966    3.879483    0.428754
    128          1           0       -2.617994    3.703675    1.487186
    129          1           0       -3.675377    3.691793   -1.309588
    130          1           0       -2.144204    2.819446   -1.088658
    131          1           0       -2.199883    4.503067   -0.662098
    132          1           0       -4.190315    2.953156    3.119721
    133          1           0       -5.957796    2.828504    2.794661
    134          1           0       -5.123537    5.470032    2.135959
    135          1           0       -4.127557    5.009485    3.470426
    136          1           0        0.978809    1.410406    2.241305
    137          1           0        2.181587    0.235686    1.825910
    138          1           0        1.438585    0.128085    3.439334
    139          1           0        2.956327   -1.784666    2.367524
    140          1           0        3.003592   -3.494758    3.088667
    141          1           0        1.983378   -2.193007    3.765440
    142          1           0       -2.178694   -5.958920   -0.614692
    143          1           0       -4.138273   -5.317036   -2.760579
    144          1           0       -0.932884   -6.271375   -2.480022
    145          1           0       -1.005358   -4.491973   -2.734055
    146          1           0       -2.154305   -5.484492   -3.475980
    147          1           0       -4.192776   -7.427695   -1.377121
    148          1           0       -5.740772   -6.626052   -1.566997
    149          1           0       -3.895322   -6.855182    0.696611
    150          1           0       -5.684056   -7.067244    0.713117
    151          1           0       -4.918593   -5.415461    0.710266
    152          1           0       -9.588217   -2.283432   -1.805461
    153          1           0       -8.394687   -3.469039   -2.426728
    154          1           0       -8.532077   -1.855534   -3.232937
    155          1           0       -7.374660    2.568405   -0.910505
    156          1           0       -9.883914    5.009939    1.604546
    157          1           0       -8.247564    5.048194    2.523706
    158          1           0       -9.521131    3.822314    2.741632
 ---------------------------------------------------------------------

 SCF Done:  E(RCAM-B3LYP) =  -4069.74612965     A.U. after   19 cycles

 Excitation energies and oscillator strengths:

 Excited State   1:      Singlet-A      1.5679 eV  790.78 nm  f=0.2824  <S**2>=0.000
     309 -> 315       -0.13253
     311 -> 313        0.60546
     312 -> 313       -0.11448
     312 -> 314       -0.30199
 This state for optimization and/or second-order correction.
 Total Energy, E(TD-HF/TD-DFT) =  -4069.68851171
 Copying the excited state density for this state as the 1-particle RhoCI density.

 Excited State   2:      Singlet-A      1.6819 eV  737.16 nm  f=0.4871  <S**2>=0.000
     310 -> 316        0.15621
     311 -> 313        0.31277
     312 -> 314        0.60489

 Excited State   3:      Singlet-A      2.0345 eV  609.42 nm  f=0.0023  <S**2>=0.000
     312 -> 313        0.68624
     312 -> 314       -0.10859

 Excited State   4:      Singlet-A      2.1764 eV  569.67 nm  f=0.0089  <S**2>=0.000
     309 -> 313        0.37042
     310 -> 314        0.51737
     311 -> 315        0.16544
     312 -> 316       -0.21740

 Excited State   5:      Singlet-A      2.1951 eV  564.82 nm  f=0.1230  <S**2>=0.000
     309 -> 313        0.47896
     310 -> 314       -0.35899
     311 -> 314       -0.15698
     311 -> 315        0.24401
     312 -> 316        0.15556

 The electronic state is 1-A.
 Alpha  occ. eigenvalues --  -46.88489 -46.87227 -19.26755 -19.26058 -19.19846
 Alpha  occ. eigenvalues --  -19.19538 -19.18854 -19.18382 -19.17901 -19.17664
 Alpha  occ. eigenvalues --  -14.42974 -14.42032 -14.41823 -14.40957 -14.40541
 Alpha  occ. eigenvalues --  -14.38902 -14.38885 -14.38179 -10.39567 -10.38775
 Alpha  occ. eigenvalues --  -10.36647 -10.34631 -10.34229 -10.33844 -10.32154
 Alpha  occ. eigenvalues --  -10.32130 -10.31681 -10.31517 -10.31428 -10.31275
 Alpha  occ. eigenvalues --  -10.30831 -10.30702 -10.30558 -10.30536 -10.30375
 Alpha  occ. eigenvalues --  -10.29953 -10.29936 -10.29729 -10.29522 -10.29405
 Alpha  occ. eigenvalues --  -10.29309 -10.29193 -10.28990 -10.28930 -10.28705
 Alpha  occ. eigenvalues --  -10.28688 -10.28603 -10.28404 -10.28365 -10.28340
 Alpha  occ. eigenvalues --  -10.28230 -10.27965 -10.27933 -10.27780 -10.27571
 Alpha  occ. eigenvalues --  -10.27534 -10.27518 -10.27516 -10.27509 -10.27441
 Alpha  occ. eigenvalues --  -10.27352 -10.27219 -10.27155 -10.27100 -10.27050
 Alpha  occ. eigenvalues --  -10.26978 -10.26867 -10.26743 -10.26665 -10.26346
 Alpha  occ. eigenvalues --  -10.26237 -10.25995 -10.25970 -10.25885 -10.25560
 Alpha  occ. eigenvalues --  -10.25537 -10.25502 -10.25223 -10.25207 -10.25016
 Alpha  occ. eigenvalues --  -10.25015 -10.24485 -10.24449 -10.24284 -10.24182
 Alpha  occ. eigenvalues --  -10.23759  -3.17225  -3.15977  -1.92108  -1.91686
 Alpha  occ. eigenvalues --   -1.91541  -1.90860  -1.90448  -1.90285  -1.17108
 Alpha  occ. eigenvalues --   -1.16348  -1.08866  -1.08761  -1.08282  -1.07129
 Alpha  occ. eigenvalues --   -1.06638  -1.06109  -1.05532  -1.04686  -1.04029
 Alpha  occ. eigenvalues --   -1.03776  -1.03222  -1.02800  -1.02623  -1.01689
 Alpha  occ. eigenvalues --   -0.92331  -0.91565  -0.89932  -0.89735  -0.89135
 Alpha  occ. eigenvalues --   -0.88893  -0.88615  -0.88562  -0.88199  -0.88066
 Alpha  occ. eigenvalues --   -0.87889  -0.87394  -0.87242  -0.86573  -0.85810
 Alpha  occ. eigenvalues --   -0.84497  -0.84147  -0.83759  -0.83570  -0.83178
 Alpha  occ. eigenvalues --   -0.82569  -0.82275  -0.81830  -0.81259  -0.80981
 Alpha  occ. eigenvalues --   -0.80121  -0.79436  -0.78126  -0.77667  -0.77286
 Alpha  occ. eigenvalues --   -0.76736  -0.76492  -0.76456  -0.75351  -0.75178
 Alpha  occ. eigenvalues --   -0.74467  -0.73221  -0.72277  -0.72148  -0.71142
 Alpha  occ. eigenvalues --   -0.70091  -0.69594  -0.69444  -0.68503  -0.68344
 Alpha  occ. eigenvalues --   -0.67944  -0.67189  -0.66791  -0.65812  -0.65289
 Alpha  occ. eigenvalues --   -0.65256  -0.64835  -0.64472  -0.64369  -0.64250
 Alpha  occ. eigenvalues --   -0.63843  -0.62731  -0.61933  -0.61438  -0.60437
 Alpha  occ. eigenvalues --   -0.60376  -0.59463  -0.59329  -0.59024  -0.58597
 Alpha  occ. eigenvalues --   -0.58031  -0.57966  -0.57735  -0.57336  -0.57163
 Alpha  occ. eigenvalues --   -0.56944  -0.56482  -0.56162  -0.55978  -0.55714
 Alpha  occ. eigenvalues --   -0.55525  -0.55436  -0.54943  -0.54747  -0.54597
 Alpha  occ. eigenvalues --   -0.54234  -0.54125  -0.53956  -0.53721  -0.53622
 Alpha  occ. eigenvalues --   -0.53298  -0.53250  -0.52763  -0.52704  -0.52479
 Alpha  occ. eigenvalues --   -0.52444  -0.52250  -0.52121  -0.52061  -0.51789
 Alpha  occ. eigenvalues --   -0.51546  -0.51488  -0.51266  -0.50861  -0.50561
 Alpha  occ. eigenvalues --   -0.50353  -0.50277  -0.50054  -0.49707  -0.49608
 Alpha  occ. eigenvalues --   -0.49557  -0.49367  -0.49177  -0.48928  -0.48834
 Alpha  occ. eigenvalues --   -0.48725  -0.48646  -0.48571  -0.48157  -0.48047
 Alpha  occ. eigenvalues --   -0.47898  -0.47756  -0.47378  -0.47141  -0.47072
 Alpha  occ. eigenvalues --   -0.47066  -0.46949  -0.46467  -0.46352  -0.46221
 Alpha  occ. eigenvalues --   -0.46146  -0.46111  -0.45796  -0.45616  -0.45449
 Alpha  occ. eigenvalues --   -0.45380  -0.45093  -0.44862  -0.44780  -0.44688
 Alpha  occ. eigenvalues --   -0.44510  -0.44376  -0.44304  -0.44149  -0.43944
 Alpha  occ. eigenvalues --   -0.43763  -0.43742  -0.43630  -0.43538  -0.43517
 Alpha  occ. eigenvalues --   -0.43196  -0.43091  -0.42950  -0.42835  -0.42590
 Alpha  occ. eigenvalues --   -0.42470  -0.42248  -0.42188  -0.42027  -0.41882
 Alpha  occ. eigenvalues --   -0.41664  -0.41603  -0.41281  -0.41226  -0.41057
 Alpha  occ. eigenvalues --   -0.40936  -0.40663  -0.40566  -0.40337  -0.40105
 Alpha  occ. eigenvalues --   -0.40043  -0.39733  -0.39230  -0.39080  -0.38906
 Alpha  occ. eigenvalues --   -0.38706  -0.38437  -0.38002  -0.37939  -0.37314
 Alpha  occ. eigenvalues --   -0.37224  -0.37108  -0.36867  -0.36711  -0.36461
 Alpha  occ. eigenvalues --   -0.36304  -0.35835  -0.34612  -0.34180  -0.33830
 Alpha  occ. eigenvalues --   -0.33532  -0.33122  -0.32746  -0.32443  -0.31574
 Alpha  occ. eigenvalues --   -0.31200  -0.30575  -0.30269  -0.29751  -0.29573
 Alpha  occ. eigenvalues --   -0.29556  -0.28863  -0.28772  -0.24654  -0.23607
 Alpha  occ. eigenvalues --   -0.21263  -0.20679
 Alpha virt. eigenvalues --   -0.09175  -0.08352  -0.02777  -0.01234  -0.01024
 Alpha virt. eigenvalues --    0.00548   0.01858   0.02628   0.03024   0.03666
 Alpha virt. eigenvalues --    0.04074   0.04561   0.05101   0.05464   0.05526

 Mulliken charges:
               1
     1  Mg   0.801896
     2  C   -0.002107
     3  C   -0.096410
     4  C    0.000107
     5  C   -0.059731
     6  N   -0.254413
     7  C   -0.057882
     8  C   -0.011303
     9  C   -0.086529
    10  C    0.041042
    11  C    0.104350
    12  C    0.046679
    13  C   -0.070917
    14  H    0.034830
    15  N   -0.466183
    16  C    0.166008
    17  C   -0.155339
    18  C   -0.039788
    19  C    0.098557
    20  C    0.113808
    21  C    0.005530
    22  O   -0.241150
    23  C    0.097475
    24  N   -0.338847
    25  C    0.036534
    26  C   -0.029014
    27  C   -0.024222
    28  C    0.078077
    29  C    0.076148
    30  C    0.036383
    31  C   -0.012751
    32  N   -0.304731
    33  C    0.077423
    34  C   -0.169331
    35  C    0.008174
    36  C    0.081586
    37  C    0.127133
    38  C    0.046045
    39  O   -0.188655
    40  C   -0.006701
    41  C    0.213819
    42  O   -0.259760
    43  O   -0.303977
    44  C    0.156954
    45  H   -0.017859
    46  H   -0.014695
    47  H   -0.040916
    48  H    0.002135
    49  H   -0.004295
    50  H    0.027231
    51  H    0.017921
    52  H    0.017846
    53  H    0.011266
    54  H    0.042344
    55  H    0.020339
    56  H    0.018240
    57  H    0.007554
    58  H    0.030752
    59  H    0.037739
    60  H    0.038554
    61  H    0.042480
    62  H    0.022481
    63  H    0.028216
    64  H    0.008854
    65  H    0.025293
    66  H    0.011300
    67  H    0.005255
    68  H    0.005543
    69  H    0.001918
    70  H    0.021631
    71  H    0.017288
    72  H    0.032106
    73  H    0.047586
    74  H    0.009736
    75  H    0.045767
    76  H    0.035841
    77  H    0.044890
    78  H    0.045764
    79  H    0.052824
    80  Mg   0.837901
    81  C   -0.017094
    82  C   -0.090151
    83  C   -0.047919
    84  C   -0.065218
    85  N   -0.254877
    86  C   -0.048960
    87  C   -0.015210
    88  C   -0.090483
    89  C    0.045460
    90  C    0.114474
    91  C    0.063034
    92  C   -0.076448
    93  H    0.032408
    94  N   -0.423825
    95  C    0.167817
    96  C   -0.203149
    97  C    0.008736
    98  C    0.149866
    99  C    0.136029
   100  C    0.047169
   101  O   -0.254046
   102  C    0.026554
   103  N   -0.349727
   104  C    0.037433
   105  C   -0.019344
   106  C   -0.034727
   107  C    0.088535
   108  C    0.070294
   109  C    0.035095
   110  C   -0.007475
   111  N   -0.323829
   112  C    0.077850
   113  C   -0.163921
   114  C    0.001975
   115  C    0.095832
   116  C    0.131604
   117  C    0.041751
   118  O   -0.189459
   119  C    0.001130
   120  C    0.211056
   121  O   -0.251815
   122  O   -0.305332
   123  C    0.152474
   124  H   -0.012761
   125  H   -0.014874
   126  H   -0.041713
   127  H   -0.001094
   128  H   -0.007398
   129  H    0.019365
   130  H    0.024582
   131  H    0.021364
   132  H    0.012409
   133  H    0.036697
   134  H    0.020851
   135  H    0.017851
   136  H    0.003251
   137  H    0.054048
   138  H    0.026973
   139  H    0.048447
   140  H    0.058013
   141  H    0.008996
   142  H    0.013837
   143  H    0.011600
   144  H    0.023393
   145  H    0.016408
   146  H    0.004264
   147  H    0.004960
   148  H    0.003188
   149  H    0.010643
   150  H    0.017026
   151  H    0.030677
   152  H    0.044939
   153  H    0.007551
   154  H    0.046618
   155  H    0.035520
   156  H    0.043236
   157  H    0.049052
   158  H    0.052861
 Sum of Mulliken charges =  -0.00000

 Dipole moment (field-independent basis, Debye):
    X=              7.3629    Y=              2.2510    Z=              4.2518  Tot=              8.7953
 Quadrupole moment (field-independent basis, Debye-Ang):
   XX=           -550.7684   YY=           -481.8156   ZZ=           -498.9410
   XY=             13.2502   XZ=             18.3089   YZ=             52.0369

 Normal termination of Gaussian 16 at Thu Sep  9 10:00:52 2021.
