 Gaussian 16, Revision A.03,
 Gaussian 16:  ES64L-G16RevA.03 25-Dec-2016

 -----------------------------------
 #p cam-b3lyp/Def2SVP td=(nstates=5)
 -----------------------------------

 --------------------------------
 TDDFT excited states in gaussian
 --------------------------------
 Symbolic Z-matrix:
 Charge =  0 Multiplicity = 1

                         Standard orientation:
 ---------------------------------------------------------------------
 Center     Atomic      Atomic             Coordinates (Angstroms)
 Number     Number       Type             X           Y           Z
 ---------------------------------------------------------------------
      1         12           0        4.080838   -1.698407    0.033203
      2          6           0        5.538026    1.408171   -0.985617
      3          6           0        5.382877   -1.121367    3.133975
      4          6           0        3.196852   -4.637264    0.832144
      5          6           0        3.886964   -2.544939   -3.341920
      6          7           0        5.287535   -0.030838    0.847908
      7          6           0        5.728191    1.128513    0.369475
      8          6           0        6.345216    2.052960    1.461286
      9          6           0        6.744511    0.943389    2.534325
     10          6           0        5.721882   -0.120378    2.175784
     11          6           0        8.142740    0.370353    2.326749
     12          6           0        5.300978    3.063822    2.043914
     13          6           0        5.891738    4.209891    2.870282
     14          1           0        5.264117    5.520740    2.798772
     15          7           0        3.831306   -2.522450    1.811274
     16          6           0        4.428651   -2.148428    2.968241
     17          6           0        3.917355   -3.068459    4.006893
     18          6           0        3.120737   -4.126364    3.325474
     19          6           0        3.376128   -3.815266    1.942227
     20          6           0        4.156943   -2.869940    5.472137
     21          6           0        2.273556   -5.247183    3.839458
     22          8           0        1.858239   -6.188926    3.081033
     23          6           0        2.012812   -5.261639    5.290266
     24          7           0        3.809463   -3.449200   -1.070750
     25          6           0        3.365352   -4.569268   -0.490063
     26          6           0        2.980891   -5.598348   -1.511396
     27          6           0        3.026257   -4.856832   -2.924849
     28          6           0        3.536952   -3.474191   -2.449703
     29          6           0        3.865134   -6.851882   -1.564107
     30          6           0        1.741554   -4.911426   -3.789128
     31          6           0        0.639369   -4.120536   -3.120713
     32          7           0        4.442952   -0.694657   -1.856878
     33          6           0        4.320010   -1.244963   -3.140904
     34          6           0        4.775111   -0.218248   -4.096313
     35          6           0        5.149227    0.859043   -3.295485
     36          6           0        4.965730    0.516837   -1.925261
     37          6           0        4.858505   -0.372348   -5.508309
     38          6           0        5.684508    2.210712   -3.277469
     39          8           0        5.944150    3.052123   -4.138925
     40          6           0        6.072362    2.576077   -1.776834
     41          6           0        5.511730    3.940624   -1.481856
     42          8           0        4.279080    4.127999   -1.428660
     43          8           0        6.502345    4.750289   -1.077298
     44          6           0        6.008952    6.112288   -0.740137
     45          1           0        5.937259   -1.161849    4.073636
     46          1           0        2.786797   -5.623968    1.057331
     47          1           0        3.775461   -2.706969   -4.415590
     48          1           0        7.232814    2.600818    1.144354
     49          1           0        6.588401    1.290156    3.555650
     50          1           0        8.585441    0.726968    1.396823
     51          1           0        8.012274   -0.711554    2.295934
     52          1           0        8.775988    0.571292    3.191271
     53          1           0        4.709522    2.566508    2.812627
     54          1           0        4.678188    3.476084    1.249245
     55          1           0        6.968854    4.293561    2.722873
     56          1           0        5.781250    3.962010    3.926003
     57          1           0        4.911553   -2.105873    5.654650
     58          1           0        4.604608   -3.789330    5.849000
     59          1           0        3.234506   -2.661127    6.014206
     60          1           0        2.961103   -5.310889    5.825867
     61          1           0        1.317558   -6.082460    5.462669
     62          1           0        1.548606   -4.316979    5.575011
     63          1           0        1.971592   -5.967445   -1.333889
     64          1           0        3.801571   -5.262832   -3.575023
     65          1           0        3.314763   -7.782252   -1.421954
     66          1           0        4.649150   -6.742982   -0.815274
     67          1           0        4.450650   -6.960177   -2.476719
     68          1           0        1.389375   -5.938350   -3.880466
     69          1           0        1.883236   -4.518606   -4.796039
     70          1           0        0.225299   -4.833727   -2.408858
     71          1           0       -0.110632   -3.819560   -3.852918
     72          1           0        1.040602   -3.284148   -2.548041
     73          1           0        4.464753    0.548036   -5.939379
     74          1           0        4.293797   -1.241124   -5.845855
     75          1           0        5.933696   -0.498402   -5.634526
     76          1           0        7.160382    2.559772   -1.721435
     77          1           0        6.579496    6.818758   -1.343140
     78          1           0        6.072883    6.205423    0.344134
     79          1           0        4.991635    6.347980   -1.054548
     80         12           0       -4.241896    1.721386    0.342320
     81          6           0       -5.411027   -1.602581   -0.338463
     82          6           0       -3.338252    1.915349   -2.941040
     83          6           0       -2.798631    4.468348    1.004589
     84          6           0       -4.178956    0.858420    3.718267
     85          7           0       -4.405715    0.277505   -1.325209
     86          6           0       -4.923635   -0.931749   -1.479465
     87          6           0       -4.992225   -1.419068   -2.951662
     88          6           0       -3.818960   -0.507805   -3.561513
     89          6           0       -3.874078    0.655318   -2.573186
     90          6           0       -2.445617   -1.151312   -3.465699
     91          6           0       -6.374382   -1.100930   -3.622819
     92          6           0       -6.624212   -1.817704   -4.951560
     93          1           0       -7.983656   -2.249355   -5.264707
     94          7           0       -3.665785    3.191851   -0.859511
     95          6           0       -3.361411    3.098926   -2.171002
     96          6           0       -2.976534    4.455018   -2.591760
     97          6           0       -2.919945    5.322573   -1.383924
     98          6           0       -3.109796    4.334762   -0.340729
     99          6           0       -2.781917    4.836065   -4.030632
    100          6           0       -2.714512    6.795446   -1.197795
    101          8           0       -2.464191    7.300211   -0.046549
    102          6           0       -2.722402    7.617657   -2.416567
    103          7           0       -3.382241    2.480214    2.076532
    104          6           0       -2.870441    3.723195    2.107731
    105          6           0       -2.560623    4.150186    3.522679
    106          6           0       -3.198485    3.023107    4.460978
    107          6           0       -3.711650    2.051152    3.375924
    108          6           0       -1.078471    4.313083    3.858960
    109          6           0       -4.191411    3.498646    5.556714
    110          6           0       -5.450459    4.035147    4.914572
    111          7           0       -4.875484    0.029510    1.527295
    112          6           0       -4.731055   -0.136930    2.922123
    113          6           0       -5.207811   -1.496191    3.250063
    114          6           0       -5.577971   -2.038864    2.010311
    115          6           0       -5.329265   -1.092454    0.979800
    116          6           0       -5.211654   -2.086467    4.545310
    117          6           0       -6.112628   -3.200998    1.337790
    118          8           0       -6.585852   -4.275829    1.704562
    119          6           0       -5.910206   -3.016514   -0.227901
    120          6           0       -7.208434   -3.356345   -0.907328
    121          8           0       -8.219295   -2.655037   -0.725850
    122          8           0       -6.988276   -4.317599   -1.822699
    123          6           0       -8.244485   -4.680934   -2.531053
    124          1           0       -2.812140    1.997622   -3.892520
    125          1           0       -2.400397    5.441164    1.302096
    126          1           0       -4.283126    0.549429    4.760543
    127          1           0       -4.760721   -2.467803   -3.094265
    128          1           0       -4.063681   -0.167861   -4.564463
    129          1           0       -2.468979   -2.067563   -2.894660
    130          1           0       -1.811246   -0.420126   -2.981992
    131          1           0       -2.027671   -1.298429   -4.465704
    132          1           0       -6.373176   -0.059215   -3.968606
    133          1           0       -7.181899   -1.302462   -2.946113
    134          1           0       -5.913135   -2.635878   -5.118618
    135          1           0       -6.423767   -1.117838   -5.766436
    136          1           0       -2.728599    3.951551   -4.677320
    137          1           0       -1.788377    5.290489   -4.109505
    138          1           0       -3.527358    5.553173   -4.380990
    139          1           0       -1.944777    7.269385   -3.092189
    140          1           0       -2.649952    8.651161   -2.072324
    141          1           0       -3.677463    7.469023   -2.932682
    142          1           0       -3.025797    5.101478    3.750186
    143          1           0       -2.427747    2.481555    5.028878
    144          1           0       -0.824830    5.321708    4.236346
    145          1           0       -0.500293    4.081591    2.974282
    146          1           0       -0.688156    3.600074    4.583159
    147          1           0       -3.758506    4.323617    6.127830
    148          1           0       -4.457603    2.721303    6.265147
    149          1           0       -5.179213    5.064517    4.661785
    150          1           0       -6.280810    4.006990    5.617252
    151          1           0       -5.667563    3.511573    3.976270
    152          1           0       -6.162545   -2.590754    4.654817
    153          1           0       -5.064878   -1.339787    5.322941
    154          1           0       -4.354778   -2.759482    4.455481
    155          1           0       -5.101554   -3.681219   -0.534234
    156          1           0       -8.376867   -5.760874   -2.413130
    157          1           0       -8.127733   -4.297377   -3.562074
    158          1           0       -9.176238   -4.307769   -2.122362
 ---------------------------------------------------------------------

 SCF Done:  E(RCAM-B3LYP) =  -4069.81189736     A.U. after   19 cycles

 Excitation energies and oscillator strengths:

 Excited State   1:      Singlet-A      1.6507 eV  751.09 nm  f=0.0426  <S**2>=0.000
     309 -> 315        0.11470
     310 -> 316        0.12220
     311 -> 313        0.46883
     312 -> 314        0.50272
 This state for optimization and/or second-order correction.
 Total Energy, E(TD-HF/TD-DFT) =  -4069.75123462
 Copying the excited state density for this state as the 1-particle RhoCI density.

 Excited State   2:      Singlet-A      1.7023 eV  728.35 nm  f=0.6479  <S**2>=0.000
     309 -> 315        0.13249
     310 -> 316       -0.12332
     311 -> 313        0.50040
     312 -> 314       -0.46679

 Excited State   3:      Singlet-A      2.1841 eV  567.66 nm  f=0.0202  <S**2>=0.000
     309 -> 313        0.35643
     310 -> 314        0.53681
     311 -> 315       -0.14871
     312 -> 316       -0.22522

 Excited State   4:      Singlet-A      2.1961 eV  564.55 nm  f=0.1591  <S**2>=0.000
     309 -> 313        0.53274
     310 -> 314       -0.35247
     311 -> 315       -0.23455
     312 -> 316        0.15603

 Excited State   5:      Singlet-A      2.3474 eV  528.17 nm  f=0.0000  <S**2>=0.000
     312 -> 313        0.70707

 The electronic state is 1-A.
 Alpha  occ. eigenvalues --  -46.87902 -46.87441 -19.26345 -19.26200 -19.19094
 Alpha  occ. eigenvalues --  -19.18999 -19.18860 -19.18448 -19.18291 -19.17831
 Alpha  occ. eigenvalues --  -14.42551 -14.42280 -14.41561 -14.41151 -14.39502
 Alpha  occ. eigenvalues --  -14.39116 -14.38702 -14.38383 -10.39155 -10.38925
 Alpha  occ. eigenvalues --  -10.35491 -10.35120 -10.34509 -10.34013 -10.31711
 Alpha  occ. eigenvalues --  -10.31633 -10.31517 -10.31102 -10.30992 -10.30786
 Alpha  occ. eigenvalues --  -10.30690 -10.30619 -10.30315 -10.30181 -10.30141
 Alpha  occ. eigenvalues --  -10.30040 -10.29927 -10.29742 -10.29708 -10.29357
 Alpha  occ. eigenvalues --  -10.29192 -10.29171 -10.28819 -10.28565 -10.28531
 Alpha  occ. eigenvalues --  -10.28525 -10.28464 -10.28198 -10.28165 -10.27946
 Alpha  occ. eigenvalues --  -10.27907 -10.27832 -10.27763 -10.27685 -10.27646
 Alpha  occ. eigenvalues --  -10.27567 -10.27565 -10.27503 -10.27432 -10.27395
 Alpha  occ. eigenvalues --  -10.27265 -10.27254 -10.27243 -10.27215 -10.27105
 Alpha  occ. eigenvalues --  -10.26846 -10.26754 -10.26529 -10.26427 -10.26397
 Alpha  occ. eigenvalues --  -10.26311 -10.26147 -10.26111 -10.26054 -10.26031
 Alpha  occ. eigenvalues --  -10.25825 -10.25739 -10.25695 -10.25524 -10.25286
 Alpha  occ. eigenvalues --  -10.24962 -10.24949 -10.24888 -10.24642 -10.24638
 Alpha  occ. eigenvalues --  -10.24470  -3.16645  -3.16191  -1.91527  -1.91113
 Alpha  occ. eigenvalues --   -1.91073  -1.90955  -1.90662  -1.90498  -1.16697
 Alpha  occ. eigenvalues --   -1.16491  -1.08750  -1.08446  -1.07256  -1.06783
 Alpha  occ. eigenvalues --   -1.06717  -1.06696  -1.04681  -1.04275  -1.03868
 Alpha  occ. eigenvalues --   -1.03444  -1.03344  -1.02824  -1.02521  -1.01893
 Alpha  occ. eigenvalues --   -0.92077  -0.91772  -0.89660  -0.89319  -0.89269
 Alpha  occ. eigenvalues --   -0.88960  -0.88416  -0.88060  -0.88007  -0.87773
 Alpha  occ. eigenvalues --   -0.87592  -0.87473  -0.87359  -0.86838  -0.85063
 Alpha  occ. eigenvalues --   -0.84804  -0.84081  -0.83730  -0.83046  -0.82727
 Alpha  occ. eigenvalues --   -0.82687  -0.82434  -0.81675  -0.81416  -0.80687
 Alpha  occ. eigenvalues --   -0.80238  -0.78899  -0.78385  -0.77335  -0.77025
 Alpha  occ. eigenvalues --   -0.76945  -0.76729  -0.76013  -0.75638  -0.75011
 Alpha  occ. eigenvalues --   -0.74638  -0.72893  -0.72489  -0.71771  -0.71387
 Alpha  occ. eigenvalues --   -0.70075  -0.69624  -0.68959  -0.68627  -0.67738
 Alpha  occ. eigenvalues --   -0.67391  -0.67285  -0.66990  -0.65376  -0.65080
 Alpha  occ. eigenvalues --   -0.64959  -0.64721  -0.64573  -0.64466  -0.64396
 Alpha  occ. eigenvalues --   -0.64035  -0.62385  -0.62104  -0.60536  -0.60099
 Alpha  occ. eigenvalues --   -0.59895  -0.59594  -0.59095  -0.58791  -0.58610
 Alpha  occ. eigenvalues --   -0.58223  -0.57685  -0.57416  -0.57361  -0.57036
 Alpha  occ. eigenvalues --   -0.56418  -0.56050  -0.55988  -0.55705  -0.55607
 Alpha  occ. eigenvalues --   -0.55462  -0.55227  -0.55090  -0.54637  -0.54336
 Alpha  occ. eigenvalues --   -0.53973  -0.53727  -0.53404  -0.53297  -0.53031
 Alpha  occ. eigenvalues --   -0.53010  -0.52925  -0.52830  -0.52714  -0.52610
 Alpha  occ. eigenvalues --   -0.52394  -0.52272  -0.52069  -0.51705  -0.51691
 Alpha  occ. eigenvalues --   -0.51444  -0.51313  -0.51011  -0.50645  -0.50206
 Alpha  occ. eigenvalues --   -0.50167  -0.49994  -0.49763  -0.49676  -0.49590
 Alpha  occ. eigenvalues --   -0.49315  -0.49260  -0.49184  -0.48979  -0.48912
 Alpha  occ. eigenvalues --   -0.48691  -0.48572  -0.48513  -0.48366  -0.48212
 Alpha  occ. eigenvalues --   -0.48087  -0.47789  -0.47390  -0.47380  -0.46917
 Alpha  occ. eigenvalues --   -0.46890  -0.46631  -0.46526  -0.46470  -0.46361
 Alpha  occ. eigenvalues --   -0.46276  -0.46055  -0.45936  -0.45908  -0.45650
 Alpha  occ. eigenvalues --   -0.45319  -0.45036  -0.44693  -0.44595  -0.44329
 Alpha  occ. eigenvalues --   -0.44284  -0.44266  -0.44175  -0.44102  -0.43936
 Alpha  occ. eigenvalues --   -0.43879  -0.43699  -0.43594  -0.43482  -0.43389
 Alpha  occ. eigenvalues --   -0.43205  -0.43130  -0.42821  -0.42756  -0.42751
 Alpha  occ. eigenvalues --   -0.42709  -0.42371  -0.42139  -0.41812  -0.41802
 Alpha  occ. eigenvalues --   -0.41617  -0.41467  -0.41276  -0.41236  -0.40975
 Alpha  occ. eigenvalues --   -0.40875  -0.40794  -0.40692  -0.40538  -0.40467
 Alpha  occ. eigenvalues --   -0.40333  -0.40291  -0.40034  -0.39619  -0.39296
 Alpha  occ. eigenvalues --   -0.38588  -0.38196  -0.37818  -0.37478  -0.37441
 Alpha  occ. eigenvalues --   -0.37345  -0.37088  -0.36990  -0.36803  -0.36614
 Alpha  occ. eigenvalues --   -0.36291  -0.36045  -0.34395  -0.34044  -0.33850
 Alpha  occ. eigenvalues --   -0.33688  -0.33293  -0.32958  -0.31392  -0.31134
 Alpha  occ. eigenvalues --   -0.31013  -0.30754  -0.30151  -0.29742  -0.29550
 Alpha  occ. eigenvalues --   -0.29438  -0.29074  -0.28978  -0.24187  -0.23817
 Alpha  occ. eigenvalues --   -0.21239  -0.20893
 Alpha virt. eigenvalues --   -0.08879  -0.08555  -0.01852  -0.01466  -0.00138
 Alpha virt. eigenvalues --    0.00225   0.02082   0.02411   0.02841   0.03489
 Alpha virt. eigenvalues --    0.04629   0.04927   0.05018   0.05337   0.06124

 Mulliken charges:
               1
     1  Mg   0.838848
     2  C   -0.002588
     3  C   -0.094204
     4  C   -0.045568
     5  C   -0.064694
     6  N   -0.256827
     7  C   -0.052415
     8  C   -0.014051
     9  C   -0.087009
    10  C    0.046612
    11  C    0.104758
    12  C    0.053453
    13  C   -0.072383
    14  H    0.037684
    15  N   -0.433303
    16  C    0.168795
    17  C   -0.177005
    18  C   -0.003460
    19  C    0.149122
    20  C    0.110178
    21  C    0.012953
    22  O   -0.248300
    23  C    0.062243
    24  N   -0.341048
    25  C    0.041174
    26  C   -0.028626
    27  C   -0.023914
    28  C    0.074487
    29  C    0.075977
    30  C    0.036463
    31  C   -0.009093
    32  N   -0.310168
    33  C    0.079738
    34  C   -0.171344
    35  C    0.008043
    36  C    0.082553
    37  C    0.127683
    38  C    0.045396
    39  O   -0.189194
    40  C   -0.005007
    41  C    0.212479
    42  O   -0.256980
    43  O   -0.304865
    44  C    0.157558
    45  H   -0.017263
    46  H   -0.016062
    47  H   -0.042513
    48  H    0.001056
    49  H   -0.003900
    50  H    0.025566
    51  H    0.016445
    52  H    0.016936
    53  H    0.010745
    54  H    0.044794
    55  H    0.017800
    56  H    0.017651
    57  H    0.005918
    58  H    0.027381
    59  H    0.039534
    60  H    0.037226
    61  H    0.037145
    62  H    0.031125
    63  H    0.017266
    64  H    0.009648
    65  H    0.023991
    66  H    0.012849
    67  H    0.004739
    68  H    0.006953
    69  H    0.003235
    70  H    0.010514
    71  H    0.016893
    72  H    0.029830
    73  H    0.045913
    74  H    0.008108
    75  H    0.046456
    76  H    0.035312
    77  H    0.042760
    78  H    0.046949
    79  H    0.054266
    80  Mg   0.837676
    81  C   -0.016627
    82  C   -0.086537
    83  C   -0.043607
    84  C   -0.065678
    85  N   -0.254470
    86  C   -0.050304
    87  C   -0.014976
    88  C   -0.091064
    89  C    0.045144
    90  C    0.110760
    91  C    0.062767
    92  C   -0.077516
    93  H    0.034327
    94  N   -0.424170
    95  C    0.162959
    96  C   -0.170844
    97  C   -0.006342
    98  C    0.152943
    99  C    0.097819
   100  C    0.017087
   101  O   -0.253767
   102  C    0.060650
   103  N   -0.349954
   104  C    0.037594
   105  C   -0.019867
   106  C   -0.034243
   107  C    0.088526
   108  C    0.073436
   109  C    0.035051
   110  C   -0.007533
   111  N   -0.323918
   112  C    0.077972
   113  C   -0.163809
   114  C    0.002424
   115  C    0.095614
   116  C    0.131335
   117  C    0.042448
   118  O   -0.188501
   119  C    0.000800
   120  C    0.211132
   121  O   -0.251300
   122  O   -0.305657
   123  C    0.152179
   124  H   -0.017651
   125  H   -0.015558
   126  H   -0.042060
   127  H   -0.001393
   128  H   -0.004635
   129  H    0.025192
   130  H    0.016981
   131  H    0.016117
   132  H    0.013967
   133  H    0.037491
   134  H    0.020015
   135  H    0.019541
   136  H    0.009022
   137  H    0.031227
   138  H    0.038874
   139  H    0.040988
   140  H    0.035464
   141  H    0.033013
   142  H    0.013966
   143  H    0.010461
   144  H    0.023978
   145  H    0.014858
   146  H    0.003099
   147  H    0.005191
   148  H    0.002778
   149  H    0.010802
   150  H    0.017365
   151  H    0.030770
   152  H    0.045506
   153  H    0.007213
   154  H    0.046589
   155  H    0.035327
   156  H    0.043559
   157  H    0.049193
   158  H    0.053371
 Sum of Mulliken charges =  -0.00000

 Dipole moment (field-independent basis, Debye):
    X=              4.5915    Y=              0.2195    Z=              0.5196  Tot=              4.6260
 Quadrupole moment (field-independent basis, Debye-Ang):
   XX=           -528.2894   YY=           -537.2485   ZZ=           -454.5314
   XY=            -19.9366   XZ=             52.3836   YZ=             29.4430

 Normal termination of Gaussian 16 at Fri Sep  3 19:48:50 2021.
