 Gaussian 16, Revision A.03,
 Gaussian 16:  ES64L-G16RevA.03 25-Dec-2016

 -----------------------------------
 #p cam-b3lyp/Def2SVP td=(nstates=5)
 -----------------------------------

 --------------------------------
 TDDFT excited states in gaussian
 --------------------------------
 Symbolic Z-matrix:
 Charge =  0 Multiplicity = 1

                         Standard orientation:
 ---------------------------------------------------------------------
 Center     Atomic      Atomic             Coordinates (Angstroms)
 Number     Number       Type             X           Y           Z
 ---------------------------------------------------------------------
      1         12           0        7.926505   -0.634683    0.480329
      2          6           0        8.273147    1.952481   -1.968882
      3          6           0        8.657642    1.712563    2.846538
      4          6           0        8.073622   -2.982157    2.607380
      5          6           0        8.346870   -2.934387   -2.104301
      6          7           0        8.386336    1.525782    0.333382
      7          6           0        8.428433    2.409921   -0.658432
      8          6           0        8.577935    3.881314   -0.168508
      9          6           0        9.247077    3.606768    1.252362
     10          6           0        8.703994    2.212512    1.511272
     11          6           0       10.770182    3.539806    1.205796
     12          6           0        7.195792    4.602215   -0.021154
     13          6           0        7.265991    6.124074    0.134959
     14          1           0        6.223701    6.938988   -0.470761
     15          7           0        7.827651   -0.584395    2.452777
     16          6           0        8.148038    0.460483    3.253319
     17          6           0        7.905447    0.002274    4.638193
     18          6           0        7.599462   -1.454433    4.588476
     19          6           0        7.850303   -1.741170    3.199146
     20          6           0        7.927503    0.917790    5.823560
     21          6           0        7.162121   -2.434958    5.630318
     22          8           0        7.176788   -3.696868    5.425521
     23          6           0        6.795174   -1.877163    6.944569
     24          7           0        8.392613   -2.663616    0.326027
     25          6           0        8.324266   -3.470258    1.390753
     26          6           0        8.422039   -4.912485    0.990303
     27          6           0        8.327571   -4.936111   -0.603520
     28          6           0        8.270736   -3.409786   -0.859204
     29          6           0        9.693980   -5.646359    1.437076
     30          6           0        7.228074   -5.830286   -1.229599
     31          6           0        5.862276   -5.270323   -0.900760
     32          7           0        8.076475   -0.549505   -1.683301
     33          6           0        8.271482   -1.628135   -2.558060
     34          6           0        8.416542   -1.064778   -3.912923
     35          6           0        8.311718    0.312519   -3.728779
     36          6           0        8.139984    0.593398   -2.343172
     37          6           0        8.674657   -1.805289   -5.100128
     38          6           0        8.329499    1.613690   -4.377235
     39          8           0        8.349888    1.999404   -5.546979
     40          6           0        8.427303    2.734079   -3.249852
     41          6           0        7.395673    3.783786   -3.561559
     42          8           0        6.177102    3.524194   -3.490399
     43          8           0        7.994879    4.980290   -3.660926
     44          6           0        7.022981    6.070992   -3.940100
     45          1           0        9.104267    2.304733    3.647663
     46          1           0        8.021421   -3.830087    3.293476
     47          1           0        8.396205   -3.596059   -2.971024
     48          1           0        9.238328    4.498409   -0.778015
     49          1           0        8.887842    4.300510    2.012226
     50          1           0       11.138842    3.563445    0.180392
     51          1           0       11.034798    2.596433    1.683832
     52          1           0       11.211386    4.322692    1.823214
     53          1           0        6.752883    4.337461    0.938949
     54          1           0        6.540840    4.355419   -0.857489
     55          1           0        8.252148    6.506797   -0.129478
     56          1           0        7.156839    6.364312    1.192584
     57          1           0        8.342971    1.892126    5.569393
     58          1           0        8.636360    0.497956    6.536981
     59          1           0        6.946520    1.008693    6.290188
     60          1           0        7.647610   -1.336933    7.356945
     61          1           0        6.423424   -2.714846    7.533585
     62          1           0        6.002980   -1.140678    6.806843
     63          1           0        7.597453   -5.490414    1.405612
     64          1           0        9.251102   -5.289424   -1.062796
     65          1           0        9.498607   -6.535920    2.036423
     66          1           0       10.318453   -4.937960    1.980669
     67          1           0       10.358755   -5.943685    0.626466
     68          1           0        7.272218   -6.834965   -0.810530
     69          1           0        7.310559   -5.918895   -2.312925
     70          1           0        5.666044   -5.674366    0.091749
     71          1           0        5.122767   -5.624531   -1.619700
     72          1           0        5.888387   -4.184154   -0.811090
     73          1           0        8.020468   -1.390272   -5.866787
     74          1           0        8.486884   -2.868537   -4.952317
     75          1           0        9.731437   -1.584761   -5.249925
     76          1           0        9.440949    3.131603   -3.290079
     77          1           0        7.357547    6.574666   -4.847080
     78          1           0        6.952825    6.664410   -3.028323
     79          1           0        6.020515    5.759407   -4.235591
     80         12           0       -7.912560   -0.649908   -0.476117
     81          6           0       -8.348727    1.935165    1.974639
     82          6           0       -8.577333    1.701074   -2.856353
     83          6           0       -7.980031   -2.985661   -2.622546
     84          6           0       -8.413243   -2.965490    2.079877
     85          7           0       -8.386207    1.506001   -0.334788
     86          6           0       -8.463738    2.393241    0.645585
     87          6           0       -8.596351    3.865454    0.171718
     88          6           0       -9.225178    3.594778   -1.280932
     89          6           0       -8.670484    2.193758   -1.530197
     90          6           0      -10.742636    3.513473   -1.274211
     91          6           0       -7.207359    4.588297    0.070752
     92          6           0       -7.283473    6.108628   -0.085986
     93          1           0       -6.257412    6.926641    0.554732
     94          7           0       -7.746834   -0.582944   -2.452637
     95          6           0       -8.038328    0.459371   -3.258809
     96          6           0       -7.766286   -0.003087   -4.628582
     97          6           0       -7.447801   -1.455946   -4.578606
     98          6           0       -7.739251   -1.742015   -3.188166
     99          6           0       -7.744784    0.922056   -5.810559
    100          6           0       -6.973286   -2.429795   -5.614291
    101          8           0       -6.989779   -3.694541   -5.406991
    102          6           0       -6.576525   -1.864913   -6.912352
    103          7           0       -8.369245   -2.673818   -0.343600
    104          6           0       -8.269027   -3.476891   -1.417360
    105          6           0       -8.378040   -4.930606   -1.023358
    106          6           0       -8.329991   -4.947276    0.575071
    107          6           0       -8.289523   -3.426737    0.842901
    108          6           0       -9.634773   -5.657145   -1.502084
    109          6           0       -7.247940   -5.843508    1.237331
    110          6           0       -5.871387   -5.289140    0.948923
    111          7           0       -8.126052   -0.572971    1.672501
    112          6           0       -8.353370   -1.658568    2.546508
    113          6           0       -8.543170   -1.096032    3.899268
    114          6           0       -8.435128    0.290384    3.713098
    115          6           0       -8.215053    0.573216    2.337933
    116          6           0       -8.826611   -1.841801    5.078087
    117          6           0       -8.467795    1.579555    4.365536
    118          8           0       -8.533727    1.960623    5.533512
    119          6           0       -8.539374    2.709065    3.249531
    120          6           0       -7.520598    3.762411    3.588743
    121          8           0       -6.305714    3.497637    3.564869
    122          8           0       -8.133337    4.957385    3.672232
    123          6           0       -7.162169    6.036199    3.995964
    124          1           0       -8.994351    2.303271   -3.664029
    125          1           0       -7.904113   -3.836207   -3.303929
    126          1           0       -8.476500   -3.627490    2.946154
    127          1           0       -9.271565    4.473511    0.761736
    128          1           0       -8.836983    4.294928   -2.016095
    129          1           0      -11.142729    3.533571   -0.271385
    130          1           0      -10.989322    2.579175   -1.761321
    131          1           0      -11.165178    4.302121   -1.903347
    132          1           0       -6.734935    4.324383   -0.884184
    133          1           0       -6.587817    4.342235    0.911144
    134          1           0       -8.283228    6.497083    0.143201
    135          1           0       -7.134602    6.356730   -1.139694
    136          1           0       -8.178567    1.899151   -5.564534
    137          1           0       -8.427095    0.502295   -6.557627
    138          1           0       -6.750963    1.016780   -6.253279
    139          1           0       -7.416198   -1.324431   -7.342819
    140          1           0       -6.183110   -2.704638   -7.488513
    141          1           0       -5.781264   -1.129817   -6.745633
    142          1           0       -7.539241   -5.498964   -1.406095
    143          1           0       -9.271296   -5.317518    1.007167
    144          1           0       -9.414972   -6.555744   -2.108940
    145          1           0      -10.240293   -4.957999   -2.063401
    146          1           0      -10.315812   -5.970779   -0.712764
    147          1           0       -7.274014   -6.848262    0.808437
    148          1           0       -7.371055   -5.948001    2.310137
    149          1           0       -5.647354   -5.689295   -0.044447
    150          1           0       -5.154065   -5.641518    1.687374
    151          1           0       -5.896610   -4.196366    0.866100
    152          1           0       -8.205311   -1.431464    5.863012
    153          1           0       -8.635692   -2.903017    4.932698
    154          1           0       -9.892766   -1.628406    5.192251
    155          1           0       -9.555048    3.106541    3.250375
    156          1           0       -7.530682    6.538360    4.895802
    157          1           0       -7.076864    6.646862    3.077503
    158          1           0       -6.169106    5.738449    4.311602
 ---------------------------------------------------------------------

 SCF Done:  E(RCAM-B3LYP) =  -4069.81185441     A.U. after   19 cycles

 Excitation energies and oscillator strengths:

 Excited State   1:      Singlet-A      1.6702 eV  742.32 nm  f=0.0193  <S**2>=0.000
     309 -> 315        0.10332
     310 -> 316        0.13832
     311 -> 313        0.55079
     312 -> 314        0.40952
 This state for optimization and/or second-order correction.
 Total Energy, E(TD-HF/TD-DFT) =  -4069.75047514
 Copying the excited state density for this state as the 1-particle RhoCI density.

 Excited State   2:      Singlet-A      1.6853 eV  735.66 nm  f=0.7382  <S**2>=0.000
     309 -> 315        0.14204
     310 -> 316       -0.10513
     311 -> 313       -0.40901
     312 -> 314        0.54998

 Excited State   3:      Singlet-A      2.1861 eV  567.14 nm  f=0.0602  <S**2>=0.000
     309 -> 314       -0.13327
     310 -> 313        0.62868
     311 -> 316       -0.26711

 Excited State   4:      Singlet-A      2.1932 eV  565.32 nm  f=0.1334  <S**2>=0.000
     309 -> 314        0.62680
     310 -> 313        0.13235
     312 -> 315       -0.27255

 Excited State   5:      Singlet-A      2.8031 eV  442.31 nm  f=0.0000  <S**2>=0.000
     312 -> 313        0.70710

 The electronic state is 1-A.
 Alpha  occ. eigenvalues --  -46.87698 -46.87597 -19.26327 -19.26229 -19.19131
 Alpha  occ. eigenvalues --  -19.18957 -19.18701 -19.18632 -19.18091 -19.18006
 Alpha  occ. eigenvalues --  -14.42436 -14.42354 -14.41353 -14.41298 -14.39302
 Alpha  occ. eigenvalues --  -14.39286 -14.38539 -14.38491 -10.39060 -10.39015
 Alpha  occ. eigenvalues --  -10.35332 -10.35308 -10.34311 -10.34184 -10.31746
 Alpha  occ. eigenvalues --  -10.31637 -10.31314 -10.31253 -10.30960 -10.30812
 Alpha  occ. eigenvalues --  -10.30476 -10.30411 -10.30336 -10.30302 -10.30106
 Alpha  occ. eigenvalues --  -10.30075 -10.29838 -10.29828 -10.29533 -10.29370
 Alpha  occ. eigenvalues --  -10.29337 -10.29153 -10.28664 -10.28661 -10.28605
 Alpha  occ. eigenvalues --  -10.28457 -10.28343 -10.28268 -10.28086 -10.28028
 Alpha  occ. eigenvalues --  -10.27941 -10.27698 -10.27631 -10.27607 -10.27483
 Alpha  occ. eigenvalues --  -10.27460 -10.27425 -10.27406 -10.27399 -10.27379
 Alpha  occ. eigenvalues --  -10.27363 -10.27357 -10.27319 -10.27311 -10.27082
 Alpha  occ. eigenvalues --  -10.27008 -10.26634 -10.26614 -10.26309 -10.26275
 Alpha  occ. eigenvalues --  -10.26153 -10.26086 -10.26078 -10.25978 -10.25923
 Alpha  occ. eigenvalues --  -10.25874 -10.25809 -10.25766 -10.25349 -10.25348
 Alpha  occ. eigenvalues --  -10.24815 -10.24741 -10.24691 -10.24662 -10.24629
 Alpha  occ. eigenvalues --  -10.24580  -3.16441  -3.16346  -1.91322  -1.91229
 Alpha  occ. eigenvalues --   -1.90909  -1.90817  -1.90751  -1.90654  -1.16619
 Alpha  occ. eigenvalues --   -1.16575  -1.08617  -1.08551  -1.07101  -1.06916
 Alpha  occ. eigenvalues --   -1.06884  -1.06580  -1.04486  -1.04434  -1.03664
 Alpha  occ. eigenvalues --   -1.03601  -1.03137  -1.02977  -1.02315  -1.02050
 Alpha  occ. eigenvalues --   -0.91932  -0.91883  -0.89435  -0.89424  -0.89099
 Alpha  occ. eigenvalues --   -0.89096  -0.88192  -0.88162  -0.87781  -0.87740
 Alpha  occ. eigenvalues --   -0.87624  -0.87578  -0.87165  -0.87043  -0.84942
 Alpha  occ. eigenvalues --   -0.84891  -0.83844  -0.83819  -0.82855  -0.82853
 Alpha  occ. eigenvalues --   -0.82591  -0.82555  -0.81553  -0.81509  -0.80507
 Alpha  occ. eigenvalues --   -0.80389  -0.78695  -0.78568  -0.77125  -0.77085
 Alpha  occ. eigenvalues --   -0.76850  -0.76849  -0.75840  -0.75788  -0.74808
 Alpha  occ. eigenvalues --   -0.74749  -0.72681  -0.72641  -0.71582  -0.71526
 Alpha  occ. eigenvalues --   -0.69810  -0.69697  -0.68780  -0.68769  -0.67547
 Alpha  occ. eigenvalues --   -0.67542  -0.67135  -0.67123  -0.65217  -0.65198
 Alpha  occ. eigenvalues --   -0.64766  -0.64715  -0.64601  -0.64532  -0.64175
 Alpha  occ. eigenvalues --   -0.64146  -0.62238  -0.62224  -0.60338  -0.60269
 Alpha  occ. eigenvalues --   -0.59739  -0.59713  -0.58936  -0.58896  -0.58413
 Alpha  occ. eigenvalues --   -0.58370  -0.57511  -0.57506  -0.57216  -0.57176
 Alpha  occ. eigenvalues --   -0.56217  -0.56146  -0.55907  -0.55844  -0.55421
 Alpha  occ. eigenvalues --   -0.55391  -0.55254  -0.55197  -0.54443  -0.54441
 Alpha  occ. eigenvalues --   -0.53857  -0.53806  -0.53202  -0.53167  -0.53126
 Alpha  occ. eigenvalues --   -0.53083  -0.52850  -0.52829  -0.52650  -0.52590
 Alpha  occ. eigenvalues --   -0.52341  -0.52341  -0.51838  -0.51831  -0.51597
 Alpha  occ. eigenvalues --   -0.51522  -0.51150  -0.51109  -0.50454  -0.50391
 Alpha  occ. eigenvalues --   -0.49934  -0.49915  -0.49815  -0.49805  -0.49421
 Alpha  occ. eigenvalues --   -0.49418  -0.49145  -0.49123  -0.49053  -0.49010
 Alpha  occ. eigenvalues --   -0.48511  -0.48509  -0.48371  -0.48344  -0.48324
 Alpha  occ. eigenvalues --   -0.48266  -0.47600  -0.47535  -0.47201  -0.47056
 Alpha  occ. eigenvalues --   -0.46704  -0.46652  -0.46496  -0.46466  -0.46266
 Alpha  occ. eigenvalues --   -0.46211  -0.46076  -0.46035  -0.45779  -0.45745
 Alpha  occ. eigenvalues --   -0.45152  -0.45109  -0.44495  -0.44464  -0.44417
 Alpha  occ. eigenvalues --   -0.44405  -0.44072  -0.44049  -0.44018  -0.43999
 Alpha  occ. eigenvalues --   -0.43926  -0.43872  -0.43512  -0.43417  -0.43331
 Alpha  occ. eigenvalues --   -0.43293  -0.42937  -0.42891  -0.42851  -0.42628
 Alpha  occ. eigenvalues --   -0.42565  -0.42490  -0.41918  -0.41906  -0.41616
 Alpha  occ. eigenvalues --   -0.41615  -0.41443  -0.41401  -0.41050  -0.40934
 Alpha  occ. eigenvalues --   -0.40776  -0.40713  -0.40657  -0.40629  -0.40479
 Alpha  occ. eigenvalues --   -0.40437  -0.40164  -0.40141  -0.39364  -0.39342
 Alpha  occ. eigenvalues --   -0.38375  -0.38293  -0.37659  -0.37598  -0.37226
 Alpha  occ. eigenvalues --   -0.37208  -0.37172  -0.37141  -0.36737  -0.36642
 Alpha  occ. eigenvalues --   -0.36166  -0.36109  -0.34194  -0.34191  -0.33826
 Alpha  occ. eigenvalues --   -0.33701  -0.33116  -0.33093  -0.31232  -0.31193
 Alpha  occ. eigenvalues --   -0.30941  -0.30912  -0.29951  -0.29912  -0.29348
 Alpha  occ. eigenvalues --   -0.29260  -0.29228  -0.29152  -0.23985  -0.23976
 Alpha  occ. eigenvalues --   -0.21055  -0.21031
 Alpha virt. eigenvalues --   -0.08729  -0.08677  -0.01651  -0.01620   0.00041
 Alpha virt. eigenvalues --    0.00045   0.02261   0.02289   0.03241   0.03310
 Alpha virt. eigenvalues --    0.04787   0.04810   0.05165   0.05198   0.06231

 Mulliken charges:
               1
     1  Mg   0.839175
     2  C   -0.002957
     3  C   -0.093953
     4  C   -0.045816
     5  C   -0.063975
     6  N   -0.256800
     7  C   -0.052494
     8  C   -0.014048
     9  C   -0.087052
    10  C    0.046436
    11  C    0.104832
    12  C    0.053410
    13  C   -0.071712
    14  H    0.035823
    15  N   -0.433177
    16  C    0.168619
    17  C   -0.176931
    18  C   -0.003810
    19  C    0.148857
    20  C    0.110140
    21  C    0.012543
    22  O   -0.249642
    23  C    0.062316
    24  N   -0.341175
    25  C    0.041289
    26  C   -0.028163
    27  C   -0.023929
    28  C    0.074824
    29  C    0.076212
    30  C    0.035141
    31  C   -0.004513
    32  N   -0.310414
    33  C    0.080353
    34  C   -0.169846
    35  C    0.008175
    36  C    0.082961
    37  C    0.127351
    38  C    0.045961
    39  O   -0.188961
    40  C   -0.005320
    41  C    0.212763
    42  O   -0.257095
    43  O   -0.304782
    44  C    0.157854
    45  H   -0.017608
    46  H   -0.016815
    47  H   -0.041645
    48  H    0.000698
    49  H   -0.003924
    50  H    0.025334
    51  H    0.016440
    52  H    0.016572
    53  H    0.011658
    54  H    0.044091
    55  H    0.017641
    56  H    0.018153
    57  H    0.005847
    58  H    0.026747
    59  H    0.040254
    60  H    0.037182
    61  H    0.035807
    62  H    0.032206
    63  H    0.016657
    64  H    0.009272
    65  H    0.023169
    66  H    0.012488
    67  H    0.004611
    68  H    0.006237
    69  H    0.004596
    70  H    0.008860
    71  H    0.018245
    72  H    0.029137
    73  H    0.047294
    74  H    0.009077
    75  H    0.045795
    76  H    0.034974
    77  H    0.042610
    78  H    0.046461
    79  H    0.053408
    80  Mg   0.838255
    81  C   -0.016820
    82  C   -0.087624
    83  C   -0.045443
    84  C   -0.064897
    85  N   -0.254581
    86  C   -0.049873
    87  C   -0.015129
    88  C   -0.090549
    89  C    0.045865
    90  C    0.114397
    91  C    0.062436
    92  C   -0.077805
    93  H    0.034607
    94  N   -0.423544
    95  C    0.163177
    96  C   -0.174412
    97  C   -0.007572
    98  C    0.152268
    99  C    0.099330
   100  C    0.015858
   101  O   -0.253197
   102  C    0.061008
   103  N   -0.350094
   104  C    0.037575
   105  C   -0.019848
   106  C   -0.034744
   107  C    0.088875
   108  C    0.073696
   109  C    0.034746
   110  C   -0.007687
   111  N   -0.324051
   112  C    0.078364
   113  C   -0.163287
   114  C    0.002061
   115  C    0.096167
   116  C    0.131533
   117  C    0.042230
   118  O   -0.188381
   119  C    0.000934
   120  C    0.211162
   121  O   -0.251011
   122  O   -0.305622
   123  C    0.152177
   124  H   -0.019635
   125  H   -0.015535
   126  H   -0.040616
   127  H   -0.000885
   128  H   -0.004187
   129  H    0.022319
   130  H    0.014413
   131  H    0.016219
   132  H    0.014399
   133  H    0.037649
   134  H    0.020555
   135  H    0.019815
   136  H    0.008747
   137  H    0.026088
   138  H    0.040581
   139  H    0.038100
   140  H    0.036588
   141  H    0.034676
   142  H    0.014512
   143  H    0.012229
   144  H    0.025115
   145  H    0.011588
   146  H    0.005535
   147  H    0.006143
   148  H    0.003509
   149  H    0.011024
   150  H    0.018000
   151  H    0.030264
   152  H    0.045740
   153  H    0.008464
   154  H    0.046725
   155  H    0.034850
   156  H    0.043589
   157  H    0.049558
   158  H    0.053318
 Sum of Mulliken charges =  -0.00000

 Dipole moment (field-independent basis, Debye):
    X=              0.1745    Y=              3.1157    Z=              0.1230  Tot=              3.1230
 Quadrupole moment (field-independent basis, Debye-Ang):
   XX=           -463.8279   YY=           -460.4083   ZZ=           -538.6024
   XY=              0.5945   XZ=             62.0001   YZ=              0.0282

 Normal termination of Gaussian 16 at Sat Sep 11 22:00:04 2021.
