 Gaussian 16, Revision A.03,
 Gaussian 16:  ES64L-G16RevA.03 25-Dec-2016

 -----------------------------------
 #p cam-b3lyp/Def2SVP td=(nstates=5)
 -----------------------------------

 --------------------------------
 TDDFT excited states in gaussian
 --------------------------------
 Symbolic Z-matrix:
 Charge =  0 Multiplicity = 1

                         Standard orientation:
 ---------------------------------------------------------------------
 Center     Atomic      Atomic             Coordinates (Angstroms)
 Number     Number       Type             X           Y           Z
 ---------------------------------------------------------------------
      1         12           0        7.796736   -0.966359   -0.001743
      2          6           0        8.420441    2.506129   -0.605922
      3          6           0        8.783071   -0.430027    3.220455
      4          6           0        7.689567   -4.104996    0.438816
      5          6           0        7.959908   -1.444072   -3.450050
      6          7           0        8.489531    0.852046    1.053759
      7          6           0        8.626555    2.132525    0.723959
      8          6           0        8.936508    3.054269    1.941206
      9          6           0        9.573626    1.970532    2.921814
     10          6           0        8.881899    0.726943    2.391790
     11          6           0       11.080246    1.805164    2.750782
     12          6           0        7.641554    3.688298    2.551806
     13          6           0        7.877730    4.846127    3.525975
     14          1           0        6.929826    5.949973    3.544724
     15          7           0        7.706682   -2.023878    1.664508
     16          6           0        8.140353   -1.642713    2.890041
     17          6           0        7.851085   -2.775631    3.795304
     18          6           0        7.387794   -3.918501    2.960257
     19          6           0        7.603910   -3.396568    1.635018
     20          6           0        7.974613   -2.690267    5.285675
     21          6           0        6.847433   -5.270951    3.302341
     22          8           0        6.723935   -6.195222    2.427673
     23          6           0        6.545401   -5.517362    4.723995
     24          7           0        8.038292   -2.590337   -1.290921
     25          6           0        7.883738   -3.845667   -0.855901
     26          6           0        7.822888   -4.815821   -1.998283
     27          6           0        7.724210   -3.931691   -3.324304
     28          6           0        7.834032   -2.527542   -2.680429
     29          6           0        9.007700   -5.784315   -2.117658
     30          6           0        6.532785   -4.217083   -4.272712
     31          6           0        5.236755   -3.818820   -3.602795
     32          7           0        7.952131    0.305377   -1.753766
     33          6           0        8.026984   -0.108039   -3.091733
     34          6           0        8.230827    1.103250   -3.907389
     35          6           0        8.277280    2.142107   -2.979777
     36          6           0        8.139152    1.610361   -1.665830
     37          6           0        8.404902    1.137769   -5.319104
     38          6           0        8.436144    3.574957   -2.791208
     39          8           0        8.496919    4.547332   -3.545055
     40          6           0        8.657260    3.854617   -1.239201
     41          6           0        7.745994    4.985515   -0.846807
     42          8           0        6.506463    4.841186   -0.856704
     43          8           0        8.472133    5.971816   -0.298652
     44          6           0        7.624765    7.112813    0.139809
     45          1           0        9.292791   -0.432868    4.185917
     46          1           0        7.546033   -5.183093    0.536505
     47          1           0        7.935502   -1.505987   -4.539557
     48          1           0        9.659497    3.844999    1.740066
     49          1           0        9.293341    2.146599    3.960160
     50          1           0       11.447869    2.367455    1.892526
     51          1           0       11.240924    0.737028    2.603263
     52          1           0       11.605150    2.062850    3.671026
     53          1           0        7.173706    2.971003    3.226096
     54          1           0        6.962419    4.013661    1.762984
     55          1           0        8.899417    5.221101    3.459192
     56          1           0        7.796921    4.459541    4.541958
     57          1           0        8.493640   -1.783312    5.593227
     58          1           0        8.634368   -3.499760    5.597369
     59          1           0        7.010066   -2.789680    5.783770
     60          1           0        7.452298   -5.380955    5.313470
     61          1           0        6.085213   -6.503883    4.767037
     62          1           0        5.838177   -4.763260    5.070569
     63          1           0        6.940698   -5.450564   -1.925709
     64          1           0        8.603004   -4.047105   -3.959185
     65          1           0        8.717184   -6.835111   -2.106039
     66          1           0        9.706542   -5.562854   -1.311516
     67          1           0        9.634916   -5.633185   -2.995825
     68          1           0        6.467536   -5.282779   -4.489465
     69          1           0        6.603610   -3.688954   -5.223666
     70          1           0        4.998944   -4.690982   -2.994839
     71          1           0        4.462000   -3.640163   -4.349151
     72          1           0        5.381439   -2.978099   -2.924015
     73          1           0        7.798888    1.968301   -5.680951
     74          1           0        8.102353    0.197013   -5.778502
     75          1           0        9.479236    1.308622   -5.385970
     76          1           0        9.708196    4.113385   -1.113927
     77          1           0        8.011080    8.006500   -0.350413
     78          1           0        7.621084    7.095148    1.229799
     79          1           0        6.593863    7.112273   -0.215972
     80         12           0       -7.966348    0.969417    0.179383
     81          6           0       -8.200544   -2.606438   -0.014143
     82          6           0       -7.125256    0.943894   -3.126144
     83          6           0       -7.313740    4.064881    0.423624
     84          6           0       -7.697919    0.625844    3.637071
     85          7           0       -7.727323   -0.680772   -1.273884
     86          6           0       -7.902371   -1.993436   -1.248962
     87          6           0       -7.828388   -2.678707   -2.639819
     88          6           0       -6.937074   -1.581292   -3.401465
     89          6           0       -7.307527   -0.350339   -2.576725
     90          6           0       -5.442432   -1.817657   -3.261837
     91          6           0       -9.240756   -2.834120   -3.305458
     92          6           0       -9.281103   -3.766797   -4.517997
     93          1           0      -10.473721   -4.582593   -4.729235
     94          7           0       -7.795862    2.360719   -1.225534
     95          6           0       -7.468898    2.172894   -2.521326
     96          6           0       -7.457402    3.511455   -3.131467
     97          6           0       -7.642729    4.520126   -2.053063
     98          6           0       -7.568854    3.670192   -0.881632
     99          6           0       -7.361958    3.729314   -4.613643
    100          6           0       -7.839423    6.005770   -2.072293
    101          8           0       -7.740788    6.711894   -1.007177
    102          6           0       -8.058438    6.621079   -3.389455
    103          7           0       -7.352304    2.159755    1.769479
    104          6           0       -7.191334    3.486089    1.618326
    105          6           0       -7.016355    4.169973    2.953277
    106          6           0       -7.336297    3.053810    4.053007
    107          6           0       -7.563888    1.841147    3.124008
    108          6           0       -5.633864    4.765048    3.219731
    109          6           0       -8.427523    3.394373    5.104633
    110          6           0       -9.779779    3.484003    4.434731
    111          7           0       -8.132969   -0.650743    1.599022
    112          6           0       -7.958731   -0.579836    2.998550
    113          6           0       -8.057295   -1.958550    3.519955
    114          6           0       -8.260696   -2.744805    2.375879
    115          6           0       -8.266885   -1.917021    1.220789
    116          6           0       -7.912059   -2.345147    4.882146
    117          6           0       -8.460980   -4.088057    1.881643
    118          8           0       -8.632371   -5.189077    2.403279
    119          6           0       -8.304648   -4.073108    0.299954
    120          6           0       -9.460331   -4.835293   -0.288250
    121          8           0      -10.622989   -4.409482   -0.171933
    122          8           0       -8.985266   -5.819778   -1.072772
    123          6           0      -10.093981   -6.597196   -1.687753
    124          1           0       -6.633840    1.031516   -4.095533
    125          1           0       -7.191840    5.139788    0.575890
    126          1           0       -7.722797    0.446330    4.714028
    127          1           0       -7.324223   -3.637623   -2.647524
    128          1           0       -7.256946   -1.459469   -4.433071
    129          1           0       -5.224049   -2.619887   -2.572713
    130          1           0       -5.029676   -0.885094   -2.899881
    131          1           0       -4.993641   -1.984311   -4.245275
    132          1           0       -9.515513   -1.887141   -3.787615
    133          1           0       -9.969636   -3.147967   -2.583757
    134          1           0       -8.376215   -4.381732   -4.595314
    135          1           0       -9.269389   -3.157511   -5.424998
    136          1           0       -7.069962    2.810645   -5.137270
    137          1           0       -6.525376    4.415913   -4.782702
    138          1           0       -8.269479    4.167688   -5.034250
    139          1           0       -7.211517    6.402452   -4.035500
    140          1           0       -8.267007    7.673816   -3.189181
    141          1           0       -8.935609    6.154870   -3.851887
    142          1           0       -7.720242    4.985521    3.065190
    143          1           0       -6.452749    2.819540    4.664807
    144          1           0       -5.661384    5.846696    3.450707
    145          1           0       -5.008922    4.576224    2.356988
    146          1           0       -5.072161    4.287598    4.020819
    147          1           0       -8.234547    4.374941    5.546689
    148          1           0       -8.481172    2.679101    5.918571
    149          1           0       -9.791638    4.503663    4.038191
    150          1           0      -10.577148    3.333110    5.159631
    151          1           0       -9.842823    2.797970    3.582071
    152          1           0       -8.694408   -3.063810    5.086939
    153          1           0       -7.975285   -1.486922    5.547908
    154          1           0       -6.905954   -2.772260    4.857470
    155          1           0       -7.345792   -4.534790    0.061163
    156          1           0       -9.933891   -7.646745   -1.422213
    157          1           0      -10.076983   -6.341642   -2.763926
    158          1           0      -11.094286   -6.432354   -1.304776
 ---------------------------------------------------------------------

 SCF Done:  E(RCAM-B3LYP) =  -4069.81181179     A.U. after   19 cycles

 Excitation energies and oscillator strengths:

 Excited State   1:      Singlet-A      1.6702 eV  742.35 nm  f=0.0290  <S**2>=0.000
     309 -> 315        0.10314
     310 -> 316        0.13836
     311 -> 313        0.40883
     312 -> 314        0.55130
 This state for optimization and/or second-order correction.
 Total Energy, E(TD-HF/TD-DFT) =  -4069.75043452
 Copying the excited state density for this state as the 1-particle RhoCI density.

 Excited State   2:      Singlet-A      1.6854 eV  735.63 nm  f=0.7269  <S**2>=0.000
     309 -> 315        0.14214
     310 -> 316       -0.10493
     311 -> 313        0.55049
     312 -> 314       -0.40832

 Excited State   3:      Singlet-A      2.1860 eV  567.18 nm  f=0.0592  <S**2>=0.000
     309 -> 313        0.13832
     310 -> 314        0.62766
     312 -> 316       -0.26644

 Excited State   4:      Singlet-A      2.1932 eV  565.31 nm  f=0.1343  <S**2>=0.000
     309 -> 313        0.62570
     310 -> 314       -0.13727
     311 -> 315       -0.27207

 Excited State   5:      Singlet-A      2.7654 eV  448.35 nm  f=0.0000  <S**2>=0.000
     312 -> 313        0.70710

 The electronic state is 1-A.
 Alpha  occ. eigenvalues --  -46.87835 -46.87589 -19.26317 -19.26297 -19.19106
 Alpha  occ. eigenvalues --  -19.19057 -19.18836 -19.18634 -19.18210 -19.17989
 Alpha  occ. eigenvalues --  -14.42487 -14.42425 -14.41490 -14.41290 -14.39440
 Alpha  occ. eigenvalues --  -14.39279 -14.38627 -14.38531 -10.39116 -10.39035
 Alpha  occ. eigenvalues --  -10.35468 -10.35310 -10.34430 -10.34166 -10.31709
 Alpha  occ. eigenvalues --  -10.31708 -10.31444 -10.31239 -10.30947 -10.30942
 Alpha  occ. eigenvalues --  -10.30610 -10.30547 -10.30329 -10.30292 -10.30246
 Alpha  occ. eigenvalues --  -10.30070 -10.29964 -10.29829 -10.29668 -10.29362
 Alpha  occ. eigenvalues --  -10.29331 -10.29290 -10.28779 -10.28647 -10.28596
 Alpha  occ. eigenvalues --  -10.28562 -10.28401 -10.28331 -10.28148 -10.28062
 Alpha  occ. eigenvalues --  -10.27930 -10.27831 -10.27764 -10.27619 -10.27593
 Alpha  occ. eigenvalues --  -10.27552 -10.27504 -10.27495 -10.27462 -10.27441
 Alpha  occ. eigenvalues --  -10.27413 -10.27393 -10.27372 -10.27315 -10.27195
 Alpha  occ. eigenvalues --  -10.26987 -10.26734 -10.26628 -10.26415 -10.26324
 Alpha  occ. eigenvalues --  -10.26262 -10.26251 -10.26096 -10.26062 -10.25933
 Alpha  occ. eigenvalues --  -10.25899 -10.25869 -10.25806 -10.25475 -10.25328
 Alpha  occ. eigenvalues --  -10.24872 -10.24826 -10.24804 -10.24766 -10.24690
 Alpha  occ. eigenvalues --  -10.24619  -3.16578  -3.16339  -1.91460  -1.91221
 Alpha  occ. eigenvalues --   -1.91047  -1.90889  -1.90810  -1.90647  -1.16667
 Alpha  occ. eigenvalues --   -1.16590  -1.08668  -1.08598  -1.07236  -1.06891
 Alpha  occ. eigenvalues --   -1.06885  -1.06679  -1.04618  -1.04423  -1.03800
 Alpha  occ. eigenvalues --   -1.03592  -1.03273  -1.02969  -1.02450  -1.02041
 Alpha  occ. eigenvalues --   -0.92010  -0.91919  -0.89567  -0.89432  -0.89220
 Alpha  occ. eigenvalues --   -0.89078  -0.88333  -0.88158  -0.87914  -0.87732
 Alpha  occ. eigenvalues --   -0.87710  -0.87613  -0.87302  -0.87040  -0.85015
 Alpha  occ. eigenvalues --   -0.84929  -0.83986  -0.83817  -0.82994  -0.82854
 Alpha  occ. eigenvalues --   -0.82680  -0.82580  -0.81622  -0.81536  -0.80631
 Alpha  occ. eigenvalues --   -0.80376  -0.78831  -0.78561  -0.77258  -0.77076
 Alpha  occ. eigenvalues --   -0.76971  -0.76834  -0.75958  -0.75769  -0.74940
 Alpha  occ. eigenvalues --   -0.74737  -0.72815  -0.72632  -0.71709  -0.71510
 Alpha  occ. eigenvalues --   -0.69962  -0.69703  -0.68906  -0.68757  -0.67677
 Alpha  occ. eigenvalues --   -0.67533  -0.67248  -0.67129  -0.65321  -0.65203
 Alpha  occ. eigenvalues --   -0.64892  -0.64704  -0.64659  -0.64588  -0.64315
 Alpha  occ. eigenvalues --   -0.64142  -0.62335  -0.62219  -0.60475  -0.60265
 Alpha  occ. eigenvalues --   -0.59838  -0.59724  -0.59027  -0.58925  -0.58542
 Alpha  occ. eigenvalues --   -0.58359  -0.57623  -0.57493  -0.57348  -0.57170
 Alpha  occ. eigenvalues --   -0.56347  -0.56136  -0.56012  -0.55825  -0.55551
 Alpha  occ. eigenvalues --   -0.55384  -0.55381  -0.55188  -0.54566  -0.54430
 Alpha  occ. eigenvalues --   -0.53927  -0.53840  -0.53335  -0.53252  -0.53160
 Alpha  occ. eigenvalues --   -0.53071  -0.52952  -0.52837  -0.52782  -0.52585
 Alpha  occ. eigenvalues --   -0.52496  -0.52351  -0.51962  -0.51831  -0.51646
 Alpha  occ. eigenvalues --   -0.51586  -0.51237  -0.51139  -0.50594  -0.50392
 Alpha  occ. eigenvalues --   -0.50077  -0.49947  -0.49905  -0.49800  -0.49544
 Alpha  occ. eigenvalues --   -0.49413  -0.49250  -0.49131  -0.49129  -0.49036
 Alpha  occ. eigenvalues --   -0.48630  -0.48501  -0.48492  -0.48474  -0.48314
 Alpha  occ. eigenvalues --   -0.48262  -0.47729  -0.47523  -0.47330  -0.47044
 Alpha  occ. eigenvalues --   -0.46839  -0.46644  -0.46587  -0.46482  -0.46399
 Alpha  occ. eigenvalues --   -0.46204  -0.46202  -0.46023  -0.45863  -0.45763
 Alpha  occ. eigenvalues --   -0.45244  -0.45141  -0.44617  -0.44539  -0.44451
 Alpha  occ. eigenvalues --   -0.44406  -0.44186  -0.44121  -0.44057  -0.44052
 Alpha  occ. eigenvalues --   -0.44013  -0.43866  -0.43533  -0.43495  -0.43422
 Alpha  occ. eigenvalues --   -0.43317  -0.43066  -0.42870  -0.42838  -0.42739
 Alpha  occ. eigenvalues --   -0.42701  -0.42490  -0.42056  -0.41904  -0.41742
 Alpha  occ. eigenvalues --   -0.41603  -0.41567  -0.41392  -0.41177  -0.40918
 Alpha  occ. eigenvalues --   -0.40907  -0.40847  -0.40651  -0.40626  -0.40616
 Alpha  occ. eigenvalues --   -0.40431  -0.40262  -0.40157  -0.39499  -0.39372
 Alpha  occ. eigenvalues --   -0.38513  -0.38287  -0.37780  -0.37588  -0.37364
 Alpha  occ. eigenvalues --   -0.37297  -0.37202  -0.37129  -0.36752  -0.36715
 Alpha  occ. eigenvalues --   -0.36232  -0.36154  -0.34325  -0.34185  -0.33807
 Alpha  occ. eigenvalues --   -0.33804  -0.33225  -0.33106  -0.31367  -0.31193
 Alpha  occ. eigenvalues --   -0.31072  -0.30902  -0.30069  -0.29894  -0.29484
 Alpha  occ. eigenvalues --   -0.29361  -0.29253  -0.29143  -0.24119  -0.23965
 Alpha  occ. eigenvalues --   -0.21166  -0.21046
 Alpha virt. eigenvalues --   -0.08811  -0.08720  -0.01787  -0.01612  -0.00088
 Alpha virt. eigenvalues --    0.00048   0.02160   0.02272   0.03077   0.03292
 Alpha virt. eigenvalues --    0.04683   0.04801   0.05062   0.05222   0.06148

 Mulliken charges:
               1
     1  Mg   0.838640
     2  C   -0.002933
     3  C   -0.094025
     4  C   -0.045848
     5  C   -0.064083
     6  N   -0.256773
     7  C   -0.052511
     8  C   -0.013995
     9  C   -0.087027
    10  C    0.046354
    11  C    0.104785
    12  C    0.053456
    13  C   -0.071883
    14  H    0.036236
    15  N   -0.433194
    16  C    0.168473
    17  C   -0.177028
    18  C   -0.003875
    19  C    0.148719
    20  C    0.110141
    21  C    0.012385
    22  O   -0.249471
    23  C    0.062416
    24  N   -0.341119
    25  C    0.041214
    26  C   -0.028215
    27  C   -0.023920
    28  C    0.074755
    29  C    0.076131
    30  C    0.035180
    31  C   -0.004448
    32  N   -0.310425
    33  C    0.080277
    34  C   -0.169987
    35  C    0.008319
    36  C    0.082829
    37  C    0.127380
    38  C    0.045976
    39  O   -0.188579
    40  C   -0.005265
    41  C    0.212849
    42  O   -0.257212
    43  O   -0.304761
    44  C    0.157665
    45  H   -0.017447
    46  H   -0.016722
    47  H   -0.041741
    48  H    0.000981
    49  H   -0.003934
    50  H    0.025493
    51  H    0.016467
    52  H    0.016781
    53  H    0.011196
    54  H    0.044068
    55  H    0.017920
    56  H    0.018008
    57  H    0.005929
    58  H    0.027004
    59  H    0.039763
    60  H    0.037382
    61  H    0.036021
    62  H    0.031615
    63  H    0.016565
    64  H    0.009468
    65  H    0.023320
    66  H    0.012677
    67  H    0.004745
    68  H    0.006367
    69  H    0.004479
    70  H    0.008962
    71  H    0.017406
    72  H    0.029054
    73  H    0.047260
    74  H    0.008850
    75  H    0.046070
    76  H    0.035212
    77  H    0.042989
    78  H    0.046500
    79  H    0.053688
    80  Mg   0.837972
    81  C   -0.016818
    82  C   -0.087590
    83  C   -0.045269
    84  C   -0.064964
    85  N   -0.254572
    86  C   -0.049845
    87  C   -0.015116
    88  C   -0.090515
    89  C    0.045756
    90  C    0.114260
    91  C    0.062528
    92  C   -0.077811
    93  H    0.034657
    94  N   -0.423591
    95  C    0.162964
    96  C   -0.174162
    97  C   -0.007627
    98  C    0.152220
    99  C    0.099153
   100  C    0.015752
   101  O   -0.253140
   102  C    0.061166
   103  N   -0.350016
   104  C    0.037632
   105  C   -0.019901
   106  C   -0.034663
   107  C    0.088880
   108  C    0.073579
   109  C    0.034764
   110  C   -0.007627
   111  N   -0.324047
   112  C    0.078351
   113  C   -0.163339
   114  C    0.002158
   115  C    0.096097
   116  C    0.131505
   117  C    0.042265
   118  O   -0.188183
   119  C    0.000946
   120  C    0.211222
   121  O   -0.251126
   122  O   -0.305587
   123  C    0.152083
   124  H   -0.019229
   125  H   -0.015473
   126  H   -0.040825
   127  H   -0.000685
   128  H   -0.004351
   129  H    0.022465
   130  H    0.014975
   131  H    0.016392
   132  H    0.013900
   133  H    0.037566
   134  H    0.020782
   135  H    0.019612
   136  H    0.008901
   137  H    0.026890
   138  H    0.039716
   139  H    0.038727
   140  H    0.036380
   141  H    0.033708
   142  H    0.014277
   143  H    0.012154
   144  H    0.025023
   145  H    0.012368
   146  H    0.005421
   147  H    0.006052
   148  H    0.003374
   149  H    0.010934
   150  H    0.017704
   151  H    0.030222
   152  H    0.045789
   153  H    0.008241
   154  H    0.046729
   155  H    0.035086
   156  H    0.043802
   157  H    0.049502
   158  H    0.053472
 Sum of Mulliken charges =  -0.00000

 Dipole moment (field-independent basis, Debye):
    X=              4.1143    Y=              0.2618    Z=              0.3209  Tot=              4.1351
 Quadrupole moment (field-independent basis, Debye-Ang):
   XX=           -521.2048   YY=           -549.1909   ZZ=           -448.6066
   XY=            -23.4652   XZ=             68.9231   YZ=             45.0287

 Normal termination of Gaussian 16 at Sat Sep  4 12:51:02 2021.
