 Gaussian 16, Revision A.03,
 Gaussian 16:  ES64L-G16RevA.03 25-Dec-2016

 -----------------------------------
 #p cam-b3lyp/Def2SVP td=(nstates=5)
 -----------------------------------

 --------------------------------
 TDDFT excited states in gaussian
 --------------------------------
 Symbolic Z-matrix:
 Charge =  0 Multiplicity = 1

                         Standard orientation:
 ---------------------------------------------------------------------
 Center     Atomic      Atomic             Coordinates (Angstroms)
 Number     Number       Type             X           Y           Z
 ---------------------------------------------------------------------
      1         12           0        3.737903   -1.080827    0.609272
      2          6           0        4.741708    1.256956   -1.908536
      3          6           0        5.163177    1.004773    2.903162
      4          6           0        3.267286   -3.334746    2.789867
      5          6           0        3.424567   -3.451556   -1.925905
      6          7           0        4.787106    0.857317    0.400908
      7          6           0        5.053052    1.675108   -0.612828
      8          6           0        5.625509    3.052186   -0.161914
      9          6           0        6.224891    2.624742    1.252311
     10          6           0        5.315746    1.446824    1.555443
     11          6           0        7.664961    2.127489    1.178555
     12          6           0        4.508366    4.138203   -0.006064
     13          6           0        5.010717    5.580140    0.111467
     14          1           0        4.227132    6.646253   -0.494130
     15          7           0        3.706867   -0.968951    2.581421
     16          6           0        4.330117   -0.043667    3.349987
     17          6           0        4.002482   -0.389118    4.749987
     18          6           0        3.295209   -1.699763    4.741676
     19          6           0        3.419601   -2.070929    3.355263
     20          6           0        4.312729    0.503749    5.912005
     21          6           0        2.624290   -2.496899    5.815256
     22          8           0        2.275721   -3.714579    5.641106
     23          6           0        2.463492   -1.834270    7.122203
     24          7           0        3.606106   -3.161064    0.495781
     25          6           0        3.338779   -3.895791    1.580998
     26          6           0        3.013892   -5.313461    1.214119
     27          6           0        2.876643   -5.338080   -0.376576
     28          6           0        3.248139   -3.863248   -0.668347
     29          6           0        4.036615   -6.369917    1.654516
     30          6           0        1.553526   -5.894643   -0.959688
     31          6           0        0.411014   -4.964282   -0.618817
     32          7           0        3.851524   -1.080786   -1.558246
     33          6           0        3.710961   -2.186024   -2.409930
     34          6           0        3.975633   -1.711547   -3.780655
     35          6           0        4.269938   -0.358031   -3.628260
     36          6           0        4.219632   -0.014996   -2.246924
     37          6           0        3.983520   -2.516171   -4.954091
     38          6           0        4.639330    0.872677   -4.308528
     39          8           0        4.738798    1.215564   -5.487523
     40          6           0        5.078781    1.939418   -3.210907
     41          6           0        4.379308    3.232916   -3.528570
     42          8           0        3.139303    3.331119   -3.428023
     43          8           0        5.290239    4.208198   -3.668467
     44          6           0        4.660461    5.524635   -3.955745
     45          1           0        5.779217    1.460224    3.680979
     46          1           0        2.994242   -4.120475    3.497338
     47          1           0        3.262671   -4.115564   -2.776985
     48          1           0        6.418158    3.445402   -0.798712
     49          1           0        6.096090    3.405508    2.001668
     50          1           0        7.999366    2.027023    0.146082
     51          1           0        7.663391    1.156597    1.674397
     52          1           0        8.325224    2.764005    1.768197
     53          1           0        4.032833    4.027397    0.968437
     54          1           0        3.789561    4.072351   -0.823566
     55          1           0        6.057939    5.662447   -0.180871
     56          1           0        5.000667    5.860531    1.164786
     57          1           0        4.980687    1.315380    5.626289
     58          1           0        4.891276   -0.087028    6.621916
     59          1           0        3.409716    0.877700    6.394769
     60          1           0        3.444117   -1.550792    7.505040
     61          1           0        1.884560   -2.521248    7.738441
     62          1           0        1.909198   -0.905871    6.981555
     63          1           0        2.070054   -5.626041    1.658965
     64          1           0        3.650421   -5.947173   -0.844492
     65          1           0        3.612340   -7.156496    2.279008
     66          1           0        4.849625   -5.858152    2.168717
     67          1           0        4.569369   -6.858249    0.838966
     68          1           0        1.321743   -6.862811   -0.517112
     69          1           0        1.580323   -6.022560   -2.041894
     70          1           0        0.133325   -5.278042    0.386804
     71          1           0       -0.416340   -5.106996   -1.314755
     72          1           0        0.746003   -3.928739   -0.556219
     73          1           0        3.454681   -1.946486   -5.718133
     74          1           0        3.505997   -3.479576   -4.776821
     75          1           0        5.055376   -2.607335   -5.129220
     76          1           0        6.162176    2.032163   -3.280024
     77          1           0        5.101143    5.896202   -4.880932
     78          1           0        4.784191    6.129928   -3.057571
     79          1           0        3.603708    5.505049   -4.224497
     80         12           0       -3.867100    1.140792    0.287095
     81          6           0       -4.310371   -1.452872   -2.153288
     82          6           0       -5.116079   -1.030253    2.602527
     83          6           0       -3.912215    3.538252    2.364974
     84          6           0       -3.747244    3.412789   -2.352855
     85          7           0       -4.585161   -0.944871    0.123877
     86          6           0       -4.648701   -1.848537   -0.842405
     87          6           0       -5.023295   -3.276837   -0.363662
     88          6           0       -5.791656   -2.882841    0.990310
     89          6           0       -5.101938   -1.552250    1.284422
     90          6           0       -7.273919   -2.617520    0.785723
     91          6           0       -3.759643   -4.159722   -0.070914
     92          6           0       -4.044606   -5.653309    0.101579
     93          1           0       -3.056366   -6.611340   -0.386289
     94          7           0       -3.961990    1.120680    2.269309
     95          6           0       -4.481077    0.149373    3.049297
     96          6           0       -4.328472    0.621064    4.434353
     97          6           0       -3.826920    2.021778    4.400279
     98          6           0       -3.902352    2.294278    2.978967
     99          6           0       -4.572352   -0.259505    5.625381
    100          6           0       -3.368867    2.964864    5.471257
    101          8           0       -3.200639    4.214497    5.241177
    102          6           0       -3.213053    2.399850    6.819576
    103          7           0       -4.046477    3.199656    0.060706
    104          6           0       -3.982938    4.020207    1.123993
    105          6           0       -3.858532    5.462278    0.693483
    106          6           0       -3.607320    5.419174   -0.885318
    107          6           0       -3.723962    3.896889   -1.118646
    108          6           0       -5.064763    6.352213    0.992499
    109          6           0       -2.346712    6.154101   -1.417678
    110          6           0       -1.097892    5.446167   -0.943692
    111          7           0       -3.815497    1.018174   -1.869370
    112          6           0       -3.792952    2.093352   -2.784569
    113          6           0       -3.879317    1.512932   -4.140331
    114          6           0       -3.970010    0.130739   -3.917183
    115          6           0       -3.962497   -0.130365   -2.520301
    116          6           0       -3.916049    2.247586   -5.358959
    117          6           0       -4.081115   -1.166067   -4.545400
    118          8           0       -4.046199   -1.575344   -5.705139
    119          6           0       -4.433839   -2.240245   -3.428204
    120          6           0       -3.520283   -3.420683   -3.613931
    121          8           0       -2.294632   -3.305255   -3.437657
    122          8           0       -4.262276   -4.534223   -3.754853
    123          6           0       -3.400714   -5.733603   -3.930934
    124          1           0       -5.703814   -1.549622    3.359964
    125          1           0       -3.817106    4.395662    3.035258
    126          1           0       -3.617254    4.048033   -3.231632
    127          1           0       -5.689341   -3.817605   -1.025268
    128          1           0       -5.590110   -3.599933    1.781835
    129          1           0       -7.543528   -2.622456   -0.259942
    130          1           0       -7.461263   -1.644273    1.220160
    131          1           0       -7.867879   -3.327202    1.368739
    132          1           0       -3.382306   -3.923359    0.932328
    133          1           0       -3.013055   -4.019407   -0.828242
    134          1           0       -5.048115   -5.924562   -0.248202
    135          1           0       -4.062220   -5.882112    1.169925
    136          1           0       -5.090439   -1.184187    5.342623
    137          1           0       -5.285602    0.265164    6.270258
    138          1           0       -3.662116   -0.459659    6.194658
    139          1           0       -4.161344    1.980504    7.147214
    140          1           0       -2.793560    3.204303    7.426843
    141          1           0       -2.501397    1.568143    6.770291
    142          1           0       -3.010301    5.936757    1.171470
    143          1           0       -4.432724    5.886602   -1.442150
    144          1           0       -4.812641    7.237249    1.606684
    145          1           0       -5.819026    5.751348    1.482991
    146          1           0       -5.596032    6.719763    0.116216
    147          1           0       -2.300777    7.168400   -1.013657
    148          1           0       -2.319315    6.236655   -2.499087
    149          1           0       -0.952783    5.849235    0.063070
    150          1           0       -0.254647    5.683459   -1.589181
    151          1           0       -1.269925    4.368019   -0.845469
    152          1           0       -3.256877    1.738429   -6.049433
    153          1           0       -3.613710    3.281927   -5.208913
    154          1           0       -4.977508    2.161960   -5.606400
    155          1           0       -5.482969   -2.510809   -3.553505
    156          1           0       -3.712580   -6.217121   -4.861872
    157          1           0       -3.509173   -6.318856   -2.998481
    158          1           0       -2.346348   -5.569860   -4.120570
 ---------------------------------------------------------------------

 SCF Done:  E(RCAM-B3LYP) =  -4069.81244712     A.U. after   19 cycles

 Excitation energies and oscillator strengths:

 Excited State   1:      Singlet-A      1.6365 eV  757.63 nm  f=0.0036  <S**2>=0.000
     309 -> 315        0.11779
     310 -> 316       -0.11258
     311 -> 313        0.49864
     312 -> 314       -0.47440
 This state for optimization and/or second-order correction.
 Total Energy, E(TD-HF/TD-DFT) =  -4069.75230753
 Copying the excited state density for this state as the 1-particle RhoCI density.

 Excited State   2:      Singlet-A      1.7084 eV  725.74 nm  f=0.6804  <S**2>=0.000
     309 -> 315        0.12492
     310 -> 316        0.13197
     311 -> 313        0.47142
     312 -> 314        0.49530

 Excited State   3:      Singlet-A      2.1786 eV  569.09 nm  f=0.0094  <S**2>=0.000
     309 -> 313        0.52661
     310 -> 314        0.37328
     311 -> 315       -0.21725
     312 -> 316       -0.15339

 Excited State   4:      Singlet-A      2.1949 eV  564.89 nm  f=0.1624  <S**2>=0.000
     309 -> 313       -0.36855
     310 -> 314        0.52118
     311 -> 315        0.16210
     312 -> 316       -0.22938

 Excited State   5:      Singlet-A      2.3661 eV  524.00 nm  f=0.0000  <S**2>=0.000
     312 -> 313        0.70705

 The electronic state is 1-A.
 Alpha  occ. eigenvalues --  -46.87516 -46.87472 -19.26406 -19.26139 -19.19232
 Alpha  occ. eigenvalues --  -19.18852 -19.18669 -19.18625 -19.17904 -19.17893
 Alpha  occ. eigenvalues --  -14.42317 -14.42176 -14.41167 -14.41166 -14.39173
 Alpha  occ. eigenvalues --  -14.39136 -14.38395 -14.38283 -10.39115 -10.38904
 Alpha  occ. eigenvalues --  -10.35312 -10.35309 -10.34126 -10.34077 -10.31887
 Alpha  occ. eigenvalues --  -10.31592 -10.31115 -10.31112 -10.30880 -10.30679
 Alpha  occ. eigenvalues --  -10.30261 -10.30217 -10.30204 -10.30153 -10.29950
 Alpha  occ. eigenvalues --  -10.29934 -10.29690 -10.29621 -10.29341 -10.29250
 Alpha  occ. eigenvalues --  -10.29208 -10.28981 -10.28625 -10.28599 -10.28537
 Alpha  occ. eigenvalues --  -10.28388 -10.28236 -10.28105 -10.27993 -10.27885
 Alpha  occ. eigenvalues --  -10.27810 -10.27510 -10.27478 -10.27447 -10.27322
 Alpha  occ. eigenvalues --  -10.27318 -10.27307 -10.27293 -10.27291 -10.27268
 Alpha  occ. eigenvalues --  -10.27200 -10.27192 -10.27186 -10.27139 -10.26955
 Alpha  occ. eigenvalues --  -10.26929 -10.26594 -10.26514 -10.26411 -10.26371
 Alpha  occ. eigenvalues --  -10.26021 -10.25893 -10.25833 -10.25797 -10.25710
 Alpha  occ. eigenvalues --  -10.25693 -10.25543 -10.25415 -10.25253 -10.25238
 Alpha  occ. eigenvalues --  -10.24678 -10.24541 -10.24525 -10.24512 -10.24298
 Alpha  occ. eigenvalues --  -10.24090  -3.16258  -3.16221  -1.91140  -1.91103
 Alpha  occ. eigenvalues --   -1.90727  -1.90692  -1.90568  -1.90529  -1.16694
 Alpha  occ. eigenvalues --   -1.16482  -1.08513  -1.08364  -1.07080  -1.06983
 Alpha  occ. eigenvalues --   -1.06884  -1.06471  -1.04320  -1.04313  -1.03483
 Alpha  occ. eigenvalues --   -1.03479  -1.02948  -1.02843  -1.02127  -1.01919
 Alpha  occ. eigenvalues --   -0.91828  -0.91706  -0.89281  -0.89204  -0.89007
 Alpha  occ. eigenvalues --   -0.88956  -0.88008  -0.87992  -0.87571  -0.87539
 Alpha  occ. eigenvalues --   -0.87498  -0.87402  -0.87054  -0.86976  -0.84862
 Alpha  occ. eigenvalues --   -0.84753  -0.83662  -0.83621  -0.82813  -0.82788
 Alpha  occ. eigenvalues --   -0.82529  -0.82424  -0.81509  -0.81362  -0.80359
 Alpha  occ. eigenvalues --   -0.80319  -0.78539  -0.78458  -0.76975  -0.76937
 Alpha  occ. eigenvalues --   -0.76767  -0.76694  -0.75713  -0.75685  -0.74631
 Alpha  occ. eigenvalues --   -0.74628  -0.72497  -0.72477  -0.71422  -0.71420
 Alpha  occ. eigenvalues --   -0.69546  -0.69494  -0.68687  -0.68638  -0.67449
 Alpha  occ. eigenvalues --   -0.67393  -0.67087  -0.67018  -0.65139  -0.65047
 Alpha  occ. eigenvalues --   -0.64621  -0.64591  -0.64512  -0.64368  -0.63997
 Alpha  occ. eigenvalues --   -0.63968  -0.62204  -0.62083  -0.60206  -0.60181
 Alpha  occ. eigenvalues --   -0.59641  -0.59557  -0.58822  -0.58717  -0.58273
 Alpha  occ. eigenvalues --   -0.58241  -0.57462  -0.57348  -0.57068  -0.57054
 Alpha  occ. eigenvalues --   -0.56051  -0.56049  -0.55832  -0.55794  -0.55351
 Alpha  occ. eigenvalues --   -0.55301  -0.55093  -0.55063  -0.54349  -0.54267
 Alpha  occ. eigenvalues --   -0.53783  -0.53671  -0.53085  -0.53083  -0.53012
 Alpha  occ. eigenvalues --   -0.52972  -0.52797  -0.52686  -0.52574  -0.52567
 Alpha  occ. eigenvalues --   -0.52117  -0.52047  -0.51638  -0.51559  -0.51540
 Alpha  occ. eigenvalues --   -0.51397  -0.51034  -0.50914  -0.50399  -0.50352
 Alpha  occ. eigenvalues --   -0.49871  -0.49749  -0.49671  -0.49655  -0.49372
 Alpha  occ. eigenvalues --   -0.49300  -0.49082  -0.48976  -0.48954  -0.48858
 Alpha  occ. eigenvalues --   -0.48443  -0.48355  -0.48266  -0.48237  -0.48200
 Alpha  occ. eigenvalues --   -0.48194  -0.47462  -0.47457  -0.47063  -0.46975
 Alpha  occ. eigenvalues --   -0.46540  -0.46497  -0.46419  -0.46339  -0.46099
 Alpha  occ. eigenvalues --   -0.46075  -0.45918  -0.45883  -0.45679  -0.45547
 Alpha  occ. eigenvalues --   -0.45024  -0.44927  -0.44391  -0.44351  -0.44307
 Alpha  occ. eigenvalues --   -0.44248  -0.44004  -0.43901  -0.43874  -0.43837
 Alpha  occ. eigenvalues --   -0.43820  -0.43761  -0.43463  -0.43263  -0.43235
 Alpha  occ. eigenvalues --   -0.43130  -0.42877  -0.42766  -0.42736  -0.42511
 Alpha  occ. eigenvalues --   -0.42339  -0.42318  -0.41746  -0.41673  -0.41508
 Alpha  occ. eigenvalues --   -0.41447  -0.41299  -0.41294  -0.40897  -0.40831
 Alpha  occ. eigenvalues --   -0.40684  -0.40630  -0.40597  -0.40547  -0.40278
 Alpha  occ. eigenvalues --   -0.40271  -0.40124  -0.40040  -0.39156  -0.39039
 Alpha  occ. eigenvalues --   -0.38189  -0.38158  -0.37550  -0.37535  -0.37084
 Alpha  occ. eigenvalues --   -0.37039  -0.37030  -0.37021  -0.36758  -0.36508
 Alpha  occ. eigenvalues --   -0.36061  -0.35939  -0.34080  -0.34004  -0.33863
 Alpha  occ. eigenvalues --   -0.33582  -0.32991  -0.32904  -0.31199  -0.31183
 Alpha  occ. eigenvalues --   -0.30806  -0.30772  -0.29801  -0.29762  -0.29195
 Alpha  occ. eigenvalues --   -0.29158  -0.29017  -0.29006  -0.23850  -0.23798
 Alpha  occ. eigenvalues --   -0.20923  -0.20840
 Alpha virt. eigenvalues --   -0.08608  -0.08500  -0.01504  -0.01481   0.00108
 Alpha virt. eigenvalues --    0.00157   0.02336   0.02447   0.02533   0.04491
 Alpha virt. eigenvalues --    0.04777   0.04968   0.05117   0.05273   0.05912

 Mulliken charges:
               1
     1  Mg   0.839111
     2  C   -0.003514
     3  C   -0.094023
     4  C   -0.046352
     5  C   -0.059376
     6  N   -0.256797
     7  C   -0.052369
     8  C   -0.014143
     9  C   -0.086910
    10  C    0.045889
    11  C    0.104974
    12  C    0.053168
    13  C   -0.071049
    14  H    0.034085
    15  N   -0.432872
    16  C    0.167934
    17  C   -0.177779
    18  C   -0.005078
    19  C    0.148283
    20  C    0.110385
    21  C    0.010852
    22  O   -0.251416
    23  C    0.063060
    24  N   -0.341332
    25  C    0.041206
    26  C   -0.027647
    27  C   -0.024213
    28  C    0.075081
    29  C    0.076623
    30  C    0.036747
    31  C   -0.011542
    32  N   -0.311516
    33  C    0.083123
    34  C   -0.164944
    35  C    0.008065
    36  C    0.084654
    37  C    0.127077
    38  C    0.047078
    39  O   -0.188323
    40  C   -0.005892
    41  C    0.212950
    42  O   -0.257268
    43  O   -0.304612
    44  C    0.158247
    45  H   -0.018425
    46  H   -0.018315
    47  H   -0.039730
    48  H    0.000461
    49  H   -0.004234
    50  H    0.025091
    51  H    0.016360
    52  H    0.016050
    53  H    0.012224
    54  H    0.043737
    55  H    0.017664
    56  H    0.018442
    57  H    0.005946
    58  H    0.025707
    59  H    0.038618
    60  H    0.037930
    61  H    0.033303
    62  H    0.029741
    63  H    0.015285
    64  H    0.008489
    65  H    0.021628
    66  H    0.012162
    67  H    0.004276
    68  H    0.001866
    69  H    0.005050
    70  H    0.002566
    71  H    0.029578
    72  H    0.032826
    73  H    0.050486
    74  H    0.011492
    75  H    0.044353
    76  H    0.034649
    77  H    0.042788
    78  H    0.046098
    79  H    0.051933
    80  Mg   0.838274
    81  C   -0.017179
    82  C   -0.087062
    83  C   -0.045779
    84  C   -0.062446
    85  N   -0.254505
    86  C   -0.050250
    87  C   -0.015740
    88  C   -0.089945
    89  C    0.045307
    90  C    0.114541
    91  C    0.058474
    92  C   -0.077248
    93  H    0.031668
    94  N   -0.423400
    95  C    0.162738
    96  C   -0.174930
    97  C   -0.008691
    98  C    0.151898
    99  C    0.099649
   100  C    0.014433
   101  O   -0.254310
   102  C    0.061788
   103  N   -0.350242
   104  C    0.037577
   105  C   -0.019415
   106  C   -0.035050
   107  C    0.089322
   108  C    0.073985
   109  C    0.034458
   110  C   -0.007702
   111  N   -0.324928
   112  C    0.080573
   113  C   -0.159416
   114  C    0.002257
   115  C    0.097496
   116  C    0.131199
   117  C    0.043460
   118  O   -0.187839
   119  C   -0.000437
   120  C    0.210441
   121  O   -0.250279
   122  O   -0.304985
   123  C    0.150933
   124  H   -0.020118
   125  H   -0.016501
   126  H   -0.038998
   127  H   -0.001415
   128  H   -0.004107
   129  H    0.022078
   130  H    0.014427
   131  H    0.015907
   132  H    0.016293
   133  H    0.042458
   134  H    0.020678
   135  H    0.020735
   136  H    0.009227
   137  H    0.025189
   138  H    0.039502
   139  H    0.038789
   140  H    0.034629
   141  H    0.032179
   142  H    0.013670
   143  H    0.011822
   144  H    0.024101
   145  H    0.011232
   146  H    0.005388
   147  H    0.003959
   148  H    0.004830
   149  H    0.006809
   150  H    0.023852
   151  H    0.032843
   152  H    0.048595
   153  H    0.010226
   154  H    0.045698
   155  H    0.034853
   156  H    0.044453
   157  H    0.049237
   158  H    0.053066
 Sum of Mulliken charges =  -0.00000

 Dipole moment (field-independent basis, Debye):
    X=             -0.0914    Y=             -0.1343    Z=              6.4202  Tot=              6.4222
 Quadrupole moment (field-independent basis, Debye-Ang):
   XX=           -478.9072   YY=           -468.8313   ZZ=           -540.2206
   XY=             22.5924   XZ=              6.3681   YZ=             -1.8248

 Normal termination of Gaussian 16 at Wed Sep  8 18:54:53 2021.
