 Gaussian 16, Revision A.03,
 Gaussian 16:  ES64L-G16RevA.03 25-Dec-2016

 -----------------------------------
 #p cam-b3lyp/Def2SVP td=(nstates=5)
 -----------------------------------

 --------------------------------
 TDDFT excited states in gaussian
 --------------------------------
 Symbolic Z-matrix:
 Charge =  0 Multiplicity = 1

                         Standard orientation:
 ---------------------------------------------------------------------
 Center     Atomic      Atomic             Coordinates (Angstroms)
 Number     Number       Type             X           Y           Z
 ---------------------------------------------------------------------
      1         12           0        7.799714    0.923268    0.209219
      2          6           0        8.428743   -2.576854   -0.197823
      3          6           0        8.668010    1.308788   -3.068051
      4          6           0        7.691202    4.060089    0.662210
      5          6           0        8.087979    0.424981    3.646409
      6          7           0        8.446116   -0.526411   -1.333908
      7          6           0        8.588981   -1.847327   -1.377975
      8          6           0        8.851106   -2.392844   -2.813620
      9          6           0        9.457767   -1.075811   -3.476482
     10          6           0        8.791065   -0.032301   -2.597551
     11          6           0       10.970267   -0.956134   -3.319888
     12          6           0        7.532316   -2.839419   -3.529926
     13          6           0        7.728307   -3.679668   -4.795202
     14          1           0        6.775317   -4.740074   -5.086229
     15          7           0        7.655093    2.401590   -1.093278
     16          6           0        8.043023    2.378345   -2.391067
     17          6           0        7.726810    3.716557   -2.935015
     18          6           0        7.298819    4.579833   -1.799377
     19          6           0        7.559696    3.711447   -0.679900
     20          6           0        7.796698    4.049329   -4.393825
     21          6           0        6.752768    5.971064   -1.732770
     22          8           0        6.664767    6.615225   -0.631912
     23          6           0        6.401335    6.601093   -3.018305
     24          7           0        8.094508    2.126427    1.889439
     25          6           0        7.930255    3.452322    1.826134
     26          6           0        7.914623    4.066523    3.194510
     27          6           0        7.859286    2.848246    4.225284
     28          6           0        7.939666    1.678910    3.213127
     29          6           0        9.107342    4.970262    3.536107
     30          6           0        6.703768    2.852291    5.257361
     31          6           0        5.382861    2.648669    4.549660
     32          7           0        8.011716   -0.784302    1.532210
     33          6           0        8.136138   -0.758500    2.928823
     34          6           0        8.363428   -2.147572    3.368009
     35          6           0        8.372022   -2.887522    2.187227
     36          6           0        8.189531   -2.012414    1.078545
     37          6           0        8.587598   -2.572002    4.707427
     38          6           0        8.517526   -4.210661    1.602429
     39          8           0        8.600723   -5.353849    2.053751
     40          6           0        8.681854   -4.046866    0.026994
     41          6           0        7.752025   -5.029241   -0.631538
     42          8           0        6.514306   -4.900211   -0.537884
     43          8           0        8.453643   -5.820370   -1.457606
     44          6           0        7.585980   -6.799293   -2.165438
     45          1           0        9.142970    1.582587   -4.012185
     46          1           0        7.549189    5.122068    0.873094
     47          1           0        8.102740    0.181610    4.710367
     48          1           0        9.577199   -3.204309   -2.865938
     49          1           0        9.139816   -0.957999   -4.512218
     50          1           0       11.365709   -1.732702   -2.665297
     51          1           0       11.140973    0.029831   -2.887193
     52          1           0       11.460826   -0.945080   -4.293545
     53          1           0        7.043984   -1.965622   -3.961287
     54          1           0        6.880279   -3.374895   -2.838956
     55          1           0        8.750007   -4.052770   -4.871591
     56          1           0        7.613066   -3.026474   -5.660220
     57          1           0        8.300284    3.266423   -4.959517
     58          1           0        8.448597    4.917191   -4.491560
     59          1           0        6.815459    4.277876   -4.810079
     60          1           0        7.285994    6.638863   -3.654310
     61          1           0        5.944406    7.558166   -2.769154
     62          1           0        5.678768    5.969071   -3.535406
     63          1           0        7.033307    4.691543    3.332563
     64          1           0        8.760687    2.787583    4.835586
     65          1           0        8.821388    5.981286    3.827252
     66          1           0        9.775962    4.985374    2.675870
     67          1           0        9.764792    4.584565    4.314833
     68          1           0        6.651151    3.815425    5.763869
     69          1           0        6.806066    2.081141    6.020979
     70          1           0        5.127489    3.654077    4.216835
     71          1           0        4.634420    2.265390    5.244026
     72          1           0        5.499404    2.030460    3.659311
     73          1           0        7.991099   -3.473712    4.845551
     74          1           0        8.305922   -1.797618    5.420583
     75          1           0        9.662844   -2.748755    4.685964
     76          1           0        9.726462   -4.254816   -0.202512
     77          1           0        7.985461   -7.791844   -1.956891
     78          1           0        7.543495   -6.479499   -3.206750
     79          1           0        6.568440   -6.903334   -1.787116
     80         12           0       -7.968950   -0.969052    0.056491
     81          6           0       -8.172174    2.516876   -0.771810
     82          6           0       -7.232481   -0.014736    3.247337
     83          6           0       -7.340973   -4.008721    0.714898
     84          6           0       -7.587892   -1.613163   -3.347275
     85          7           0       -7.758899    1.023313    0.993846
     86          6           0       -7.919507    2.276029    0.594793
     87          6           0       -7.882420    3.325104    1.738315
     88          6           0       -7.027002    2.485611    2.807140
     89          6           0       -7.383909    1.072634    2.350227
     90          6           0       -5.526323    2.671576    2.656377
     91          6           0       -9.313422    3.663096    2.286033
     92          6           0       -9.382410    4.899471    3.185126
     93          1           0      -10.572607    5.742951    3.118551
     94          7           0       -7.857309   -1.908684    1.800965
     95          6           0       -7.569523   -1.363952    3.001690
     96          6           0       -7.591143   -2.476592    3.963830
     97          6           0       -7.752727   -3.747894    3.207254
     98          6           0       -7.633108   -3.262240    1.847139
     99          6           0       -7.544825   -2.268429    5.449750
    100          6           0       -7.965284   -5.167822    3.637182
    101          8           0       -7.840350   -6.145371    2.817657
    102          6           0       -8.232147   -5.387167    5.066222
    103          7           0       -7.317320   -2.559552   -1.113132
    104          6           0       -7.174915   -3.789838   -0.589648
    105          6           0       -6.964934   -4.822094   -1.671655
    106          6           0       -7.238424   -4.060391   -3.051007
    107          6           0       -7.482702   -2.634986   -2.508837
    108          6           0       -5.580938   -5.469534   -1.713837
    109          6           0       -8.299343   -4.682151   -3.999972
    110          6           0       -9.672940   -4.578147   -3.377233
    111          7           0       -8.073886    0.186043   -1.766364
    112          6           0       -7.856262   -0.276215   -3.082817
    113          6           0       -7.924049    0.900018   -3.974053
    114          6           0       -8.155358    1.976800   -3.104833
    115          6           0       -8.206585    1.507723   -1.764370
    116          6           0       -7.731863    0.887298   -5.384379
    117          6           0       -8.357260    3.405065   -3.015437
    118          8           0       -8.500695    4.314854   -3.831190
    119          6           0       -8.251130    3.835886   -1.489164
    120          6           0       -9.416876    4.734023   -1.177900
    121          8           0      -10.579622    4.293879   -1.208275
    122          8           0       -8.956687    5.899082   -0.686745
    123          6           0      -10.076173    6.819330   -0.352536
    124          1           0       -6.772862    0.173610    4.217990
    125          1           0       -7.225438   -5.083143    0.875362
    126          1           0       -7.576868   -1.744111   -4.431437
    127          1           0       -7.368860    4.246880    1.492647
    128          1           0       -7.380540    2.659498    3.820119
    129          1           0       -5.278005    3.247103    1.777037
    130          1           0       -5.111999    1.674416    2.585354
    131          1           0       -5.107133    3.107917    3.567532
    132          1           0       -9.613055    2.890446    3.005750
    133          1           0      -10.015858    3.761790    1.481379
    134          1           0       -8.474111    5.510371    3.116310
    135          1           0       -9.405653    4.570186    4.226778
    136          1           0       -7.260043   -1.239795    5.703141
    137          1           0       -6.721149   -2.880520    5.832855
    138          1           0       -8.469658   -2.569717    5.946307
    139          1           0       -7.403833   -4.996353    5.652423
    140          1           0       -8.445152   -6.453489    5.163421
    141          1           0       -9.118621   -4.808726    5.349389
    142          1           0       -7.673330   -5.635438   -1.572911
    143          1           0       -6.333618   -4.008750   -3.674295
    144          1           0       -5.612336   -6.572427   -1.631922
    145          1           0       -4.981644   -5.046074   -0.918812
    146          1           0       -4.989310   -5.237523   -2.597782
    147          1           0       -8.102646   -5.747700   -4.141609
    148          1           0       -8.319857   -4.224922   -4.983592
    149          1           0       -9.707862   -5.444903   -2.710440
    150          1           0      -10.445408   -4.636647   -4.141364
    151          1           0       -9.755793   -3.679740   -2.754620
    152          1           0       -8.499894    1.520028   -5.808970
    153          1           0       -7.782899   -0.123582   -5.783480
    154          1           0       -6.722692    1.303045   -5.447457
    155          1           0       -7.295579    4.345139   -1.358199
    156          1           0       -9.896939    7.751497   -0.897183
    157          1           0      -10.095822    6.877097    0.752017
    158          1           0      -11.065535    6.554358   -0.706662
 ---------------------------------------------------------------------

 SCF Done:  E(RCAM-B3LYP) =  -4069.81180560     A.U. after   19 cycles

 Excitation energies and oscillator strengths:

 Excited State   1:      Singlet-A      1.6703 eV  742.27 nm  f=0.0386  <S**2>=0.000
     309 -> 315        0.10137
     310 -> 316        0.13976
     311 -> 313        0.40198
     312 -> 314        0.55632
 This state for optimization and/or second-order correction.
 Total Energy, E(TD-HF/TD-DFT) =  -4069.75042160
 Copying the excited state density for this state as the 1-particle RhoCI density.

 Excited State   2:      Singlet-A      1.6851 eV  735.78 nm  f=0.7176  <S**2>=0.000
     309 -> 315        0.14334
     310 -> 316       -0.10310
     311 -> 313        0.55551
     312 -> 314       -0.40146

 Excited State   3:      Singlet-A      2.1858 eV  567.24 nm  f=0.0600  <S**2>=0.000
     309 -> 313        0.13919
     310 -> 314        0.62753
     312 -> 316       -0.26624

 Excited State   4:      Singlet-A      2.1932 eV  565.31 nm  f=0.1336  <S**2>=0.000
     309 -> 313        0.62547
     310 -> 314       -0.13815
     311 -> 315       -0.27202

 Excited State   5:      Singlet-A      2.7662 eV  448.22 nm  f=0.0000  <S**2>=0.000
     312 -> 313        0.70710

 The electronic state is 1-A.
 Alpha  occ. eigenvalues --  -46.87835 -46.87590 -19.26310 -19.26307 -19.19115
 Alpha  occ. eigenvalues --  -19.19049 -19.18843 -19.18634 -19.18202 -19.17997
 Alpha  occ. eigenvalues --  -14.42486 -14.42428 -14.41491 -14.41288 -14.39439
 Alpha  occ. eigenvalues --  -14.39281 -14.38625 -14.38533 -10.39109 -10.39044
 Alpha  occ. eigenvalues --  -10.35474 -10.35311 -10.34422 -10.34175 -10.31720
 Alpha  occ. eigenvalues --  -10.31702 -10.31441 -10.31244 -10.30952 -10.30941
 Alpha  occ. eigenvalues --  -10.30607 -10.30547 -10.30330 -10.30297 -10.30249
 Alpha  occ. eigenvalues --  -10.30066 -10.29966 -10.29825 -10.29667 -10.29364
 Alpha  occ. eigenvalues --  -10.29335 -10.29290 -10.28776 -10.28654 -10.28604
 Alpha  occ. eigenvalues --  -10.28559 -10.28399 -10.28336 -10.28144 -10.28072
 Alpha  occ. eigenvalues --  -10.27935 -10.27828 -10.27762 -10.27618 -10.27599
 Alpha  occ. eigenvalues --  -10.27560 -10.27505 -10.27499 -10.27445 -10.27439
 Alpha  occ. eigenvalues --  -10.27416 -10.27397 -10.27388 -10.27293 -10.27190
 Alpha  occ. eigenvalues --  -10.26995 -10.26730 -10.26636 -10.26421 -10.26330
 Alpha  occ. eigenvalues --  -10.26264 -10.26259 -10.26078 -10.26063 -10.25945
 Alpha  occ. eigenvalues --  -10.25888 -10.25867 -10.25811 -10.25486 -10.25289
 Alpha  occ. eigenvalues --  -10.24868 -10.24828 -10.24809 -10.24783 -10.24676
 Alpha  occ. eigenvalues --  -10.24616  -3.16578  -3.16340  -1.91460  -1.91222
 Alpha  occ. eigenvalues --   -1.91046  -1.90888  -1.90811  -1.90648  -1.16659
 Alpha  occ. eigenvalues --   -1.16600  -1.08660  -1.08606  -1.07243  -1.06900
 Alpha  occ. eigenvalues --   -1.06885  -1.06671  -1.04616  -1.04426  -1.03800
 Alpha  occ. eigenvalues --   -1.03593  -1.03272  -1.02969  -1.02450  -1.02042
 Alpha  occ. eigenvalues --   -0.92007  -0.91923  -0.89572  -0.89427  -0.89217
 Alpha  occ. eigenvalues --   -0.89085  -0.88339  -0.88147  -0.87909  -0.87736
 Alpha  occ. eigenvalues --   -0.87709  -0.87616  -0.87302  -0.87046  -0.85013
 Alpha  occ. eigenvalues --   -0.84933  -0.83993  -0.83805  -0.82998  -0.82855
 Alpha  occ. eigenvalues --   -0.82679  -0.82584  -0.81619  -0.81541  -0.80630
 Alpha  occ. eigenvalues --   -0.80380  -0.78829  -0.78567  -0.77259  -0.77079
 Alpha  occ. eigenvalues --   -0.76970  -0.76835  -0.75955  -0.75776  -0.74944
 Alpha  occ. eigenvalues --   -0.74726  -0.72814  -0.72634  -0.71709  -0.71509
 Alpha  occ. eigenvalues --   -0.69971  -0.69690  -0.68904  -0.68762  -0.67676
 Alpha  occ. eigenvalues --   -0.67535  -0.67247  -0.67135  -0.65319  -0.65208
 Alpha  occ. eigenvalues --   -0.64891  -0.64705  -0.64659  -0.64591  -0.64318
 Alpha  occ. eigenvalues --   -0.64135  -0.62332  -0.62223  -0.60476  -0.60266
 Alpha  occ. eigenvalues --   -0.59836  -0.59730  -0.59026  -0.58925  -0.58541
 Alpha  occ. eigenvalues --   -0.58360  -0.57618  -0.57500  -0.57349  -0.57168
 Alpha  occ. eigenvalues --   -0.56344  -0.56141  -0.56008  -0.55831  -0.55551
 Alpha  occ. eigenvalues --   -0.55387  -0.55387  -0.55182  -0.54567  -0.54426
 Alpha  occ. eigenvalues --   -0.53924  -0.53847  -0.53335  -0.53250  -0.53161
 Alpha  occ. eigenvalues --   -0.53076  -0.52951  -0.52841  -0.52782  -0.52593
 Alpha  occ. eigenvalues --   -0.52504  -0.52339  -0.51956  -0.51836  -0.51644
 Alpha  occ. eigenvalues --   -0.51593  -0.51236  -0.51141  -0.50595  -0.50398
 Alpha  occ. eigenvalues --   -0.50083  -0.49947  -0.49908  -0.49791  -0.49543
 Alpha  occ. eigenvalues --   -0.49418  -0.49247  -0.49138  -0.49126  -0.49041
 Alpha  occ. eigenvalues --   -0.48627  -0.48504  -0.48497  -0.48474  -0.48304
 Alpha  occ. eigenvalues --   -0.48265  -0.47729  -0.47527  -0.47331  -0.47045
 Alpha  occ. eigenvalues --   -0.46839  -0.46643  -0.46584  -0.46487  -0.46399
 Alpha  occ. eigenvalues --   -0.46203  -0.46203  -0.46020  -0.45858  -0.45767
 Alpha  occ. eigenvalues --   -0.45249  -0.45128  -0.44613  -0.44540  -0.44454
 Alpha  occ. eigenvalues --   -0.44410  -0.44189  -0.44119  -0.44062  -0.44050
 Alpha  occ. eigenvalues --   -0.44011  -0.43872  -0.43530  -0.43498  -0.43423
 Alpha  occ. eigenvalues --   -0.43319  -0.43065  -0.42876  -0.42839  -0.42741
 Alpha  occ. eigenvalues --   -0.42701  -0.42483  -0.42059  -0.41901  -0.41741
 Alpha  occ. eigenvalues --   -0.41606  -0.41566  -0.41394  -0.41177  -0.40918
 Alpha  occ. eigenvalues --   -0.40908  -0.40851  -0.40653  -0.40628  -0.40620
 Alpha  occ. eigenvalues --   -0.40423  -0.40260  -0.40163  -0.39509  -0.39359
 Alpha  occ. eigenvalues --   -0.38518  -0.38276  -0.37778  -0.37593  -0.37367
 Alpha  occ. eigenvalues --   -0.37295  -0.37197  -0.37134  -0.36749  -0.36719
 Alpha  occ. eigenvalues --   -0.36232  -0.36151  -0.34324  -0.34186  -0.33812
 Alpha  occ. eigenvalues --   -0.33801  -0.33224  -0.33107  -0.31373  -0.31193
 Alpha  occ. eigenvalues --   -0.31072  -0.30903  -0.30062  -0.29903  -0.29483
 Alpha  occ. eigenvalues --   -0.29358  -0.29257  -0.29148  -0.24118  -0.23967
 Alpha  occ. eigenvalues --   -0.21165  -0.21048
 Alpha virt. eigenvalues --   -0.08810  -0.08723  -0.01788  -0.01612  -0.00088
 Alpha virt. eigenvalues --    0.00044   0.02163   0.02268   0.03074   0.03290
 Alpha virt. eigenvalues --    0.04684   0.04798   0.05069   0.05213   0.06150

 Mulliken charges:
               1
     1  Mg   0.838620
     2  C   -0.002929
     3  C   -0.093952
     4  C   -0.045965
     5  C   -0.064093
     6  N   -0.256769
     7  C   -0.052479
     8  C   -0.014023
     9  C   -0.087016
    10  C    0.046309
    11  C    0.104785
    12  C    0.053441
    13  C   -0.071851
    14  H    0.036132
    15  N   -0.433182
    16  C    0.168410
    17  C   -0.176985
    18  C   -0.003952
    19  C    0.148734
    20  C    0.110117
    21  C    0.012305
    22  O   -0.249728
    23  C    0.062439
    24  N   -0.341099
    25  C    0.041244
    26  C   -0.028186
    27  C   -0.023910
    28  C    0.074735
    29  C    0.076164
    30  C    0.035199
    31  C   -0.004421
    32  N   -0.310447
    33  C    0.080297
    34  C   -0.169880
    35  C    0.008379
    36  C    0.082899
    37  C    0.127351
    38  C    0.046083
    39  O   -0.188408
    40  C   -0.005307
    41  C    0.212891
    42  O   -0.257148
    43  O   -0.304772
    44  C    0.157667
    45  H   -0.017415
    46  H   -0.016882
    47  H   -0.041711
    48  H    0.000998
    49  H   -0.003893
    50  H    0.025495
    51  H    0.016444
    52  H    0.016798
    53  H    0.011240
    54  H    0.044067
    55  H    0.017934
    56  H    0.018059
    57  H    0.005981
    58  H    0.026971
    59  H    0.039879
    60  H    0.037450
    61  H    0.035828
    62  H    0.031741
    63  H    0.016345
    64  H    0.009486
    65  H    0.023157
    66  H    0.012723
    67  H    0.004753
    68  H    0.006192
    69  H    0.004605
    70  H    0.008647
    71  H    0.017427
    72  H    0.029195
    73  H    0.047476
    74  H    0.008864
    75  H    0.046066
    76  H    0.035222
    77  H    0.043026
    78  H    0.046434
    79  H    0.053697
    80  Mg   0.837958
    81  C   -0.016900
    82  C   -0.087698
    83  C   -0.045255
    84  C   -0.064835
    85  N   -0.254576
    86  C   -0.049863
    87  C   -0.015104
    88  C   -0.090525
    89  C    0.045813
    90  C    0.114329
    91  C    0.062533
    92  C   -0.077813
    93  H    0.034658
    94  N   -0.423597
    95  C    0.163044
    96  C   -0.174344
    97  C   -0.007559
    98  C    0.152209
    99  C    0.099245
   100  C    0.015754
   101  O   -0.252929
   102  C    0.061176
   103  N   -0.350032
   104  C    0.037718
   105  C   -0.019982
   106  C   -0.034669
   107  C    0.088863
   108  C    0.073452
   109  C    0.034760
   110  C   -0.007637
   111  N   -0.324032
   112  C    0.078364
   113  C   -0.163336
   114  C    0.002110
   115  C    0.096142
   116  C    0.131530
   117  C    0.042181
   118  O   -0.188345
   119  C    0.000992
   120  C    0.211201
   121  O   -0.251108
   122  O   -0.305607
   123  C    0.152091
   124  H   -0.019487
   125  H   -0.015271
   126  H   -0.040747
   127  H   -0.000695
   128  H   -0.004416
   129  H    0.022485
   130  H    0.014835
   131  H    0.016310
   132  H    0.013888
   133  H    0.037572
   134  H    0.020812
   135  H    0.019572
   136  H    0.008743
   137  H    0.026614
   138  H    0.039712
   139  H    0.038542
   140  H    0.036482
   141  H    0.033678
   142  H    0.014312
   143  H    0.012362
   144  H    0.025275
   145  H    0.012490
   146  H    0.005793
   147  H    0.006232
   148  H    0.003353
   149  H    0.010980
   150  H    0.017679
   151  H    0.030107
   152  H    0.045743
   153  H    0.008339
   154  H    0.046610
   155  H    0.034967
   156  H    0.043751
   157  H    0.049528
   158  H    0.053471
 Sum of Mulliken charges =  -0.00000

 Dipole moment (field-independent basis, Debye):
    X=              3.8471    Y=              1.8936    Z=              0.3757  Tot=              4.3043
 Quadrupole moment (field-independent basis, Debye-Ang):
   XX=           -521.2194   YY=           -547.3135   ZZ=           -450.4713
   XY=             23.0297   XZ=            -69.2117   YZ=             43.5753

 Normal termination of Gaussian 16 at Sat Sep 11 23:15:03 2021.
