 Gaussian 16, Revision A.03,
 Gaussian 16:  ES64L-G16RevA.03 25-Dec-2016

 -----------------------------------
 #p cam-b3lyp/Def2SVP td=(nstates=5)
 -----------------------------------

 --------------------------------
 TDDFT excited states in gaussian
 --------------------------------
 Symbolic Z-matrix:
 Charge =  0 Multiplicity = 1

                         Standard orientation:
 ---------------------------------------------------------------------
 Center     Atomic      Atomic             Coordinates (Angstroms)
 Number     Number       Type             X           Y           Z
 ---------------------------------------------------------------------
      1         12           0        5.506635    0.108819    0.011808
      2          6           0        5.310747   -3.363955   -0.832990
      3          6           0        6.313412    0.703892   -3.249797
      4          6           0        6.128631    3.109828    0.826475
      5          6           0        5.806107   -0.870021    3.343151
      6          7           0        5.748380   -1.241130   -1.725962
      7          6           0        5.586654   -2.544737   -1.929987
      8          6           0        5.663234   -2.949075   -3.432658
      9          6           0        6.526482   -1.725032   -3.979026
     10          6           0        6.147558   -0.679752   -2.944748
     11          6           0        8.031660   -1.961866   -3.909376
     12          6           0        4.251121   -3.000504   -4.107212
     13          6           0        4.203130   -3.696865   -5.470345
     14          1           0        3.024355   -4.476177   -5.817489
     15          7           0        5.650685    1.734863   -1.100882
     16          6           0        5.973246    1.790651   -2.415465
     17          6           0        5.947637    3.223281   -2.780973
     18          6           0        5.770074    4.009318   -1.528491
     19          6           0        5.870262    2.970759   -0.535146
     20          6           0        6.035095    3.713738   -4.193614
     21          6           0        5.556175    5.466827   -1.267628
     22          8           0        5.658569    5.970478   -0.096977
     23          6           0        5.307517    6.315690   -2.446883
     24          7           0        6.130369    0.995896    1.795536
     25          6           0        6.268293    2.322564    1.895098
     26          6           0        6.444591    2.747577    3.322761
     27          6           0        6.154393    1.451341    4.208939
     28          6           0        5.929069    0.430178    3.066693
     29          6           0        7.823153    3.316213    3.686396
     30          6           0        5.070228    1.579407    5.308304
     31          6           0        3.711394    1.762368    4.670187
     32          7           0        5.377045   -1.756391    1.114190
     33          6           0        5.557510   -1.934918    2.493405
     34          6           0        5.481041   -3.383966    2.755088
     35          6           0        5.276610   -3.952722    1.499473
     36          6           0        5.254648   -2.926272    0.512452
     37          6           0        5.654454   -4.012743    4.019605
     38          6           0        5.096224   -5.190877    0.759006
     39          8           0        4.935651   -6.371901    1.070277
     40          6           0        5.232867   -4.869949   -0.794751
     41          6           0        4.080216   -5.532540   -1.498796
     42          8           0        2.908381   -5.147156   -1.309990
     43          8           0        4.552294   -6.348040   -2.454120
     44          6           0        3.459041   -7.014755   -3.210719
     45          1           0        6.801488    0.983264   -4.185571
     46          1           0        6.238952    4.141742    1.166212
     47          1           0        5.806146   -1.242840    4.369046
     48          1           0        6.184183   -3.887198   -3.624911
     49          1           0        6.204009   -1.410501   -4.971399
     50          1           0        8.265789   -2.882604   -3.375198
     51          1           0        8.437632   -1.100267   -3.378972
     52          1           0        8.474296   -1.936357   -4.905468
     53          1           0        3.957155   -1.993421   -4.402898
     54          1           0        3.521748   -3.462105   -3.440680
     55          1           0        5.110118   -4.272977   -5.655756
     56          1           0        4.205714   -2.930595   -6.245602
     57          1           0        6.326274    2.916941   -4.876896
     58          1           0        6.862329    4.422084   -4.234088
     59          1           0        5.115874    4.203238   -4.515724
     60          1           0        6.152710    6.237737   -3.131078
     61          1           0        5.089051    7.310607   -2.060536
     62          1           0        4.441338    5.928552   -2.984290
     63          1           0        5.733638    3.528701    3.588877
     64          1           0        7.041359    1.117337    4.747832
     65          1           0        7.784919    4.320395    4.109316
     66          1           0        8.444357    3.292160    2.791512
     67          1           0        8.405548    2.700253    4.371105
     68          1           0        5.256504    2.458758    5.923924
     69          1           0        5.024452    0.714673    5.970415
     70          1           0        3.677739    2.833066    4.471931
     71          1           0        2.922785    1.468774    5.363806
     72          1           0        3.650723    1.250994    3.709301
     73          1           0        4.875023   -4.771114    4.092612
     74          1           0        5.582976   -3.291617    4.833528
     75          1           0        6.660120   -4.417635    3.907567
     76          1           0        6.193677   -5.272043   -1.114573
     77          1           0        3.631103   -8.089060   -3.143645
     78          1           0        3.450191   -6.564766   -4.203611
     79          1           0        2.459638   -6.939171   -2.780813
     80         12           0       -5.019609    1.216597    0.450742
     81          6           0       -7.096090   -1.703775    0.254067
     82          6           0       -6.205287    2.084114   -2.627601
     83          6           0       -2.875272    3.554539    0.393293
     84          6           0       -3.185464   -0.423781    2.918690
     85          7           0       -6.461737    0.235901   -0.909678
     86          6           0       -7.233979   -0.838617   -0.851347
     87          6           0       -8.265796   -0.952542   -2.005435
     88          6           0       -7.504127   -0.055774   -3.098374
     89          6           0       -6.696133    0.838738   -2.160475
     90          6           0       -6.532669   -0.849030   -3.956496
     91          6           0       -9.657823   -0.336023   -1.625692
     92          6           0      -10.798897   -0.685781   -2.583490
     93          1           0      -12.136506   -0.880450   -2.030873
     94          7           0       -4.939242    2.858485   -0.661154
     95          6           0       -5.496162    3.046652   -1.875937
     96          6           0       -5.131149    4.413724   -2.278481
     97          6           0       -4.175978    4.958709   -1.275801
     98          6           0       -3.938507    3.778390   -0.469253
     99          6           0       -5.738219    5.101585   -3.466650
    100          6           0       -3.566067    6.314127   -1.083339
    101          8           0       -2.578121    6.501243   -0.288498
    102          6           0       -4.098412    7.397714   -1.922359
    103          7           0       -3.157782    1.444507    1.347396
    104          6           0       -2.454831    2.581430    1.201762
    105          6           0       -1.283726    2.624466    2.154144
    106          6           0       -1.487361    1.383280    3.141847
    107          6           0       -2.748314    0.758027    2.505888
    108          6           0        0.100302    2.540864    1.510819
    109          6           0       -1.502233    1.690495    4.664363
    110          6           0       -2.731198    2.497553    5.016044
    111          7           0       -5.205730   -0.628792    1.558872
    112          6           0       -4.312112   -1.135877    2.527575
    113          6           0       -4.803635   -2.474017    2.915169
    114          6           0       -5.945278   -2.663705    2.121985
    115          6           0       -6.139288   -1.532763    1.283642
    116          6           0       -4.181669   -3.350554    3.848432
    117          6           0       -7.024355   -3.568030    1.795624
    118          8           0       -7.424406   -4.641179    2.245131
    119          6           0       -7.745493   -3.040710    0.480985
    120          6           0       -9.229795   -3.066553    0.723235
    121          8           0       -9.743897   -2.322650    1.577007
    122          8           0       -9.820228   -3.801424   -0.236822
    123          6           0      -11.294421   -3.847661   -0.045922
    124          1           0       -6.338083    2.331948   -3.681087
    125          1           0       -2.166327    4.379850    0.491929
    126          1           0       -2.724846   -0.957887    3.752499
    127          1           0       -8.413263   -1.956331   -2.385490
    128          1           0       -8.204809    0.536806   -3.680832
    129          1           0       -6.427262   -1.866414   -3.610163
    130          1           0       -5.587210   -0.326803   -3.889867
    131          1           0       -6.830966   -0.799383   -5.007639
    132          1           0       -9.618868    0.751486   -1.769024
    133          1           0       -9.932308   -0.603249   -0.623754
    134          1           0      -10.535685   -1.513324   -3.253438
    135          1           0      -10.960616    0.161281   -3.254567
    136          1           0       -6.282142    4.395231   -4.105874
    137          1           0       -4.909412    5.450968   -4.091835
    138          1           0       -6.355746    5.957980   -3.187507
    139          1           0       -3.973840    7.137144   -2.970712
    140          1           0       -3.600374    8.305942   -1.577458
    141          1           0       -5.176450    7.480426   -1.744585
    142          1           0       -1.289989    3.539465    2.733674
    143          1           0       -0.681615    0.642023    3.036206
    144          1           0        0.752489    3.397517    1.765548
    145          1           0       -0.025563    2.464283    0.438985
    146          1           0        0.663446    1.638390    1.742366
    147          1           0       -0.639762    2.304432    4.935269
    148          1           0       -1.471999    0.801030    5.284796
    149          1           0       -2.431155    3.521739    4.774998
    150          1           0       -2.967931    2.394025    6.073057
    151          1           0       -3.572530    2.238183    4.362948
    152          1           0       -4.970973   -3.759977    4.464771
    153          1           0       -3.437628   -2.830062    4.447817
    154          1           0       -3.726440   -4.072121    3.164801
    155          1           0       -7.453027   -3.697675   -0.339042
    156          1           0      -11.577881   -4.903779   -0.001687
    157          1           0      -11.721396   -3.245606   -0.869923
    158          1           0      -11.689633   -3.483018    0.894971
 ---------------------------------------------------------------------

 SCF Done:  E(RCAM-B3LYP) =  -4069.81174285     A.U. after   19 cycles

 Excitation energies and oscillator strengths:

 Excited State   1:      Singlet-A      1.6561 eV  748.66 nm  f=0.0037  <S**2>=0.000
     309 -> 315       -0.11198
     310 -> 316       -0.12648
     311 -> 313       -0.45396
     312 -> 314        0.51589
 This state for optimization and/or second-order correction.
 Total Energy, E(TD-HF/TD-DFT) =  -4069.75088269
 Copying the excited state density for this state as the 1-particle RhoCI density.

 Excited State   2:      Singlet-A      1.6976 eV  730.36 nm  f=0.7134  <S**2>=0.000
     309 -> 315        0.13532
     310 -> 316       -0.11823
     311 -> 313        0.51399
     312 -> 314        0.45228

 Excited State   3:      Singlet-A      2.1835 eV  567.83 nm  f=0.0647  <S**2>=0.000
     309 -> 313       -0.20475
     310 -> 314        0.61014
     312 -> 316        0.25698

 Excited State   4:      Singlet-A      2.1953 eV  564.76 nm  f=0.1270  <S**2>=0.000
     309 -> 313        0.60699
     310 -> 314        0.20189
     311 -> 315       -0.26567

 Excited State   5:      Singlet-A      2.4824 eV  499.45 nm  f=0.0000  <S**2>=0.000
     312 -> 313        0.70677

 The electronic state is 1-A.
 Alpha  occ. eigenvalues --  -46.87864 -46.87486 -19.26312 -19.26216 -19.19053
 Alpha  occ. eigenvalues --  -19.19021 -19.18797 -19.18576 -19.18207 -19.17874
 Alpha  occ. eigenvalues --  -14.42509 -14.42328 -14.41521 -14.41181 -14.39456
 Alpha  occ. eigenvalues --  -14.39184 -14.38653 -14.38419 -10.39114 -10.38947
 Alpha  occ. eigenvalues --  -10.35427 -10.35258 -10.34428 -10.34051 -10.31697
 Alpha  occ. eigenvalues --  -10.31639 -10.31469 -10.31136 -10.30953 -10.30874
 Alpha  occ. eigenvalues --  -10.30633 -10.30566 -10.30273 -10.30215 -10.30180
 Alpha  occ. eigenvalues --  -10.29996 -10.29968 -10.29703 -10.29679 -10.29304
 Alpha  occ. eigenvalues --  -10.29267 -10.29226 -10.28796 -10.28588 -10.28584
 Alpha  occ. eigenvalues --  -10.28556 -10.28413 -10.28240 -10.28168 -10.28002
 Alpha  occ. eigenvalues --  -10.27839 -10.27825 -10.27785 -10.27624 -10.27610
 Alpha  occ. eigenvalues --  -10.27539 -10.27505 -10.27502 -10.27457 -10.27361
 Alpha  occ. eigenvalues --  -10.27326 -10.27314 -10.27302 -10.27198 -10.27190
 Alpha  occ. eigenvalues --  -10.26883 -10.26753 -10.26575 -10.26362 -10.26339
 Alpha  occ. eigenvalues --  -10.26325 -10.26280 -10.26094 -10.25992 -10.25904
 Alpha  occ. eigenvalues --  -10.25892 -10.25746 -10.25582 -10.25498 -10.25205
 Alpha  occ. eigenvalues --  -10.24965 -10.24881 -10.24847 -10.24690 -10.24597
 Alpha  occ. eigenvalues --  -10.24515  -3.16607  -3.16236  -1.91489  -1.91118
 Alpha  occ. eigenvalues --   -1.91075  -1.90917  -1.90707  -1.90544  -1.16661
 Alpha  occ. eigenvalues --   -1.16508  -1.08665  -1.08481  -1.07194  -1.06832
 Alpha  occ. eigenvalues --   -1.06804  -1.06675  -1.04637  -1.04329  -1.03825
 Alpha  occ. eigenvalues --   -1.03491  -1.03293  -1.02861  -1.02473  -1.01935
 Alpha  occ. eigenvalues --   -0.92024  -0.91815  -0.89620  -0.89321  -0.89240
 Alpha  occ. eigenvalues --   -0.89009  -0.88379  -0.88045  -0.87925  -0.87731
 Alpha  occ. eigenvalues --   -0.87590  -0.87516  -0.87294  -0.86979  -0.85031
 Alpha  occ. eigenvalues --   -0.84854  -0.84047  -0.83708  -0.82987  -0.82800
 Alpha  occ. eigenvalues --   -0.82685  -0.82511  -0.81631  -0.81439  -0.80640
 Alpha  occ. eigenvalues --   -0.80286  -0.78835  -0.78474  -0.77291  -0.76995
 Alpha  occ. eigenvalues --   -0.76988  -0.76747  -0.75973  -0.75688  -0.74975
 Alpha  occ. eigenvalues --   -0.74631  -0.72837  -0.72519  -0.71729  -0.71414
 Alpha  occ. eigenvalues --   -0.70047  -0.69595  -0.68920  -0.68681  -0.67686
 Alpha  occ. eigenvalues --   -0.67437  -0.67254  -0.67067  -0.65342  -0.65124
 Alpha  occ. eigenvalues --   -0.64915  -0.64684  -0.64603  -0.64499  -0.64358
 Alpha  occ. eigenvalues --   -0.64034  -0.62346  -0.62125  -0.60482  -0.60185
 Alpha  occ. eigenvalues --   -0.59855  -0.59643  -0.59048  -0.58821  -0.58561
 Alpha  occ. eigenvalues --   -0.58259  -0.57629  -0.57387  -0.57368  -0.57070
 Alpha  occ. eigenvalues --   -0.56355  -0.56036  -0.56016  -0.55744  -0.55549
 Alpha  occ. eigenvalues --   -0.55421  -0.55304  -0.55074  -0.54598  -0.54328
 Alpha  occ. eigenvalues --   -0.53945  -0.53772  -0.53350  -0.53247  -0.53068
 Alpha  occ. eigenvalues --   -0.52993  -0.52972  -0.52775  -0.52754  -0.52577
 Alpha  occ. eigenvalues --   -0.52546  -0.52248  -0.51973  -0.51653  -0.51649
 Alpha  occ. eigenvalues --   -0.51521  -0.51262  -0.51034  -0.50579  -0.50354
 Alpha  occ. eigenvalues --   -0.50129  -0.49941  -0.49837  -0.49703  -0.49543
 Alpha  occ. eigenvalues --   -0.49346  -0.49254  -0.49142  -0.49050  -0.48944
 Alpha  occ. eigenvalues --   -0.48643  -0.48525  -0.48453  -0.48398  -0.48196
 Alpha  occ. eigenvalues --   -0.48196  -0.47746  -0.47448  -0.47340  -0.46962
 Alpha  occ. eigenvalues --   -0.46874  -0.46601  -0.46542  -0.46423  -0.46412
 Alpha  occ. eigenvalues --   -0.46227  -0.46103  -0.45905  -0.45873  -0.45644
 Alpha  occ. eigenvalues --   -0.45284  -0.45040  -0.44632  -0.44551  -0.44364
 Alpha  occ. eigenvalues --   -0.44314  -0.44225  -0.44134  -0.44045  -0.43978
 Alpha  occ. eigenvalues --   -0.43923  -0.43791  -0.43546  -0.43446  -0.43400
 Alpha  occ. eigenvalues --   -0.43227  -0.43088  -0.42796  -0.42782  -0.42732
 Alpha  occ. eigenvalues --   -0.42717  -0.42392  -0.42108  -0.41810  -0.41759
 Alpha  occ. eigenvalues --   -0.41589  -0.41503  -0.41313  -0.41196  -0.40948
 Alpha  occ. eigenvalues --   -0.40827  -0.40821  -0.40658  -0.40591  -0.40558
 Alpha  occ. eigenvalues --   -0.40326  -0.40274  -0.40104  -0.39597  -0.39263
 Alpha  occ. eigenvalues --   -0.38558  -0.38178  -0.37801  -0.37519  -0.37403
 Alpha  occ. eigenvalues --   -0.37314  -0.37097  -0.37045  -0.36765  -0.36625
 Alpha  occ. eigenvalues --   -0.36255  -0.36054  -0.34348  -0.34080  -0.33808
 Alpha  occ. eigenvalues --   -0.33716  -0.33245  -0.33001  -0.31333  -0.31133
 Alpha  occ. eigenvalues --   -0.31087  -0.30804  -0.30068  -0.29778  -0.29487
 Alpha  occ. eigenvalues --   -0.29373  -0.29165  -0.29025  -0.24142  -0.23859
 Alpha  occ. eigenvalues --   -0.21187  -0.20944
 Alpha virt. eigenvalues --   -0.08823  -0.08620  -0.01807  -0.01518  -0.00078
 Alpha virt. eigenvalues --    0.00121   0.02150   0.02388   0.02730   0.03386
 Alpha virt. eigenvalues --    0.04657   0.04887   0.05062   0.05311   0.06098

 Mulliken charges:
               1
     1  Mg   0.836690
     2  C   -0.002814
     3  C   -0.093963
     4  C   -0.046031
     5  C   -0.064440
     6  N   -0.256697
     7  C   -0.052615
     8  C   -0.013945
     9  C   -0.087056
    10  C    0.046459
    11  C    0.104774
    12  C    0.053459
    13  C   -0.071764
    14  H    0.036040
    15  N   -0.433493
    16  C    0.168770
    17  C   -0.176852
    18  C   -0.003343
    19  C    0.149045
    20  C    0.110220
    21  C    0.013546
    22  O   -0.248996
    23  C    0.062071
    24  N   -0.340988
    25  C    0.041070
    26  C   -0.028394
    27  C   -0.023834
    28  C    0.074155
    29  C    0.076072
    30  C    0.035390
    31  C   -0.007046
    32  N   -0.310368
    33  C    0.079483
    34  C   -0.170367
    35  C    0.008449
    36  C    0.082445
    37  C    0.127399
    38  C    0.046001
    39  O   -0.188136
    40  C   -0.005310
    41  C    0.212985
    42  O   -0.257201
    43  O   -0.304791
    44  C    0.157543
    45  H   -0.017411
    46  H   -0.016485
    47  H   -0.041957
    48  H    0.001068
    49  H   -0.004020
    50  H    0.025614
    51  H    0.016511
    52  H    0.016766
    53  H    0.011126
    54  H    0.044169
    55  H    0.018008
    56  H    0.017798
    57  H    0.005666
    58  H    0.027053
    59  H    0.040125
    60  H    0.036676
    61  H    0.036954
    62  H    0.032612
    63  H    0.016452
    64  H    0.009883
    65  H    0.023629
    66  H    0.012901
    67  H    0.004885
    68  H    0.006998
    69  H    0.004778
    70  H    0.009412
    71  H    0.017043
    72  H    0.028444
    73  H    0.047424
    74  H    0.008615
    75  H    0.046304
    76  H    0.035319
    77  H    0.043245
    78  H    0.046253
    79  H    0.053963
    80  Mg   0.838079
    81  C   -0.016923
    82  C   -0.088198
    83  C   -0.046002
    84  C   -0.062855
    85  N   -0.254511
    86  C   -0.049537
    87  C   -0.015131
    88  C   -0.090532
    89  C    0.045802
    90  C    0.114510
    91  C    0.062605
    92  C   -0.077634
    93  H    0.034528
    94  N   -0.423292
    95  C    0.162742
    96  C   -0.175468
    97  C   -0.008241
    98  C    0.151919
    99  C    0.099775
   100  C    0.014845
   101  O   -0.252993
   102  C    0.061331
   103  N   -0.349820
   104  C    0.037385
   105  C   -0.020504
   106  C   -0.035250
   107  C    0.089051
   108  C    0.072129
   109  C    0.033388
   110  C   -0.007587
   111  N   -0.324354
   112  C    0.078590
   113  C   -0.161919
   114  C    0.002471
   115  C    0.096486
   116  C    0.131538
   117  C    0.042900
   118  O   -0.187620
   119  C    0.000757
   120  C    0.211144
   121  O   -0.251252
   122  O   -0.305559
   123  C    0.152144
   124  H   -0.020558
   125  H   -0.015390
   126  H   -0.039520
   127  H   -0.000721
   128  H   -0.004871
   129  H    0.022892
   130  H    0.014468
   131  H    0.015402
   132  H    0.013794
   133  H    0.037659
   134  H    0.020658
   135  H    0.019283
   136  H    0.008307
   137  H    0.024907
   138  H    0.039307
   139  H    0.037345
   140  H    0.036094
   141  H    0.033817
   142  H    0.014371
   143  H    0.014652
   144  H    0.028397
   145  H    0.010876
   146  H    0.006088
   147  H    0.006816
   148  H    0.003400
   149  H    0.010842
   150  H    0.017250
   151  H    0.030220
   152  H    0.045394
   153  H    0.008488
   154  H    0.050119
   155  H    0.035404
   156  H    0.043794
   157  H    0.049221
   158  H    0.053418
 Sum of Mulliken charges =  -0.00000

 Dipole moment (field-independent basis, Debye):
    X=              2.4404    Y=              3.7969    Z=             -7.5384  Tot=              8.7863
 Quadrupole moment (field-independent basis, Debye-Ang):
   XX=           -484.7056   YY=           -560.6093   ZZ=           -451.5455
   XY=            -17.2831   XZ=             28.8878   YZ=              6.8605

 Normal termination of Gaussian 16 at Sat Sep 11 00:03:46 2021.
