 Gaussian 16, Revision A.03,
 Gaussian 16:  ES64L-G16RevA.03 25-Dec-2016

 -----------------------------------
 #p cam-b3lyp/Def2SVP td=(nstates=5)
 -----------------------------------

 --------------------------------
 TDDFT excited states in gaussian
 --------------------------------
 Symbolic Z-matrix:
 Charge =  0 Multiplicity = 1

                         Standard orientation:
 ---------------------------------------------------------------------
 Center     Atomic      Atomic             Coordinates (Angstroms)
 Number     Number       Type             X           Y           Z
 ---------------------------------------------------------------------
      1         12           0       15.791266   -0.726499    0.236281
      2          6           0       16.028317    2.456991   -1.382797
      3          6           0       16.611088    0.858389    3.144732
      4          6           0       16.033517   -3.580960    1.596423
      5          6           0       16.112837   -2.186262   -2.911948
      6          7           0       16.237411    1.392661    0.695372
      7          6           0       16.235762    2.523636   -0.003243
      8          6           0       16.400316    3.796048    0.880649
      9          6           0       17.128175    3.137410    2.136999
     10          6           0       16.600873    1.719294    2.007292
     11          6           0       18.648298    3.109315    2.014781
     12          6           0       15.022977    4.424145    1.280853
     13          6           0       15.094414    5.839009    1.862582
     14          1           0       14.025392    6.777227    1.555520
     15          7           0       15.773347   -1.242774    2.143107
     16          6           0       16.122834   -0.465187    3.195962
     17          6           0       15.938873   -1.303188    4.400368
     18          6           0       15.636001   -2.689514    3.948192
     19          6           0       15.830524   -2.563987    2.526298
     20          6           0       16.006523   -0.763868    5.796186
     21          6           0       15.245121   -3.933045    4.682340
     22          8           0       15.255604   -5.083640    4.125028
     23          6           0       14.930595   -3.779128    6.114270
     24          7           0       16.257459   -2.619780   -0.509230
     25          6           0       16.235615   -3.697694    0.282355
     26          6           0       16.321703   -4.963996   -0.517024
     27          6           0       16.161927   -4.533132   -2.046266
     28          6           0       16.089509   -2.998351   -1.852687
     29          6           0       17.613380   -5.775753   -0.347816
     30          6           0       15.040652   -5.227753   -2.859079
     31          6           0       13.687640   -4.805436   -2.331722
     32          7           0       15.851950   -0.025076   -1.816856
     33          6           0       16.014485   -0.806115   -2.970213
     34          6           0       16.101877    0.122624   -4.112087
     35          6           0       16.000077    1.388338   -3.538112
     36          6           0       15.884460    1.259444   -2.124495
     37          6           0       16.313496   -0.244277   -5.470408
     38          6           0       15.986834    2.820582   -3.787833
     39          8           0       15.957862    3.524385   -4.798433
     40          6           0       16.127099    3.573912   -2.391893
     41          6           0       15.080014    4.653369   -2.350738
     42          8           0       13.866274    4.366068   -2.309995
     43          8           0       15.670608    5.837283   -2.126937
     44          6           0       14.684404    6.947633   -2.045208
     45          1           0       17.088250    1.203875    4.063914
     46          1           0       16.012392   -4.590128    2.013043
     47          1           0       16.128752   -2.572209   -3.932852
     48          1           0       17.033039    4.571246    0.448036
     49          1           0       16.798126    3.579955    3.076650
     50          1           0       18.974446    3.430157    1.025535
     51          1           0       18.935495    2.072809    2.192735
     52          1           0       19.111858    3.689914    2.812775
     53          1           0       14.620771    3.889772    2.141514
     54          1           0       14.335058    4.416559    0.434664
     55          1           0       16.067585    6.295993    1.680887
     56          1           0       15.027991    5.765719    2.948131
     57          1           0       16.407924    0.248583    5.815324
     58          1           0       16.745493   -1.359214    6.332092
     59          1           0       15.045236   -0.824617    6.306644
     60          1           0       15.797430   -3.366387    6.630789
     61          1           0       14.586170   -4.755547    6.453133
     62          1           0       14.130943   -3.045905    6.223303
     63          1           0       15.516818   -5.648690   -0.252862
     64          1           0       17.066995   -4.726804   -2.622474
     65          1           0       17.445781   -6.802196   -0.020660
     66          1           0       18.257271   -5.242719    0.351163
     67          1           0       18.245293   -5.819363   -1.234495
     68          1           0       15.105349   -6.309473   -2.746642
     69          1           0       15.078867   -5.002222   -3.924877
     70          1           0       13.533701   -5.478847   -1.489313
     71          1           0       12.920418   -4.950725   -3.092953
     72          1           0       13.713762   -3.789781   -1.936439
     73          1           0       15.626976    0.362466   -6.060766
     74          1           0       16.135527   -1.308168   -5.625539
     75          1           0       17.362484    0.025614   -5.591399
     76          1           0       17.136896    3.981496   -2.355727
     77          1           0       14.979738    7.694175   -2.782559
     78          1           0       14.649765    7.255002   -0.999871
     79          1           0       13.671699    6.718393   -2.378699
     80         12           0      -15.960602   -0.698783   -0.377640
     81          6           0      -15.775839    2.661743    0.868048
     82          6           0      -15.145745   -1.749086    2.763622
     83          6           0      -15.673224   -3.636394   -1.541813
     84          6           0      -15.629298    0.620192   -3.586412
     85          7           0      -15.540291    0.408660    1.490293
     86          6           0      -15.560265    1.680840    1.858399
     87          6           0      -15.416397    1.910484    3.386840
     88          6           0      -14.665134    0.542702    3.765846
     89          6           0      -15.171322   -0.338271    2.625527
     90          6           0      -13.152142    0.637918    3.660394
     91          6           0      -16.805531    2.021708    4.107921
     92          6           0      -16.744978    2.551803    5.542172
     93          1           0      -17.835328    3.398791    6.017794
     94          7           0      -15.964156   -2.453604    0.549278
     95          6           0      -15.626638   -2.696375    1.833186
     96          6           0      -15.776279   -4.147761    2.020971
     97          6           0      -16.070798   -4.763926    0.698734
     98          6           0      -15.889624   -3.619481   -0.171618
     99          6           0      -15.717511   -4.804073    3.369755
    100          6           0      -16.440231   -6.156112    0.284576
    101          8           0      -16.417415   -6.521641   -0.943711
    102          6           0      -16.739123   -7.104666    1.367361
    103          7           0      -15.478917   -1.426803   -2.264514
    104          6           0      -15.475425   -2.747720   -2.515693
    105          6           0      -15.372283   -3.020972   -3.997277
    106          6           0      -15.551531   -1.600413   -4.709651
    107          6           0      -15.642128   -0.699504   -3.458429
    108          6           0      -14.067127   -3.663917   -4.465871
    109          6           0      -16.667652   -1.487707   -5.784010
    110          6           0      -18.025803   -1.616972   -5.132789
    111          7           0      -15.926306    1.276984   -1.251244
    112          6           0      -15.751653    1.604259   -2.613772
    113          6           0      -15.684402    3.077364   -2.702526
    114          6           0      -15.802446    3.507446   -1.372279
    115          6           0      -15.913706    2.381135   -0.512896
    116          6           0      -15.485249    3.830745   -3.893694
    117          6           0      -15.847564    4.657798   -0.498572
    118          8           0      -15.885158    5.875922   -0.667393
    119          6           0      -15.705258    4.157518    1.003383
    120          6           0      -16.767890    4.837839    1.822222
    121          8           0      -17.971555    4.600926    1.618071
    122          8           0      -16.186383    5.485067    2.848526
    123          6           0      -17.200772    6.166572    3.696118
    124          1           0      -14.674852   -2.175174    3.649956
    125          1           0      -15.676950   -4.624583   -2.007586
    126          1           0      -15.625355    1.112125   -4.561428
    127          1           0      -14.803485    2.760151    3.662831
    128          1           0      -15.004368    0.158190    4.724200
    129          1           0      -12.836448    1.577858    3.232619
    130          1           0      -12.848865   -0.186328    3.028187
    131          1           0      -12.693910    0.453665    4.636306
    132          1           0      -17.192695    1.012190    4.296910
    133          1           0      -17.487517    2.616060    3.531494
    134          1           0      -15.774879    3.008987    5.772036
    135          1           0      -16.811115    1.704115    6.228517
    136          1           0      -15.323665   -4.121158    4.132591
    137          1           0      -14.968299   -5.600578    3.305417
    138          1           0      -16.673072   -5.240936    3.667606
    139          1           0      -15.877019   -7.185094    2.025213
    140          1           0      -17.068096   -8.019970    0.871502
    141          1           0      -17.558922   -6.699515    1.971016
    142          1           0      -16.166013   -3.681062   -4.324961
    143          1           0      -14.642317   -1.297763   -5.249621
    144          1           0      -14.219477   -4.618182   -5.004631
    145          1           0      -13.430504   -3.811486   -3.603628
    146          1           0      -13.447731   -3.037956   -5.105960
    147          1           0      -16.587696   -2.308717   -6.500729
    148          1           0      -16.631407   -0.562274   -6.349043
    149          1           0      -18.159789   -2.700016   -5.054344
    150          1           0      -18.794863   -1.168418   -5.758395
    151          1           0      -18.014129   -1.211648   -4.114345
    152          1           0      -16.176602    4.662052   -3.855541
    153          1           0      -15.643826    3.221176   -4.780848
    154          1           0      -14.436264    4.113864   -3.772304
    155          1           0      -14.700661    4.415403    1.340788
    156          1           0      -16.917008    7.222288    3.747473
    157          1           0      -17.221439    5.603656    4.648195
    158          1           0      -18.210759    6.237595    3.309684
 ---------------------------------------------------------------------

 SCF Done:  E(RCAM-B3LYP) =  -4069.81175910     A.U. after   19 cycles

 Excitation energies and oscillator strengths:

 Excited State   1:      Singlet-A      1.6754 eV  740.01 nm  f=0.3061  <S**2>=0.000
     310 -> 316        0.17112
     311 -> 314       -0.11520
     312 -> 313        0.67631
     310 <- 316        0.10315
 This state for optimization and/or second-order correction.
 Total Energy, E(TD-HF/TD-DFT) =  -4069.75018751
 Copying the excited state density for this state as the 1-particle RhoCI density.

 Excited State   2:      Singlet-A      1.6800 eV  738.02 nm  f=0.4705  <S**2>=0.000
     309 -> 315        0.17306
     311 -> 314        0.67595
     312 -> 313        0.11517
     309 <- 315        0.10363

 Excited State   3:      Singlet-A      2.1861 eV  567.14 nm  f=0.0994  <S**2>=0.000
     310 -> 313        0.64233
     312 -> 316       -0.27308

 Excited State   4:      Singlet-A      2.1925 eV  565.50 nm  f=0.1012  <S**2>=0.000
     309 -> 314        0.64057
     311 -> 315       -0.27820

 Excited State   5:      Singlet-A      3.0657 eV  404.42 nm  f=0.0000  <S**2>=0.000
     311 -> 313        0.70711

 The electronic state is 1-A.
 Alpha  occ. eigenvalues --  -46.87796 -46.87661 -19.26353 -19.26279 -19.19163
 Alpha  occ. eigenvalues --  -19.19015 -19.18817 -19.18714 -19.18167 -19.18052
 Alpha  occ. eigenvalues --  -14.42498 -14.42449 -14.41449 -14.41359 -14.39402
 Alpha  occ. eigenvalues --  -14.39352 -14.38600 -14.38586 -10.39093 -10.39075
 Alpha  occ. eigenvalues --  -10.35450 -10.35391 -10.34387 -10.34229 -10.31761
 Alpha  occ. eigenvalues --  -10.31672 -10.31403 -10.31310 -10.31024 -10.30908
 Alpha  occ. eigenvalues --  -10.30569 -10.30507 -10.30398 -10.30361 -10.30207
 Alpha  occ. eigenvalues --  -10.30140 -10.29920 -10.29894 -10.29630 -10.29437
 Alpha  occ. eigenvalues --  -10.29401 -10.29254 -10.28746 -10.28721 -10.28659
 Alpha  occ. eigenvalues --  -10.28533 -10.28405 -10.28364 -10.28142 -10.28114
 Alpha  occ. eigenvalues --  -10.28001 -10.27792 -10.27726 -10.27670 -10.27584
 Alpha  occ. eigenvalues --  -10.27516 -10.27501 -10.27484 -10.27482 -10.27468
 Alpha  occ. eigenvalues --  -10.27465 -10.27450 -10.27402 -10.27374 -10.27155
 Alpha  occ. eigenvalues --  -10.27052 -10.26701 -10.26696 -10.26415 -10.26414
 Alpha  occ. eigenvalues --  -10.26232 -10.26185 -10.26135 -10.26026 -10.26019
 Alpha  occ. eigenvalues --  -10.25934 -10.25849 -10.25842 -10.25436 -10.25393
 Alpha  occ. eigenvalues --  -10.24873 -10.24832 -10.24787 -10.24729 -10.24690
 Alpha  occ. eigenvalues --  -10.24688  -3.16539  -3.16411  -1.91420  -1.91293
 Alpha  occ. eigenvalues --   -1.91007  -1.90881  -1.90849  -1.90718  -1.16646
 Alpha  occ. eigenvalues --   -1.16627  -1.08659  -1.08625  -1.07218  -1.06967
 Alpha  occ. eigenvalues --   -1.06948  -1.06637  -1.04580  -1.04496  -1.03760
 Alpha  occ. eigenvalues --   -1.03663  -1.03233  -1.03039  -1.02410  -1.02111
 Alpha  occ. eigenvalues --   -0.91988  -0.91970  -0.89519  -0.89494  -0.89185
 Alpha  occ. eigenvalues --   -0.89153  -0.88287  -0.88219  -0.87869  -0.87794
 Alpha  occ. eigenvalues --   -0.87684  -0.87672  -0.87274  -0.87120  -0.85001
 Alpha  occ. eigenvalues --   -0.84980  -0.83936  -0.83875  -0.82969  -0.82931
 Alpha  occ. eigenvalues --   -0.82654  -0.82647  -0.81598  -0.81583  -0.80595
 Alpha  occ. eigenvalues --   -0.80444  -0.78797  -0.78636  -0.77217  -0.77145
 Alpha  occ. eigenvalues --   -0.76932  -0.76899  -0.75921  -0.75840  -0.74898
 Alpha  occ. eigenvalues --   -0.74802  -0.72773  -0.72699  -0.71671  -0.71581
 Alpha  occ. eigenvalues --   -0.69907  -0.69756  -0.68871  -0.68828  -0.67640
 Alpha  occ. eigenvalues --   -0.67602  -0.67218  -0.67202  -0.65284  -0.65273
 Alpha  occ. eigenvalues --   -0.64852  -0.64771  -0.64655  -0.64619  -0.64269
 Alpha  occ. eigenvalues --   -0.64203  -0.62294  -0.62280  -0.60442  -0.60340
 Alpha  occ. eigenvalues --   -0.59802  -0.59798  -0.58993  -0.58986  -0.58502
 Alpha  occ. eigenvalues --   -0.58426  -0.57582  -0.57556  -0.57308  -0.57236
 Alpha  occ. eigenvalues --   -0.56309  -0.56205  -0.55975  -0.55888  -0.55520
 Alpha  occ. eigenvalues --   -0.55453  -0.55338  -0.55247  -0.54521  -0.54488
 Alpha  occ. eigenvalues --   -0.53914  -0.53893  -0.53298  -0.53228  -0.53221
 Alpha  occ. eigenvalues --   -0.53143  -0.52913  -0.52903  -0.52756  -0.52669
 Alpha  occ. eigenvalues --   -0.52439  -0.52400  -0.51913  -0.51884  -0.51660
 Alpha  occ. eigenvalues --   -0.51615  -0.51202  -0.51194  -0.50574  -0.50475
 Alpha  occ. eigenvalues --   -0.50032  -0.49980  -0.49919  -0.49866  -0.49514
 Alpha  occ. eigenvalues --   -0.49488  -0.49213  -0.49203  -0.49105  -0.49094
 Alpha  occ. eigenvalues --   -0.48591  -0.48560  -0.48462  -0.48445  -0.48375
 Alpha  occ. eigenvalues --   -0.48339  -0.47694  -0.47595  -0.47296  -0.47118
 Alpha  occ. eigenvalues --   -0.46796  -0.46709  -0.46555  -0.46553  -0.46358
 Alpha  occ. eigenvalues --   -0.46271  -0.46161  -0.46085  -0.45823  -0.45819
 Alpha  occ. eigenvalues --   -0.45208  -0.45201  -0.44576  -0.44515  -0.44507
 Alpha  occ. eigenvalues --   -0.44477  -0.44144  -0.44128  -0.44086  -0.44078
 Alpha  occ. eigenvalues --   -0.44018  -0.43940  -0.43555  -0.43492  -0.43386
 Alpha  occ. eigenvalues --   -0.43384  -0.43026  -0.42932  -0.42902  -0.42696
 Alpha  occ. eigenvalues --   -0.42653  -0.42553  -0.42008  -0.41964  -0.41703
 Alpha  occ. eigenvalues --   -0.41670  -0.41532  -0.41460  -0.41140  -0.40990
 Alpha  occ. eigenvalues --   -0.40868  -0.40824  -0.40723  -0.40699  -0.40571
 Alpha  occ. eigenvalues --   -0.40493  -0.40231  -0.40229  -0.39441  -0.39424
 Alpha  occ. eigenvalues --   -0.38469  -0.38349  -0.37745  -0.37656  -0.37320
 Alpha  occ. eigenvalues --   -0.37266  -0.37261  -0.37201  -0.36773  -0.36710
 Alpha  occ. eigenvalues --   -0.36217  -0.36190  -0.34285  -0.34254  -0.33864
 Alpha  occ. eigenvalues --   -0.33766  -0.33185  -0.33176  -0.31346  -0.31273
 Alpha  occ. eigenvalues --   -0.31035  -0.30973  -0.30026  -0.29956  -0.29449
 Alpha  occ. eigenvalues --   -0.29328  -0.29321  -0.29212  -0.24080  -0.24036
 Alpha  occ. eigenvalues --   -0.21127  -0.21117
 Alpha virt. eigenvalues --   -0.08792  -0.08774  -0.01749  -0.01684  -0.00058
 Alpha virt. eigenvalues --   -0.00029   0.02202   0.02207   0.03124   0.03227
 Alpha virt. eigenvalues --    0.04720   0.04729   0.05103   0.05163   0.06181

 Mulliken charges:
               1
     1  Mg   0.838796
     2  C   -0.002950
     3  C   -0.094130
     4  C   -0.045903
     5  C   -0.063960
     6  N   -0.256786
     7  C   -0.052468
     8  C   -0.014014
     9  C   -0.087016
    10  C    0.046343
    11  C    0.104814
    12  C    0.053475
    13  C   -0.071831
    14  H    0.036186
    15  N   -0.433161
    16  C    0.168414
    17  C   -0.177149
    18  C   -0.004027
    19  C    0.148709
    20  C    0.110178
    21  C    0.012263
    22  O   -0.249652
    23  C    0.062485
    24  N   -0.341158
    25  C    0.041269
    26  C   -0.028184
    27  C   -0.023962
    28  C    0.074837
    29  C    0.076171
    30  C    0.035128
    31  C   -0.004498
    32  N   -0.310482
    33  C    0.080428
    34  C   -0.169716
    35  C    0.008371
    36  C    0.082991
    37  C    0.127312
    38  C    0.046126
    39  O   -0.188399
    40  C   -0.005332
    41  C    0.212890
    42  O   -0.257101
    43  O   -0.304800
    44  C    0.157678
    45  H   -0.017603
    46  H   -0.016860
    47  H   -0.041489
    48  H    0.000958
    49  H   -0.004027
    50  H    0.025481
    51  H    0.016435
    52  H    0.016666
    53  H    0.011194
    54  H    0.044134
    55  H    0.017881
    56  H    0.017945
    57  H    0.005885
    58  H    0.026810
    59  H    0.039525
    60  H    0.037349
    61  H    0.035605
    62  H    0.031486
    63  H    0.016531
    64  H    0.009463
    65  H    0.023191
    66  H    0.012548
    67  H    0.004755
    68  H    0.006350
    69  H    0.004740
    70  H    0.008756
    71  H    0.018142
    72  H    0.028992
    73  H    0.047591
    74  H    0.009106
    75  H    0.046018
    76  H    0.035161
    77  H    0.042975
    78  H    0.046408
    79  H    0.053714
    80  Mg   0.837908
    81  C   -0.016849
    82  C   -0.087797
    83  C   -0.045508
    84  C   -0.064832
    85  N   -0.254570
    86  C   -0.049839
    87  C   -0.015090
    88  C   -0.090509
    89  C    0.045746
    90  C    0.114376
    91  C    0.062529
    92  C   -0.077883
    93  H    0.034879
    94  N   -0.423507
    95  C    0.162938
    96  C   -0.174625
    97  C   -0.007793
    98  C    0.152125
    99  C    0.099362
   100  C    0.015580
   101  O   -0.253151
   102  C    0.061189
   103  N   -0.350072
   104  C    0.037547
   105  C   -0.019859
   106  C   -0.034825
   107  C    0.088909
   108  C    0.073633
   109  C    0.034728
   110  C   -0.007676
   111  N   -0.324120
   112  C    0.078441
   113  C   -0.163116
   114  C    0.002244
   115  C    0.096191
   116  C    0.131492
   117  C    0.042398
   118  O   -0.187872
   119  C    0.000929
   120  C    0.211243
   121  O   -0.251021
   122  O   -0.305623
   123  C    0.152023
   124  H   -0.019661
   125  H   -0.015542
   126  H   -0.040418
   127  H   -0.000658
   128  H   -0.004340
   129  H    0.022476
   130  H    0.014459
   131  H    0.016267
   132  H    0.013918
   133  H    0.037676
   134  H    0.020775
   135  H    0.019583
   136  H    0.008752
   137  H    0.026168
   138  H    0.039791
   139  H    0.038262
   140  H    0.036415
   141  H    0.033886
   142  H    0.014404
   143  H    0.012480
   144  H    0.025169
   145  H    0.011661
   146  H    0.005742
   147  H    0.006298
   148  H    0.003674
   149  H    0.010933
   150  H    0.017935
   151  H    0.030079
   152  H    0.046000
   153  H    0.008538
   154  H    0.046995
   155  H    0.035036
   156  H    0.043907
   157  H    0.049482
   158  H    0.053583
 Sum of Mulliken charges =  -0.00000

 Dipole moment (field-independent basis, Debye):
    X=              3.8572    Y=             -2.2138    Z=              7.2433  Tot=              8.4996
 Quadrupole moment (field-independent basis, Debye-Ang):
   XX=           -516.7446   YY=           -534.9376   ZZ=           -463.9305
   XY=             52.3678   XZ=             15.8051   YZ=             32.8728

 Normal termination of Gaussian 16 at Sat Sep  4 19:34:29 2021.
