 Gaussian 16, Revision A.03,
 Gaussian 16:  ES64L-G16RevA.03 25-Dec-2016

 -----------------------------------
 #p cam-b3lyp/Def2SVP td=(nstates=5)
 -----------------------------------

 --------------------------------
 TDDFT excited states in gaussian
 --------------------------------
 Symbolic Z-matrix:
 Charge =  0 Multiplicity = 1

                         Standard orientation:
 ---------------------------------------------------------------------
 Center     Atomic      Atomic             Coordinates (Angstroms)
 Number     Number       Type             X           Y           Z
 ---------------------------------------------------------------------
      1         12           0       15.598484   -0.834449    0.275641
      2          6           0       15.858676    2.292827   -1.446176
      3          6           0       16.447018    0.835109    3.127944
      4          6           0       15.819533   -3.645900    1.725987
      5          6           0       15.891370   -2.397828   -2.825282
      6          7           0       16.067147    1.293921    0.664281
      7          6           0       16.073151    2.401795   -0.070396
      8          6           0       16.254053    3.700318    0.771320
      9          6           0       16.981355    3.075361    2.045078
     10          6           0       16.439821    1.659029    1.963412
     11          6           0       18.500554    3.028486    1.917253
     12          6           0       14.884700    4.354403    1.157035
     13          6           0       14.972462    5.786487    1.692560
     14          1           0       13.911114    6.724746    1.360057
     15          7           0       15.584439   -1.288903    2.198172
     16          6           0       15.946280   -0.481296    3.223905
     17          6           0       15.759844   -1.278271    4.455470
     18          6           0       15.441537   -2.675401    4.049510
     19          6           0       15.630663   -2.597598    2.623482
     20          6           0       15.839161   -0.695006    5.832881
     21          6           0       15.042106   -3.890786    4.825027
     22          8           0       15.038920   -5.058764    4.305037
     23          6           0       14.735724   -3.687806    6.252603
     24          7           0       16.042953   -2.755205   -0.410492
     25          6           0       16.014399   -3.806826    0.415500
     26          6           0       16.084576   -5.098974   -0.343030
     27          6           0       15.921865   -4.715997   -1.884654
     28          6           0       15.865134   -3.175147   -1.740314
     29          6           0       17.369145   -5.917457   -0.153345
     30          6           0       14.790193   -5.425414   -2.669806
     31          6           0       13.443772   -4.973140   -2.150481
     32          7           0       15.656396   -0.200078   -1.799272
     33          6           0       15.806047   -1.019375   -2.927558
     34          6           0       15.897084   -0.128757   -4.099130
     35          6           0       15.810145    1.155705   -3.565798
     36          6           0       15.699851    1.073499   -2.148276
     37          6           0       16.098855   -0.541225   -5.445827
     38          6           0       15.809542    2.579233   -3.861476
     39          8           0       15.782662    3.250405   -4.894094
     40          6           0       15.963531    3.375681   -2.491153
     41          6           0       14.927095    4.466090   -2.480269
     42          8           0       13.710846    4.192130   -2.425040
     43          8           0       15.530099    5.650761   -2.297287
     44          6           0       14.555026    6.772755   -2.247110
     45          1           0       16.931745    1.205310    4.033445
     46          1           0       15.790621   -4.640886    2.174992
     47          1           0       15.898830   -2.816561   -3.833280
     48          1           0       16.892201    4.454972    0.311222
     49          1           0       16.659947    3.551117    2.971401
     50          1           0       18.825184    3.314128    0.916781
     51          1           0       18.778575    1.995484    2.127266
     52          1           0       18.973381    3.629901    2.694113
     53          1           0       14.481362    3.851958    2.036198
     54          1           0       14.192822    4.326321    0.314513
     55          1           0       15.949136    6.227851    1.492028
     56          1           0       14.910372    5.748816    2.780184
     57          1           0       16.250381    0.313563    5.817651
     58          1           0       16.574840   -1.279998    6.384488
     59          1           0       14.879711   -0.729897    6.349186
     60          1           0       15.608881   -3.267155    6.751799
     61          1           0       14.383485   -4.649402    6.624236
     62          1           0       13.943686   -2.943671    6.341413
     63          1           0       15.274367   -5.766911   -0.053464
     64          1           0       16.822343   -4.936949   -2.458234
     65          1           0       17.193185   -6.931153    0.207435
     66          1           0       18.021376   -5.368530    0.525305
     67          1           0       17.996488   -5.995750   -1.040885
     68          1           0       14.844987   -6.503537   -2.522856
     69          1           0       14.825633   -5.234678   -3.742473
     70          1           0       13.287263   -5.617559   -1.286154
     71          1           0       12.671664   -5.135338   -2.903309
     72          1           0       13.481511   -3.945596   -1.788244
     73          1           0       15.415481    0.052892   -6.052452
     74          1           0       15.909928   -1.607766   -5.565828
     75          1           0       17.149822   -0.285636   -5.579989
     76          1           0       16.977364    3.774325   -2.472507
     77          1           0       14.854114    7.492262   -3.009402
     78          1           0       14.528200    7.113924   -1.212079
     79          1           0       13.538623    6.542816   -2.568657
     80         12           0      -16.151042   -0.507724   -0.213985
     81          6           0      -13.652154    1.988491    0.421214
     82          6           0      -18.358873    1.494270    1.444971
     83          6           0      -18.256968   -2.876415   -0.361587
     84          6           0      -13.555309   -2.761202   -0.788173
     85          7           0      -15.916616    1.463580    0.761355
     86          6           0      -14.935422    2.344546    0.885833
     87          6           0      -15.371139    3.713894    1.472867
     88          6           0      -16.683831    3.230647    2.261647
     89          6           0      -17.036445    2.004896    1.421486
     90          6           0      -16.397551    2.770349    3.681325
     91          6           0      -15.723918    4.758004    0.355994
     92          6           0      -15.858184    6.201901    0.844773
     93          1           0      -15.414701    7.278957   -0.035987
     94          7           0      -18.123935   -0.487330    0.000138
     95          6           0      -18.858547    0.411916    0.687881
     96          6           0      -20.256737   -0.026362    0.556964
     97          6           0      -20.271855   -1.348665   -0.125694
     98          6           0      -18.852608   -1.638057   -0.171227
     99          6           0      -21.418882    0.822024    0.984815
    100          6           0      -21.380974   -2.215858   -0.639534
    101          8           0      -21.178973   -3.433762   -0.984100
    102          6           0      -22.727826   -1.626367   -0.639388
    103          7           0      -15.944175   -2.573664   -0.320862
    104          6           0      -17.021018   -3.371620   -0.428651
    105          6           0      -16.619149   -4.787383   -0.767058
    106          6           0      -15.057099   -4.721796   -1.103630
    107          6           0      -14.795606   -3.229863   -0.801711
    108          6           0      -16.860520   -5.827001    0.327154
    109          6           0      -14.609255   -5.287068   -2.479331
    110          6           0      -15.144600   -4.417148   -3.593789
    111          7           0      -13.999657   -0.393516   -0.376832
    112          6           0      -13.102807   -1.462248   -0.594910
    113          6           0      -11.736144   -0.907257   -0.513502
    114          6           0      -11.933819    0.452248   -0.228609
    115          6           0      -13.324904    0.721214   -0.118835
    116          6           0      -10.528088   -1.648293   -0.646117
    117          6           0      -11.281693    1.718826    0.014716
    118          8           0      -10.120178    2.121512   -0.034762
    119          6           0      -12.361061    2.744245    0.571380
    120          6           0      -12.211679    4.033867   -0.188277
    121          8           0      -12.460292    4.082654   -1.405818
    122          8           0      -12.012057    5.038575    0.684129
    123          6           0      -11.869009    6.340171   -0.021018
    124          1           0      -19.073465    1.936329    2.139830
    125          1           0      -18.943863   -3.709309   -0.528774
    126          1           0      -12.694743   -3.379436   -1.052530
    127          1           0      -14.664371    4.157497    2.163857
    128          1           0      -17.475346    3.973276    2.203528
    129          1           0      -15.338047    2.732734    3.886739
    130          1           0      -16.834298    1.783746    3.764397
    131          1           0      -16.934944    3.399068    4.397050
    132          1           0      -16.750616    4.580189    0.011024
    133          1           0      -15.013194    4.712664   -0.446152
    134          1           0      -15.446997    6.335784    1.852712
    135          1           0      -16.920323    6.433361    0.955677
    136          1           0      -21.093360    1.668211    1.602399
    137          1           0      -22.028811    0.211907    1.659801
    138          1           0      -22.037017    1.144505    0.144227
    139          1           0      -22.993927   -1.333935    0.373593
    140          1           0      -23.369845   -2.364290   -1.124327
    141          1           0      -22.707922   -0.708208   -1.237054
    142          1           0      -17.152225   -5.142401   -1.640507
    143          1           0      -14.460148   -5.297897   -0.381412
    144          1           0      -17.500891   -6.666890   -0.002371
    145          1           0      -17.297831   -5.327928    1.181687
    146          1           0      -15.960283   -6.267309    0.752510
    147          1           0      -15.029761   -6.283729   -2.634296
    148          1           0      -13.532547   -5.372374   -2.581450
    149          1           0      -16.163745   -4.790879   -3.730701
    150          1           0      -14.552504   -4.545094   -4.497720
    151          1           0      -15.217218   -3.370582   -3.275841
    152          1           0       -9.869731   -1.060996   -1.272334
    153          1           0      -10.710203   -2.632563   -1.072506
    154          1           0      -10.218366   -1.705384    0.400819
    155          1           0      -12.171328    2.872895    1.637700
    156          1           0      -10.914732    6.772082    0.295991
    157          1           0      -12.785131    6.912036    0.218636
    158          1           0      -11.743135    6.316020   -1.097133
 ---------------------------------------------------------------------

 SCF Done:  E(RCAM-B3LYP) =  -4069.81174295     A.U. after   19 cycles

 Excitation energies and oscillator strengths:

 Excited State   1:      Singlet-A      1.6756 eV  739.94 nm  f=0.3902  <S**2>=0.000
     309 -> 316        0.17336
     311 -> 313        0.68506
     309 <- 316        0.10449
 This state for optimization and/or second-order correction.
 Total Energy, E(TD-HF/TD-DFT) =  -4069.75016580
 Copying the excited state density for this state as the 1-particle RhoCI density.

 Excited State   2:      Singlet-A      1.6799 eV  738.06 nm  f=0.3918  <S**2>=0.000
     310 -> 315        0.17529
     312 -> 314        0.68471
     310 <- 315        0.10497

 Excited State   3:      Singlet-A      2.1861 eV  567.15 nm  f=0.0944  <S**2>=0.000
     309 -> 313        0.64200
     311 -> 316       -0.27295

 Excited State   4:      Singlet-A      2.1925 eV  565.50 nm  f=0.1056  <S**2>=0.000
     310 -> 314        0.64024
     312 -> 315       -0.27808

 Excited State   5:      Singlet-A      3.0459 eV  407.05 nm  f=0.0000  <S**2>=0.000
     312 -> 313        0.70708

 The electronic state is 1-A.
 Alpha  occ. eigenvalues --  -46.87730 -46.87660 -19.26344 -19.26212 -19.19155
 Alpha  occ. eigenvalues --  -19.18947 -19.18750 -19.18714 -19.18102 -19.18047
 Alpha  occ. eigenvalues --  -14.42497 -14.42383 -14.41383 -14.41358 -14.39351
 Alpha  occ. eigenvalues --  -14.39336 -14.38599 -14.38520 -10.39085 -10.39007
 Alpha  occ. eigenvalues --  -10.35391 -10.35384 -10.34322 -10.34225 -10.31749
 Alpha  occ. eigenvalues --  -10.31606 -10.31338 -10.31308 -10.31023 -10.30842
 Alpha  occ. eigenvalues --  -10.30503 -10.30441 -10.30396 -10.30359 -10.30142
 Alpha  occ. eigenvalues --  -10.30141 -10.29893 -10.29855 -10.29564 -10.29436
 Alpha  occ. eigenvalues --  -10.29399 -10.29188 -10.28719 -10.28681 -10.28653
 Alpha  occ. eigenvalues --  -10.28467 -10.28404 -10.28298 -10.28141 -10.28051
 Alpha  occ. eigenvalues --  -10.27999 -10.27727 -10.27669 -10.27661 -10.27518
 Alpha  occ. eigenvalues --  -10.27517 -10.27483 -10.27467 -10.27464 -10.27437
 Alpha  occ. eigenvalues --  -10.27417 -10.27386 -10.27376 -10.27336 -10.27090
 Alpha  occ. eigenvalues --  -10.27048 -10.26691 -10.26633 -10.26415 -10.26346
 Alpha  occ. eigenvalues --  -10.26172 -10.26135 -10.26118 -10.26028 -10.25953
 Alpha  occ. eigenvalues --  -10.25933 -10.25845 -10.25778 -10.25399 -10.25376
 Alpha  occ. eigenvalues --  -10.24871 -10.24766 -10.24727 -10.24722 -10.24689
 Alpha  occ. eigenvalues --  -10.24617  -3.16472  -3.16410  -1.91354  -1.91292
 Alpha  occ. eigenvalues --   -1.90940  -1.90880  -1.90783  -1.90717  -1.16638
 Alpha  occ. eigenvalues --   -1.16560  -1.08654  -1.08559  -1.07151  -1.06966
 Alpha  occ. eigenvalues --   -1.06940  -1.06569  -1.04514  -1.04495  -1.03694
 Alpha  occ. eigenvalues --   -1.03662  -1.03167  -1.03038  -1.02345  -1.02110
 Alpha  occ. eigenvalues --   -0.91985  -0.91905  -0.89493  -0.89453  -0.89151
 Alpha  occ. eigenvalues --   -0.89121  -0.88222  -0.88219  -0.87804  -0.87791
 Alpha  occ. eigenvalues --   -0.87683  -0.87606  -0.87208  -0.87120  -0.84999
 Alpha  occ. eigenvalues --   -0.84915  -0.83875  -0.83871  -0.82931  -0.82902
 Alpha  occ. eigenvalues --   -0.82652  -0.82582  -0.81593  -0.81517  -0.80529
 Alpha  occ. eigenvalues --   -0.80441  -0.78731  -0.78634  -0.77152  -0.77144
 Alpha  occ. eigenvalues --   -0.76897  -0.76867  -0.75856  -0.75837  -0.74833
 Alpha  occ. eigenvalues --   -0.74802  -0.72708  -0.72698  -0.71607  -0.71580
 Alpha  occ. eigenvalues --   -0.69841  -0.69756  -0.68826  -0.68806  -0.67600
 Alpha  occ. eigenvalues --   -0.67575  -0.67199  -0.67152  -0.65271  -0.65219
 Alpha  occ. eigenvalues --   -0.64786  -0.64769  -0.64652  -0.64553  -0.64203
 Alpha  occ. eigenvalues --   -0.64202  -0.62275  -0.62228  -0.60376  -0.60339
 Alpha  occ. eigenvalues --   -0.59796  -0.59738  -0.58992  -0.58921  -0.58437
 Alpha  occ. eigenvalues --   -0.58424  -0.57551  -0.57516  -0.57242  -0.57235
 Alpha  occ. eigenvalues --   -0.56243  -0.56203  -0.55908  -0.55883  -0.55454
 Alpha  occ. eigenvalues --   -0.55450  -0.55273  -0.55246  -0.54485  -0.54455
 Alpha  occ. eigenvalues --   -0.53912  -0.53828  -0.53233  -0.53226  -0.53155
 Alpha  occ. eigenvalues --   -0.53140  -0.52900  -0.52846  -0.52690  -0.52668
 Alpha  occ. eigenvalues --   -0.52399  -0.52371  -0.51881  -0.51848  -0.51658
 Alpha  occ. eigenvalues --   -0.51549  -0.51199  -0.51129  -0.50507  -0.50475
 Alpha  occ. eigenvalues --   -0.49980  -0.49966  -0.49866  -0.49853  -0.49487
 Alpha  occ. eigenvalues --   -0.49448  -0.49201  -0.49148  -0.49103  -0.49030
 Alpha  occ. eigenvalues --   -0.48556  -0.48526  -0.48397  -0.48379  -0.48375
 Alpha  occ. eigenvalues --   -0.48338  -0.47628  -0.47594  -0.47231  -0.47117
 Alpha  occ. eigenvalues --   -0.46731  -0.46708  -0.46553  -0.46488  -0.46293
 Alpha  occ. eigenvalues --   -0.46269  -0.46096  -0.46084  -0.45819  -0.45754
 Alpha  occ. eigenvalues --   -0.45208  -0.45137  -0.44512  -0.44510  -0.44475
 Alpha  occ. eigenvalues --   -0.44441  -0.44126  -0.44078  -0.44076  -0.44022
 Alpha  occ. eigenvalues --   -0.43952  -0.43938  -0.43550  -0.43426  -0.43385
 Alpha  occ. eigenvalues --   -0.43319  -0.42961  -0.42927  -0.42899  -0.42630
 Alpha  occ. eigenvalues --   -0.42586  -0.42552  -0.41963  -0.41942  -0.41667
 Alpha  occ. eigenvalues --   -0.41637  -0.41466  -0.41458  -0.41075  -0.40989
 Alpha  occ. eigenvalues --   -0.40802  -0.40757  -0.40722  -0.40698  -0.40506
 Alpha  occ. eigenvalues --   -0.40492  -0.40226  -0.40165  -0.39424  -0.39374
 Alpha  occ. eigenvalues --   -0.38403  -0.38350  -0.37679  -0.37653  -0.37265
 Alpha  occ. eigenvalues --   -0.37254  -0.37199  -0.37195  -0.36767  -0.36643
 Alpha  occ. eigenvalues --   -0.36215  -0.36124  -0.34252  -0.34219  -0.33857
 Alpha  occ. eigenvalues --   -0.33698  -0.33174  -0.33119  -0.31280  -0.31273
 Alpha  occ. eigenvalues --   -0.30972  -0.30969  -0.29961  -0.29951  -0.29383
 Alpha  occ. eigenvalues --   -0.29326  -0.29255  -0.29210  -0.24035  -0.24014
 Alpha  occ. eigenvalues --   -0.21116  -0.21061
 Alpha virt. eigenvalues --   -0.08791  -0.08708  -0.01683  -0.01683  -0.00028
 Alpha virt. eigenvalues --    0.00008   0.02209   0.02267   0.03196   0.03230
 Alpha virt. eigenvalues --    0.04730   0.04785   0.05170   0.05170   0.06183

 Mulliken charges:
               1
     1  Mg   0.838891
     2  C   -0.002913
     3  C   -0.094105
     4  C   -0.045894
     5  C   -0.063964
     6  N   -0.256771
     7  C   -0.052475
     8  C   -0.014013
     9  C   -0.087026
    10  C    0.046355
    11  C    0.104836
    12  C    0.053472
    13  C   -0.071840
    14  H    0.036265
    15  N   -0.433151
    16  C    0.168437
    17  C   -0.177161
    18  C   -0.004009
    19  C    0.148724
    20  C    0.110195
    21  C    0.012301
    22  O   -0.249666
    23  C    0.062463
    24  N   -0.341164
    25  C    0.041260
    26  C   -0.028152
    27  C   -0.023973
    28  C    0.074853
    29  C    0.076192
    30  C    0.035131
    31  C   -0.004506
    32  N   -0.310482
    33  C    0.080447
    34  C   -0.169695
    35  C    0.008359
    36  C    0.083032
    37  C    0.127298
    38  C    0.046147
    39  O   -0.188426
    40  C   -0.005360
    41  C    0.212869
    42  O   -0.256974
    43  O   -0.304850
    44  C    0.157661
    45  H   -0.017660
    46  H   -0.016879
    47  H   -0.041512
    48  H    0.000899
    49  H   -0.004026
    50  H    0.025437
    51  H    0.016402
    52  H    0.016595
    53  H    0.011263
    54  H    0.044217
    55  H    0.017785
    56  H    0.017938
    57  H    0.005851
    58  H    0.026739
    59  H    0.039601
    60  H    0.037281
    61  H    0.035616
    62  H    0.031587
    63  H    0.016567
    64  H    0.009392
    65  H    0.023160
    66  H    0.012502
    67  H    0.004689
    68  H    0.006303
    69  H    0.004718
    70  H    0.008778
    71  H    0.018224
    72  H    0.029049
    73  H    0.047632
    74  H    0.009108
    75  H    0.045933
    76  H    0.035082
    77  H    0.042905
    78  H    0.046392
    79  H    0.053814
    80  Mg   0.837904
    81  C   -0.016822
    82  C   -0.087789
    83  C   -0.045497
    84  C   -0.064897
    85  N   -0.254569
    86  C   -0.049839
    87  C   -0.015079
    88  C   -0.090512
    89  C    0.045742
    90  C    0.114389
    91  C    0.062515
    92  C   -0.077906
    93  H    0.034960
    94  N   -0.423485
    95  C    0.162908
    96  C   -0.174645
    97  C   -0.007811
    98  C    0.152104
    99  C    0.099371
   100  C    0.015565
   101  O   -0.253181
   102  C    0.061191
   103  N   -0.350096
   104  C    0.037498
   105  C   -0.019836
   106  C   -0.034837
   107  C    0.088950
   108  C    0.073668
   109  C    0.034735
   110  C   -0.007689
   111  N   -0.324146
   112  C    0.078476
   113  C   -0.163096
   114  C    0.002267
   115  C    0.096201
   116  C    0.131484
   117  C    0.042416
   118  O   -0.187750
   119  C    0.000895
   120  C    0.211292
   121  O   -0.250959
   122  O   -0.305668
   123  C    0.152001
   124  H   -0.019684
   125  H   -0.015575
   126  H   -0.040409
   127  H   -0.000660
   128  H   -0.004321
   129  H    0.022443
   130  H    0.014404
   131  H    0.016253
   132  H    0.013929
   133  H    0.037718
   134  H    0.020756
   135  H    0.019581
   136  H    0.008748
   137  H    0.026119
   138  H    0.039809
   139  H    0.038234
   140  H    0.036402
   141  H    0.033914
   142  H    0.014422
   143  H    0.012417
   144  H    0.025140
   145  H    0.011607
   146  H    0.005663
   147  H    0.006267
   148  H    0.003700
   149  H    0.010924
   150  H    0.018001
   151  H    0.030104
   152  H    0.046131
   153  H    0.008553
   154  H    0.046932
   155  H    0.034996
   156  H    0.043949
   157  H    0.049461
   158  H    0.053653
 Sum of Mulliken charges =  -0.00000

 Dipole moment (field-independent basis, Debye):
    X=             -1.4905    Y=              1.4809    Z=              6.7752  Tot=              7.0935
 Quadrupole moment (field-independent basis, Debye-Ang):
   XX=           -358.6342   YY=           -481.3932   ZZ=           -507.2102
   XY=            -34.8358   XZ=             17.8870   YZ=             47.0563

 Normal termination of Gaussian 16 at Sun Sep 12 16:37:56 2021.
