 Gaussian 16, Revision A.03,
 Gaussian 16:  ES64L-G16RevA.03 25-Dec-2016

 -----------------------------------
 #p cam-b3lyp/Def2SVP td=(nstates=5)
 -----------------------------------

 --------------------------------
 TDDFT excited states in gaussian
 --------------------------------
 Symbolic Z-matrix:
 Charge =  0 Multiplicity = 1

                         Standard orientation:
 ---------------------------------------------------------------------
 Center     Atomic      Atomic             Coordinates (Angstroms)
 Number     Number       Type             X           Y           Z
 ---------------------------------------------------------------------
      1         12           0      -15.905880    0.707467    0.442772
      2          6           0      -16.219945   -1.827397   -2.064825
      3          6           0      -16.886659   -1.634969    2.721837
      4          6           0      -16.075390    3.030269    2.595091
      5          6           0      -16.062071    3.058987   -2.124642
      6          7           0      -16.454026   -1.427059    0.233052
      7          6           0      -16.475751   -2.294788   -0.773797
      8          6           0      -16.721934   -3.764113   -0.317891
      9          6           0      -17.463428   -3.477945    1.064242
     10          6           0      -16.874096   -2.114117    1.378226
     11          6           0      -18.976192   -3.339513    0.926826
     12          6           0      -15.385736   -4.550515   -0.099080
     13          6           0      -15.534751   -6.069426    0.027636
     14          1           0      -14.495685   -6.923723   -0.527221
     15          7           0      -15.930156    0.625965    2.416504
     16          6           0      -16.346238   -0.413591    3.179057
     17          6           0      -16.168070    0.014058    4.583355
     18          6           0      -15.793433    1.455477    4.576010
     19          6           0      -15.945544    1.772342    3.178929
     20          6           0      -16.304302   -0.915382    5.750117
     21          6           0      -15.376273    2.400398    5.658245
     22          8           0      -15.320770    3.664276    5.473567
     23          6           0      -15.116181    1.808402    6.982985
     24          7           0      -16.268571    2.757803    0.293736
     25          6           0      -16.228667    3.545917    1.373674
     26          6           0      -16.235838    4.996415    0.991649
     27          6           0      -16.043160    5.037165   -0.592954
     28          6           0      -16.040548    3.513447   -0.869624
     29          6           0      -17.497872    5.782611    1.372671
     30          6           0      -14.867782    5.887559   -1.136769
     31          6           0      -13.551625    5.260213   -0.735188
     32          7           0      -15.927073    0.658627   -1.727069
     33          6           0      -16.018807    1.756897   -2.594284
     34          6           0      -16.106363    1.219277   -3.964454
     35          6           0      -16.075977   -0.163772   -3.796825
     36          6           0      -16.002248   -0.471052   -2.408144
     37          6           0      -16.257363    1.986987   -5.152837
     38          6           0      -16.113480   -1.453816   -4.466329
     39          8           0      -16.079931   -1.822311   -5.641309
     40          6           0      -16.331050   -2.583577   -3.365360
     41          6           0      -15.331300   -3.675871   -3.631259
     42          8           0      -14.108777   -3.474285   -3.482367
     43          8           0      -15.977312   -4.841723   -3.786174
     44          6           0      -15.040981   -5.972621   -4.023882
     45          1           0      -17.407978   -2.216479    3.484735
     46          1           0      -16.026561    3.865494    3.296841
     47          1           0      -16.028084    3.733898   -2.981843
     48          1           0      -17.371327   -4.341491   -0.976183
     49          1           0      -17.183351   -4.197873    1.832996
     50          1           0      -19.282189   -3.332092   -0.119229
     51          1           0      -19.226182   -2.391391    1.403338
     52          1           0      -19.489586   -4.109283    1.503592
     53          1           0      -14.990707   -4.319677    0.890226
     54          1           0      -14.670313   -4.323197   -0.890170
     55          1           0      -16.519346   -6.402205   -0.302121
     56          1           0      -15.501521   -6.328764    1.085861
     57          1           0      -16.747509   -1.865790    5.455435
     58          1           0      -17.035527   -0.472682    6.426161
     59          1           0      -15.358846   -1.058164    6.273622
     60          1           0      -16.015999    1.302924    7.334223
     61          1           0      -14.743267    2.619826    7.606986
     62          1           0      -14.351502    1.037759    6.881372
     63          1           0      -15.412651    5.529654    1.465406
     64          1           0      -16.919801    5.439275   -1.101365
     65          1           0      -17.299084    6.653924    1.997173
     66          1           0      -18.186088    5.096771    1.865898
     67          1           0      -18.097595    6.121500    0.528336
     68          1           0      -14.891541    6.887445   -0.704785
     69          1           0      -14.879774    5.994552   -2.221508
     70          1           0      -13.398175    5.641224    0.273829
     71          1           0      -12.754162    5.589291   -1.402250
     72          1           0      -13.632728    4.175325   -0.665006
     73          1           0      -15.577173    1.552364   -5.885239
     74          1           0      -16.030628    3.038243   -4.976610
     75          1           0      -17.311977    1.817951   -5.369798
     76          1           0      -17.357433   -2.932892   -3.473249
     77          1           0      -15.342137   -6.447861   -4.957523
     78          1           0      -15.053844   -6.580937   -3.119342
     79          1           0      -14.009151   -5.704085   -4.253131
     80         12           0       15.807822   -0.690246    0.458942
     81          6           0       16.530360    1.808626   -2.013435
     82          6           0       17.141508    1.429244    2.774901
     83          6           0       15.599162   -3.038537    2.582478
     84          6           0       15.602412   -3.003293   -2.139766
     85          7           0       16.688922    1.330730    0.281238
     86          6           0       16.853968    2.205761   -0.699280
     87          6           0       17.320839    3.611493   -0.235039
     88          6           0       18.010912    3.189655    1.152309
     89          6           0       17.211637    1.922084    1.447391
     90          6           0       19.474459    2.807996    1.004912
     91          6           0       16.119594    4.594078   -0.003654
     92          6           0       16.512430    6.065052    0.150205
     93          1           0       15.617533    7.084654   -0.390202
     94          7           0       15.837530   -0.634400    2.442520
     95          6           0       16.403227    0.311306    3.221557
     96          6           0       16.168565   -0.117257    4.609159
     97          6           0       15.562396   -1.476167    4.584248
     98          6           0       15.664245   -1.784392    3.171907
     99          6           0       16.439290    0.767854    5.790984
    100          6           0       14.997699   -2.358213    5.656303
    101          8           0       14.741835   -3.596136    5.444346
    102          6           0       14.840628   -1.753873    6.987308
    103          7           0       15.836117   -2.761208    0.278286
    104          6           0       15.674207   -3.551292    1.354155
    105          6           0       15.453961   -4.988724    0.947139
    106          6           0       15.259814   -4.960901   -0.640029
    107          6           0       15.500719   -3.457321   -0.898127
    108          6           0       16.577630   -5.961133    1.305171
    109          6           0       13.965047   -5.609202   -1.202145
    110          6           0       12.759087   -4.798216   -0.785805
    111          7           0       15.838036   -0.610876   -1.699953
    112          6           0       15.763703   -1.700833   -2.594705
    113          6           0       15.939713   -1.158220   -3.957424
    114          6           0       16.128714    0.217590   -3.757648
    115          6           0       16.094479    0.508758   -2.367125
    116          6           0       15.960737   -1.919805   -5.159784
    117          6           0       16.360008    1.488245   -4.406209
    118          8           0       16.395470    1.873744   -5.574058
    119          6           0       16.756533    2.556472   -3.298034
    120          6           0       15.943018    3.798672   -3.538138
    121          8           0       14.706909    3.780643   -3.402775
    122          8           0       16.772590    4.849231   -3.674185
    123          6           0       16.012020    6.106570   -3.903201
    124          1           0       17.741682    1.918728    3.542423
    125          1           0       15.416128   -3.871485    3.265250
    126          1           0       15.453544   -3.645733   -3.010287
    127          1           0       18.048213    4.085551   -0.883081
    128          1           0       17.838611    3.937010    1.922463
    129          1           0       19.778517    2.769723   -0.030574
    130          1           0       19.571885    1.832968    1.464123
    131          1           0       20.101277    3.482918    1.594746
    132          1           0       15.691846    4.408914    0.990072
    133          1           0       15.390226    4.494542   -0.783876
    134          1           0       17.544946    6.251534   -0.169303
    135          1           0       16.511755    6.314965    1.213943
    136          1           0       17.036007    1.644099    5.508983
    137          1           0       17.088161    0.204577    6.470357
    138          1           0       15.528553    1.048965    6.324091
    139          1           0       15.806810   -1.400843    7.339925
    140          1           0       14.340532   -2.510712    7.594729
    141          1           0       14.196969   -0.871707    6.897248
    142          1           0       14.556277   -5.386835    1.404056
    143          1           0       16.065090   -5.501727   -1.158574
    144          1           0       16.237885   -6.810886    1.926915
    145          1           0       17.358934   -5.408859    1.810257
    146          1           0       17.108165   -6.386941    0.455221
    147          1           0       13.827893   -6.608062   -0.780698
    148          1           0       13.967633   -5.712874   -2.282066
    149          1           0       12.549833   -5.167143    0.222750
    150          1           0       11.922201   -4.984634   -1.455821
    151          1           0       13.009993   -3.734390   -0.702198
    152          1           0       15.366100   -1.377088   -5.882531
    153          1           0       15.575052   -2.924647   -5.000722
    154          1           0       17.033339   -1.920553   -5.371455
    155          1           0       17.826937    2.743676   -3.391620
    156          1           0       16.391083    6.544648   -4.831696
    157          1           0       16.133789    6.701963   -2.978849
    158          1           0       14.955142    6.019410   -4.126521
 ---------------------------------------------------------------------

 SCF Done:  E(RCAM-B3LYP) =  -4069.81175610     A.U. after   19 cycles

 Excitation energies and oscillator strengths:

 Excited State   1:      Singlet-A      1.6753 eV  740.06 nm  f=0.2143  <S**2>=0.000
     310 -> 316        0.16865
     311 -> 313        0.66678
     312 -> 314       -0.16146
     310 <- 316        0.10167
 This state for optimization and/or second-order correction.
 Total Energy, E(TD-HF/TD-DFT) =  -4069.75018925
 Copying the excited state density for this state as the 1-particle RhoCI density.

 Excited State   2:      Singlet-A      1.6801 eV  737.95 nm  f=0.5632  <S**2>=0.000
     309 -> 315        0.17067
     311 -> 313        0.16142
     312 -> 314        0.66642
     309 <- 315        0.10218

 Excited State   3:      Singlet-A      2.1861 eV  567.16 nm  f=0.0960  <S**2>=0.000
     310 -> 313        0.64216
     311 -> 316       -0.27297

 Excited State   4:      Singlet-A      2.1925 eV  565.49 nm  f=0.1042  <S**2>=0.000
     309 -> 314        0.64039
     312 -> 315       -0.27815

 Excited State   5:      Singlet-A      3.0591 eV  405.30 nm  f=0.0000  <S**2>=0.000
     312 -> 313        0.70711

 The electronic state is 1-A.
 Alpha  occ. eigenvalues --  -46.87754 -46.87661 -19.26345 -19.26238 -19.19157
 Alpha  occ. eigenvalues --  -19.18974 -19.18774 -19.18716 -19.18126 -19.18050
 Alpha  occ. eigenvalues --  -14.42498 -14.42407 -14.41407 -14.41360 -14.39360
 Alpha  occ. eigenvalues --  -14.39353 -14.38600 -14.38544 -10.39087 -10.39034
 Alpha  occ. eigenvalues --  -10.35408 -10.35393 -10.34346 -10.34228 -10.31751
 Alpha  occ. eigenvalues --  -10.31633 -10.31362 -10.31309 -10.31024 -10.30866
 Alpha  occ. eigenvalues --  -10.30527 -10.30465 -10.30398 -10.30361 -10.30165
 Alpha  occ. eigenvalues --  -10.30142 -10.29895 -10.29878 -10.29588 -10.29438
 Alpha  occ. eigenvalues --  -10.29401 -10.29212 -10.28719 -10.28706 -10.28651
 Alpha  occ. eigenvalues --  -10.28493 -10.28405 -10.28322 -10.28141 -10.28075
 Alpha  occ. eigenvalues --  -10.28001 -10.27750 -10.27685 -10.27670 -10.27542
 Alpha  occ. eigenvalues --  -10.27519 -10.27484 -10.27469 -10.27466 -10.27459
 Alpha  occ. eigenvalues --  -10.27441 -10.27408 -10.27378 -10.27361 -10.27114
 Alpha  occ. eigenvalues --  -10.27049 -10.26690 -10.26660 -10.26418 -10.26371
 Alpha  occ. eigenvalues --  -10.26194 -10.26140 -10.26136 -10.26027 -10.25977
 Alpha  occ. eigenvalues --  -10.25935 -10.25850 -10.25800 -10.25402 -10.25397
 Alpha  occ. eigenvalues --  -10.24873 -10.24790 -10.24746 -10.24727 -10.24691
 Alpha  occ. eigenvalues --  -10.24641  -3.16497  -3.16411  -1.91378  -1.91293
 Alpha  occ. eigenvalues --   -1.90965  -1.90882  -1.90807  -1.90718  -1.16639
 Alpha  occ. eigenvalues --   -1.16587  -1.08657  -1.08583  -1.07175  -1.06968
 Alpha  occ. eigenvalues --   -1.06941  -1.06596  -1.04538  -1.04496  -1.03718
 Alpha  occ. eigenvalues --   -1.03664  -1.03191  -1.03039  -1.02369  -1.02112
 Alpha  occ. eigenvalues --   -0.91987  -0.91929  -0.89495  -0.89477  -0.89151
 Alpha  occ. eigenvalues --   -0.89145  -0.88245  -0.88221  -0.87827  -0.87794
 Alpha  occ. eigenvalues --   -0.87684  -0.87630  -0.87232  -0.87121  -0.85000
 Alpha  occ. eigenvalues --   -0.84939  -0.83894  -0.83876  -0.82933  -0.82926
 Alpha  occ. eigenvalues --   -0.82653  -0.82606  -0.81595  -0.81542  -0.80553
 Alpha  occ. eigenvalues --   -0.80442  -0.78755  -0.78636  -0.77176  -0.77145
 Alpha  occ. eigenvalues --   -0.76898  -0.76891  -0.75880  -0.75838  -0.74856
 Alpha  occ. eigenvalues --   -0.74804  -0.72732  -0.72699  -0.71630  -0.71582
 Alpha  occ. eigenvalues --   -0.69864  -0.69757  -0.68830  -0.68827  -0.67602
 Alpha  occ. eigenvalues --   -0.67599  -0.67200  -0.67177  -0.65271  -0.65243
 Alpha  occ. eigenvalues --   -0.64811  -0.64770  -0.64653  -0.64578  -0.64227
 Alpha  occ. eigenvalues --   -0.64204  -0.62276  -0.62253  -0.60400  -0.60341
 Alpha  occ. eigenvalues --   -0.59797  -0.59762  -0.58993  -0.58945  -0.58461
 Alpha  occ. eigenvalues --   -0.58425  -0.57553  -0.57540  -0.57266  -0.57237
 Alpha  occ. eigenvalues --   -0.56267  -0.56204  -0.55934  -0.55885  -0.55478
 Alpha  occ. eigenvalues --   -0.55452  -0.55296  -0.55247  -0.54487  -0.54480
 Alpha  occ. eigenvalues --   -0.53912  -0.53852  -0.53256  -0.53228  -0.53179
 Alpha  occ. eigenvalues --   -0.53141  -0.52901  -0.52871  -0.52714  -0.52669
 Alpha  occ. eigenvalues --   -0.52400  -0.52395  -0.51884  -0.51872  -0.51658
 Alpha  occ. eigenvalues --   -0.51574  -0.51201  -0.51153  -0.50531  -0.50477
 Alpha  occ. eigenvalues --   -0.49989  -0.49980  -0.49877  -0.49868  -0.49488
 Alpha  occ. eigenvalues --   -0.49472  -0.49202  -0.49172  -0.49104  -0.49054
 Alpha  occ. eigenvalues --   -0.48558  -0.48550  -0.48420  -0.48403  -0.48377
 Alpha  occ. eigenvalues --   -0.48340  -0.47652  -0.47595  -0.47255  -0.47119
 Alpha  occ. eigenvalues --   -0.46754  -0.46709  -0.46554  -0.46512  -0.46316
 Alpha  occ. eigenvalues --   -0.46271  -0.46120  -0.46086  -0.45821  -0.45778
 Alpha  occ. eigenvalues --   -0.45210  -0.45160  -0.44534  -0.44514  -0.44476
 Alpha  occ. eigenvalues --   -0.44465  -0.44128  -0.44102  -0.44078  -0.44046
 Alpha  occ. eigenvalues --   -0.43977  -0.43939  -0.43551  -0.43451  -0.43386
 Alpha  occ. eigenvalues --   -0.43343  -0.42984  -0.42929  -0.42900  -0.42655
 Alpha  occ. eigenvalues --   -0.42611  -0.42554  -0.41966  -0.41963  -0.41669
 Alpha  occ. eigenvalues --   -0.41661  -0.41491  -0.41458  -0.41099  -0.40990
 Alpha  occ. eigenvalues --   -0.40826  -0.40782  -0.40723  -0.40698  -0.40529
 Alpha  occ. eigenvalues --   -0.40494  -0.40226  -0.40190  -0.39425  -0.39398
 Alpha  occ. eigenvalues --   -0.38427  -0.38351  -0.37704  -0.37653  -0.37278
 Alpha  occ. eigenvalues --   -0.37266  -0.37220  -0.37199  -0.36768  -0.36668
 Alpha  occ. eigenvalues --   -0.36217  -0.36149  -0.34254  -0.34243  -0.33859
 Alpha  occ. eigenvalues --   -0.33725  -0.33176  -0.33143  -0.31304  -0.31275
 Alpha  occ. eigenvalues --   -0.30993  -0.30973  -0.29985  -0.29955  -0.29407
 Alpha  occ. eigenvalues --   -0.29328  -0.29279  -0.29212  -0.24038  -0.24037
 Alpha  occ. eigenvalues --   -0.21118  -0.21085
 Alpha virt. eigenvalues --   -0.08793  -0.08732  -0.01707  -0.01685  -0.00030
 Alpha virt. eigenvalues --   -0.00016   0.02207   0.02243   0.03169   0.03228
 Alpha virt. eigenvalues --    0.04729   0.04761   0.05144   0.05168   0.06183

 Mulliken charges:
               1
     1  Mg   0.838857
     2  C   -0.002973
     3  C   -0.094111
     4  C   -0.045892
     5  C   -0.063966
     6  N   -0.256794
     7  C   -0.052444
     8  C   -0.014023
     9  C   -0.087016
    10  C    0.046355
    11  C    0.104821
    12  C    0.053464
    13  C   -0.071818
    14  H    0.036198
    15  N   -0.433146
    16  C    0.168416
    17  C   -0.177156
    18  C   -0.004019
    19  C    0.148717
    20  C    0.110178
    21  C    0.012291
    22  O   -0.249657
    23  C    0.062474
    24  N   -0.341173
    25  C    0.041247
    26  C   -0.028160
    27  C   -0.023966
    28  C    0.074854
    29  C    0.076182
    30  C    0.035113
    31  C   -0.004499
    32  N   -0.310486
    33  C    0.080442
    34  C   -0.169689
    35  C    0.008354
    36  C    0.083022
    37  C    0.127302
    38  C    0.046144
    39  O   -0.188417
    40  C   -0.005342
    41  C    0.212875
    42  O   -0.257037
    43  O   -0.304825
    44  C    0.157680
    45  H   -0.017636
    46  H   -0.016866
    47  H   -0.041488
    48  H    0.000925
    49  H   -0.004032
    50  H    0.025456
    51  H    0.016422
    52  H    0.016624
    53  H    0.011235
    54  H    0.044169
    55  H    0.017828
    56  H    0.017944
    57  H    0.005864
    58  H    0.026774
    59  H    0.039573
    60  H    0.037309
    61  H    0.035615
    62  H    0.031544
    63  H    0.016557
    64  H    0.009426
    65  H    0.023175
    66  H    0.012516
    67  H    0.004719
    68  H    0.006333
    69  H    0.004743
    70  H    0.008768
    71  H    0.018214
    72  H    0.029009
    73  H    0.047621
    74  H    0.009123
    75  H    0.045970
    76  H    0.035118
    77  H    0.042931
    78  H    0.046393
    79  H    0.053750
    80  Mg   0.837858
    81  C   -0.016805
    82  C   -0.087792
    83  C   -0.045506
    84  C   -0.064864
    85  N   -0.254562
    86  C   -0.049848
    87  C   -0.015068
    88  C   -0.090509
    89  C    0.045764
    90  C    0.114378
    91  C    0.062514
    92  C   -0.077919
    93  H    0.034976
    94  N   -0.423486
    95  C    0.162931
    96  C   -0.174635
    97  C   -0.007795
    98  C    0.152130
    99  C    0.099374
   100  C    0.015569
   101  O   -0.253202
   102  C    0.061193
   103  N   -0.350062
   104  C    0.037524
   105  C   -0.019841
   106  C   -0.034831
   107  C    0.088917
   108  C    0.073671
   109  C    0.034755
   110  C   -0.007704
   111  N   -0.324136
   112  C    0.078455
   113  C   -0.163093
   114  C    0.002250
   115  C    0.096213
   116  C    0.131476
   117  C    0.042406
   118  O   -0.187822
   119  C    0.000918
   120  C    0.211270
   121  O   -0.250958
   122  O   -0.305655
   123  C    0.152001
   124  H   -0.019670
   125  H   -0.015586
   126  H   -0.040424
   127  H   -0.000657
   128  H   -0.004311
   129  H    0.022448
   130  H    0.014404
   131  H    0.016274
   132  H    0.013934
   133  H    0.037719
   134  H    0.020766
   135  H    0.019591
   136  H    0.008763
   137  H    0.026115
   138  H    0.039813
   139  H    0.038235
   140  H    0.036378
   141  H    0.033930
   142  H    0.014418
   143  H    0.012401
   144  H    0.025127
   145  H    0.011611
   146  H    0.005656
   147  H    0.006254
   148  H    0.003681
   149  H    0.010925
   150  H    0.018032
   151  H    0.030119
   152  H    0.046082
   153  H    0.008543
   154  H    0.046915
   155  H    0.035001
   156  H    0.043927
   157  H    0.049488
   158  H    0.053646
 Sum of Mulliken charges =  -0.00000

 Dipole moment (field-independent basis, Debye):
    X=              0.1514    Y=             -0.3513    Z=              7.4789  Tot=              7.4887
 Quadrupole moment (field-independent basis, Debye-Ang):
   XX=           -376.8921   YY=           -461.9745   ZZ=           -539.6319
   XY=             53.9677   XZ=              2.5291   YZ=              0.6000

 Normal termination of Gaussian 16 at Sun Sep 12 12:21:44 2021.
