 Gaussian 16, Revision A.03,
 Gaussian 16:  ES64L-G16RevA.03 25-Dec-2016

 -----------------------------------
 #p cam-b3lyp/Def2SVP td=(nstates=5)
 -----------------------------------

 --------------------------------
 TDDFT excited states in gaussian
 --------------------------------
 Symbolic Z-matrix:
 Charge =  0 Multiplicity = 1

                         Standard orientation:
 ---------------------------------------------------------------------
 Center     Atomic      Atomic             Coordinates (Angstroms)
 Number     Number       Type             X           Y           Z
 ---------------------------------------------------------------------
      1         12           0        4.952094   -1.081238    0.208598
      2          6           0        5.470602    1.958876   -1.608288
      3          6           0        5.871724    0.617520    3.021349
      4          6           0        4.941298   -3.850732    1.753399
      5          6           0        5.182700   -2.765616   -2.833663
      6          7           0        5.568924    1.019294    0.537132
      7          6           0        5.668827    2.098348   -0.232825
      8          6           0        5.930039    3.407948    0.569727
      9          6           0        6.587531    2.775098    1.877092
     10          6           0        5.945011    1.399980    1.830795
     11          6           0        8.101166    2.613506    1.780659
     12          6           0        4.605949    4.172598    0.907113
     13          6           0        4.789346    5.611765    1.397538
     14          1           0        3.805577    6.613004    1.014045
     15          7           0        4.871713   -1.468277    2.144209
     16          6           0        5.274165   -0.654963    3.150111
     17          6           0        5.008621   -1.394210    4.402980
     18          6           0        4.595674   -2.777384    4.036375
     19          6           0        4.814469   -2.761755    2.612555
     20          6           0        5.106849   -0.772078    5.762043
     21          6           0        4.094873   -3.933594    4.842915
     22          8           0        4.014924   -5.115137    4.361108
     23          6           0        3.779731   -3.660762    6.256878
     24          7           0        5.266144   -3.051318   -0.406048
     25          6           0        5.146315   -4.069577    0.452891
     26          6           0        5.134506   -5.388284   -0.261819
     27          6           0        5.026845   -5.046764   -1.817945
     28          6           0        5.080861   -3.501878   -1.724783
     29          6           0        6.352104   -6.291199   -0.020550
     30          6           0        3.859823   -5.698061   -2.601712
     31          6           0        2.541497   -5.131728   -2.123818
     32          7           0        5.092037   -0.523200   -1.884260
     33          6           0        5.200527   -1.388850   -2.982236
     34          6           0        5.376783   -0.547294   -4.180061
     35          6           0        5.375182    0.757366   -3.690467
     36          6           0        5.234817    0.731324   -2.273459
     37          6           0        5.570850   -1.018596   -5.508462
     38          6           0        5.484117    2.166364   -4.032103
     39          8           0        5.524303    2.802455   -5.086269
     40          6           0        5.672569    2.995318   -2.685571
     41          6           0        4.718906    4.158000   -2.730369
     42          8           0        3.485064    3.975294   -2.690137
     43          8           0        5.403981    5.301153   -2.574112
     44          6           0        4.513149    6.492180   -2.579466
     45          1           0        6.366682    0.981835    3.923697
     46          1           0        4.831743   -4.825242    2.233778
     47          1           0        5.176730   -3.217584   -3.827213
     48          1           0        6.629651    4.098194    0.097999
     49          1           0        6.286034    3.303992    2.781023
     50          1           0        8.463021    2.840816    0.778007
     51          1           0        8.298988    1.570695    2.029466
     52          1           0        8.603434    3.204811    2.546728
     53          1           0        4.151786    3.730814    1.794032
     54          1           0        3.928453    4.166500    0.052545
     55          1           0        5.799075    5.973863    1.201983
     56          1           0        4.705984    5.615466    2.484386
     57          1           0        5.591168    0.202802    5.722182
     58          1           0        5.788033   -1.390090    6.346644
     59          1           0        4.138697   -0.719603    6.260301
     60          1           0        4.672696   -3.288146    6.759192
     61          1           0        3.351548   -4.581075    6.652520
     62          1           0        3.043024   -2.858390    6.305970
     63          1           0        4.272615   -5.985331    0.033315
     64          1           0        5.918403   -5.351902   -2.366297
     65          1           0        6.096063   -7.276640    0.369391
     66          1           0        7.031101   -5.768585    0.652598
     67          1           0        6.987166   -6.444866   -0.892617
     68          1           0        3.832826   -6.771734   -2.418834
     69          1           0        3.927587   -5.546745   -3.679099
     70          1           0        2.323298   -5.733491   -1.242284
     71          1           0        1.772616   -5.262642   -2.885982
     72          1           0        2.648305   -4.098009   -1.794421
     73          1           0        4.943436   -0.397152   -6.147311
     74          1           0        5.306261   -2.072004   -5.597496
     75          1           0        6.639888   -0.844840   -5.630213
     76          1           0        6.712450    3.319532   -2.659992
     77          1           0        4.877279    7.161859   -3.358679
     78          1           0        4.493653    6.869157   -1.556767
     79          1           0        3.488289    6.326085   -2.913250
     80         12           0       -5.591637   -0.202360   -0.169429
     81          6           0       -2.955317    2.056530    0.739574
     82          6           0       -7.784212    2.083973    1.095448
     83          6           0       -7.895233   -2.351941   -0.543866
     84          6           0       -3.194315   -2.728620   -0.298123
     85          7           0       -5.287761    1.777457    0.768783
     86          6           0       -4.245758    2.560208    1.005136
     87          6           0       -4.611483    3.991468    1.481893
     88          6           0       -6.064648    3.678527    2.089546
     89          6           0       -6.424821    2.457693    1.245447
     90          6           0       -6.028546    3.256369    3.548940
     91          6           0       -4.693366    5.014231    0.294779
     92          6           0       -4.740748    6.484892    0.715089
     93          1           0       -4.067881    7.471142   -0.125772
     94          7           0       -7.561822    0.025616   -0.239903
     95          6           0       -8.285545    1.024174    0.308155
     96          6           0       -9.690450    0.722993   -0.007622
     97          6           0       -9.750386   -0.620560   -0.644780
     98          6           0       -8.377205   -1.052720   -0.478360
     99          6           0      -10.804447    1.702196    0.223849
    100          6           0      -10.862845   -1.394345   -1.285004
    101          8           0      -10.744886   -2.640684   -1.559888
    102          6           0      -12.126704   -0.673243   -1.495136
    103          7           0       -5.591576   -2.281343   -0.182595
    104          6           0       -6.721298   -2.971226   -0.418631
    105          6           0       -6.428327   -4.433989   -0.652851
    106          6           0       -4.836590   -4.540797   -0.764791
    107          6           0       -4.463257   -3.070548   -0.474292
    108          6           0       -6.927852   -5.393683    0.426896
    109          6           0       -4.264380   -5.209686   -2.044567
    110          6           0       -4.544783   -4.341613   -3.250057
    111          7           0       -3.438574   -0.312150   -0.026863
    112          6           0       -2.638234   -1.474251   -0.081949
    113          6           0       -1.245150   -1.056142    0.176786
    114          6           0       -1.335589    0.327802    0.388915
    115          6           0       -2.692125    0.739723    0.290704
    116          6           0       -0.115591   -1.919932    0.240671
    117          6           0       -0.593323    1.532214    0.684107
    118          8           0        0.599826    1.813627    0.788703
    119          6           0       -1.624974    2.684868    1.049417
    120          6           0       -1.236034    3.917369    0.279887
    121          8           0       -1.306632    3.935861   -0.961600
    122          8           0       -1.054363    4.935321    1.140788
    123          6           0       -0.677965    6.182812    0.423916
    124          1           0       -8.537561    2.626447    1.667350
    125          1           0       -8.636439   -3.118367   -0.781915
    126          1           0       -2.375624   -3.441408   -0.417913
    127          1           0       -3.964592    4.392623    2.252854
    128          1           0       -6.757413    4.493468    1.896389
    129          1           0       -5.017814    3.121905    3.904560
    130          1           0       -6.574466    2.323346    3.598859
    131          1           0       -6.590580    3.967522    4.161086
    132          1           0       -5.675219    4.924986   -0.187663
    133          1           0       -3.886974    4.861617   -0.395921
    134          1           0       -4.461661    6.622192    1.766862
    135          1           0       -5.777508    6.826572    0.666099
    136          1           0      -10.480198    2.538449    0.855467
    137          1           0      -11.563252    1.187473    0.823129
    138          1           0      -11.262285    2.046818   -0.705827
    139          1           0      -12.498442   -0.310156   -0.539922
    140          1           0      -12.769565   -1.364125   -2.044033
    141          1           0      -11.927035    0.210358   -2.111578
    142          1           0       -6.869490   -4.772773   -1.582210
    143          1           0       -4.409989   -5.140711    0.052492
    144          1           0       -7.601461   -6.179059    0.035096
    145          1           0       -7.424316   -4.815167    1.194603
    146          1           0       -6.147052   -5.902469    0.989650
    147          1           0       -4.762302   -6.165068   -2.227507
    148          1           0       -3.199045   -5.407156   -1.989267
    149          1           0       -5.568801   -4.616962   -3.519607
    150          1           0       -3.849800   -4.569027   -4.055867
    151          1           0       -4.549762   -3.279776   -2.977813
    152          1           0        0.681710   -1.430545   -0.302752
    153          1           0       -0.339801   -2.899191   -0.177123
    154          1           0        0.037982   -1.960511    1.322353
    155          1           0       -1.572605    2.841825    2.127467
    156          1           0        0.263327    6.530624    0.860594
    157          1           0       -1.552828    6.853986    0.512760
    158          1           0       -0.407170    6.097602   -0.621968
 ---------------------------------------------------------------------

 SCF Done:  E(RCAM-B3LYP) =  -4069.81138637     A.U. after   19 cycles

 Excitation energies and oscillator strengths:

 Excited State   1:      Singlet-A      1.6721 eV  741.49 nm  f=0.4280  <S**2>=0.000
     309 -> 315        0.17202
     311 -> 313        0.68358
     309 <- 315        0.10399
 This state for optimization and/or second-order correction.
 Total Energy, E(TD-HF/TD-DFT) =  -4069.74993763
 Copying the excited state density for this state as the 1-particle RhoCI density.

 Excited State   2:      Singlet-A      1.6787 eV  738.55 nm  f=0.3708  <S**2>=0.000
     310 -> 316        0.17256
     312 -> 314        0.68310
     310 <- 316        0.10321

 Excited State   3:      Singlet-A      2.1774 eV  569.41 nm  f=0.0012  <S**2>=0.000
     309 -> 313        0.46685
     310 -> 314       -0.44584
     311 -> 315       -0.19383
     312 -> 316        0.18339

 Excited State   4:      Singlet-A      2.1912 eV  565.82 nm  f=0.1748  <S**2>=0.000
     309 -> 313        0.44211
     310 -> 314        0.46258
     311 -> 315       -0.19089
     312 -> 316       -0.20141

 Excited State   5:      Singlet-A      2.3552 eV  526.42 nm  f=0.0000  <S**2>=0.000
     312 -> 313        0.70531

 The electronic state is 1-A.
 Alpha  occ. eigenvalues --  -46.87563 -46.87189 -19.26144 -19.25679 -19.18856
 Alpha  occ. eigenvalues --  -19.18631 -19.18407 -19.18279 -19.18043 -19.17621
 Alpha  occ. eigenvalues --  -14.42408 -14.41822 -14.41262 -14.40913 -14.39258
 Alpha  occ. eigenvalues --  -14.38811 -14.38500 -14.37988 -10.38823 -10.38362
 Alpha  occ. eigenvalues --  -10.35309 -10.35047 -10.34148 -10.33831 -10.31604
 Alpha  occ. eigenvalues --  -10.31222 -10.31219 -10.30932 -10.30790 -10.30303
 Alpha  occ. eigenvalues --  -10.30291 -10.30265 -10.30047 -10.29982 -10.29967
 Alpha  occ. eigenvalues --  -10.29798 -10.29737 -10.29423 -10.29353 -10.29308
 Alpha  occ. eigenvalues --  -10.29105 -10.28726 -10.28641 -10.28577 -10.28308
 Alpha  occ. eigenvalues --  -10.28096 -10.28074 -10.28043 -10.27925 -10.27775
 Alpha  occ. eigenvalues --  -10.27584 -10.27519 -10.27421 -10.27392 -10.27386
 Alpha  occ. eigenvalues --  -10.27374 -10.27284 -10.27254 -10.27179 -10.27155
 Alpha  occ. eigenvalues --  -10.27115 -10.27061 -10.27028 -10.26941 -10.26816
 Alpha  occ. eigenvalues --  -10.26587 -10.26564 -10.26342 -10.26080 -10.26043
 Alpha  occ. eigenvalues --  -10.26002 -10.25994 -10.25865 -10.25844 -10.25831
 Alpha  occ. eigenvalues --  -10.25734 -10.25516 -10.25394 -10.25314 -10.25134
 Alpha  occ. eigenvalues --  -10.24789 -10.24629 -10.24622 -10.24595 -10.24283
 Alpha  occ. eigenvalues --  -10.24267  -3.16312  -3.15908  -1.91194  -1.90788
 Alpha  occ. eigenvalues --   -1.90783  -1.90620  -1.90377  -1.90221  -1.16418
 Alpha  occ. eigenvalues --   -1.16007  -1.08581  -1.08070  -1.06884  -1.06819
 Alpha  occ. eigenvalues --   -1.06662  -1.05924  -1.04404  -1.03966  -1.03570
 Alpha  occ. eigenvalues --   -1.03210  -1.02943  -1.02673  -1.02016  -1.01852
 Alpha  occ. eigenvalues --   -0.91884  -0.91393  -0.89396  -0.89119  -0.89076
 Alpha  occ. eigenvalues --   -0.88565  -0.88126  -0.87879  -0.87734  -0.87594
 Alpha  occ. eigenvalues --   -0.87348  -0.87098  -0.87036  -0.86791  -0.84916
 Alpha  occ. eigenvalues --   -0.84408  -0.83776  -0.83591  -0.82846  -0.82570
 Alpha  occ. eigenvalues --   -0.82563  -0.82125  -0.81478  -0.81056  -0.80338
 Alpha  occ. eigenvalues --   -0.80065  -0.78557  -0.78292  -0.77069  -0.76801
 Alpha  occ. eigenvalues --   -0.76769  -0.76414  -0.75749  -0.75395  -0.74708
 Alpha  occ. eigenvalues --   -0.74485  -0.72620  -0.72260  -0.71492  -0.71161
 Alpha  occ. eigenvalues --   -0.69662  -0.69607  -0.68743  -0.68335  -0.67508
 Alpha  occ. eigenvalues --   -0.67127  -0.67113  -0.66624  -0.65181  -0.64693
 Alpha  occ. eigenvalues --   -0.64670  -0.64544  -0.64330  -0.64115  -0.64105
 Alpha  occ. eigenvalues --   -0.63815  -0.62135  -0.61762  -0.60251  -0.59971
 Alpha  occ. eigenvalues --   -0.59718  -0.59202  -0.58895  -0.58462  -0.58321
 Alpha  occ. eigenvalues --   -0.57981  -0.57421  -0.57134  -0.57017  -0.56815
 Alpha  occ. eigenvalues --   -0.56117  -0.55802  -0.55750  -0.55426  -0.55355
 Alpha  occ. eigenvalues --   -0.55135  -0.55049  -0.54916  -0.54355  -0.54043
 Alpha  occ. eigenvalues --   -0.53829  -0.53278  -0.53141  -0.53043  -0.52834
 Alpha  occ. eigenvalues --   -0.52765  -0.52699  -0.52588  -0.52410  -0.52304
 Alpha  occ. eigenvalues --   -0.52294  -0.52087  -0.51832  -0.51574  -0.51418
 Alpha  occ. eigenvalues --   -0.51116  -0.51041  -0.50690  -0.50396  -0.50156
 Alpha  occ. eigenvalues --   -0.49900  -0.49787  -0.49685  -0.49431  -0.49399
 Alpha  occ. eigenvalues --   -0.49099  -0.49038  -0.48985  -0.48689  -0.48562
 Alpha  occ. eigenvalues --   -0.48453  -0.48283  -0.48253  -0.48110  -0.48008
 Alpha  occ. eigenvalues --   -0.47963  -0.47500  -0.47216  -0.47022  -0.46819
 Alpha  occ. eigenvalues --   -0.46616  -0.46468  -0.46325  -0.46173  -0.45976
 Alpha  occ. eigenvalues --   -0.45962  -0.45868  -0.45727  -0.45659  -0.45311
 Alpha  occ. eigenvalues --   -0.45115  -0.44803  -0.44429  -0.44408  -0.44098
 Alpha  occ. eigenvalues --   -0.44057  -0.44048  -0.43984  -0.43857  -0.43731
 Alpha  occ. eigenvalues --   -0.43559  -0.43500  -0.43436  -0.43291  -0.42985
 Alpha  occ. eigenvalues --   -0.42864  -0.42819  -0.42746  -0.42534  -0.42461
 Alpha  occ. eigenvalues --   -0.42329  -0.42110  -0.41869  -0.41573  -0.41572
 Alpha  occ. eigenvalues --   -0.41372  -0.41176  -0.40991  -0.40905  -0.40641
 Alpha  occ. eigenvalues --   -0.40636  -0.40616  -0.40413  -0.40402  -0.40381
 Alpha  occ. eigenvalues --   -0.40142  -0.40114  -0.39538  -0.39328  -0.39163
 Alpha  occ. eigenvalues --   -0.38260  -0.38052  -0.37564  -0.37173  -0.37167
 Alpha  occ. eigenvalues --   -0.37108  -0.36857  -0.36661  -0.36564  -0.36147
 Alpha  occ. eigenvalues --   -0.36069  -0.35622  -0.34157  -0.33715  -0.33592
 Alpha  occ. eigenvalues --   -0.33061  -0.33055  -0.32614  -0.31189  -0.30936
 Alpha  occ. eigenvalues --   -0.30874  -0.30473  -0.29895  -0.29473  -0.29238
 Alpha  occ. eigenvalues --   -0.29121  -0.28916  -0.28763  -0.23937  -0.23494
 Alpha  occ. eigenvalues --   -0.21025  -0.20578
 Alpha virt. eigenvalues --   -0.08700  -0.08227  -0.01590  -0.01211   0.00057
 Alpha virt. eigenvalues --    0.00464   0.02291   0.02730   0.03365   0.03826
 Alpha virt. eigenvalues --    0.04804   0.05089   0.05429   0.05774   0.06109

 Mulliken charges:
               1
     1  Mg   0.836418
     2  C    0.003950
     3  C   -0.092503
     4  C   -0.047423
     5  C   -0.065315
     6  N   -0.255833
     7  C   -0.046231
     8  C   -0.017694
     9  C   -0.088552
    10  C    0.051438
    11  C    0.105277
    12  C    0.056279
    13  C   -0.069380
    14  H    0.027307
    15  N   -0.431887
    16  C    0.171914
    17  C   -0.177482
    18  C   -0.005233
    19  C    0.148359
    20  C    0.110856
    21  C    0.010772
    22  O   -0.251867
    23  C    0.062883
    24  N   -0.339887
    25  C    0.040504
    26  C   -0.027736
    27  C   -0.023820
    28  C    0.073828
    29  C    0.076678
    30  C    0.036334
    31  C   -0.006619
    32  N   -0.310205
    33  C    0.080349
    34  C   -0.170333
    35  C    0.007566
    36  C    0.085601
    37  C    0.127315
    38  C    0.048012
    39  O   -0.189457
    40  C   -0.007450
    41  C    0.210648
    42  O   -0.248673
    43  O   -0.306095
    44  C    0.158505
    45  H   -0.019321
    46  H   -0.019277
    47  H   -0.043847
    48  H   -0.001279
    49  H   -0.004776
    50  H    0.024656
    51  H    0.015605
    52  H    0.014926
    53  H    0.019065
    54  H    0.051235
    55  H    0.015789
    56  H    0.017112
    57  H    0.005648
    58  H    0.025107
    59  H    0.038799
    60  H    0.037012
    61  H    0.033759
    62  H    0.031211
    63  H    0.014259
    64  H    0.008863
    65  H    0.021755
    66  H    0.012816
    67  H    0.003919
    68  H    0.005112
    69  H    0.004715
    70  H    0.006937
    71  H    0.015566
    72  H    0.030531
    73  H    0.047542
    74  H    0.007750
    75  H    0.044906
    76  H    0.033443
    77  H    0.041067
    78  H    0.043999
    79  H    0.053842
    80  Mg   0.838529
    81  C   -0.016252
    82  C   -0.087894
    83  C   -0.045576
    84  C   -0.065227
    85  N   -0.254460
    86  C   -0.050034
    87  C   -0.014973
    88  C   -0.090496
    89  C    0.045773
    90  C    0.114584
    91  C    0.062568
    92  C   -0.077615
    93  H    0.035087
    94  N   -0.423395
    95  C    0.162965
    96  C   -0.174785
    97  C   -0.007874
    98  C    0.152129
    99  C    0.099471
   100  C    0.015556
   101  O   -0.253316
   102  C    0.061189
   103  N   -0.350146
   104  C    0.037536
   105  C   -0.019821
   106  C   -0.034862
   107  C    0.088809
   108  C    0.073673
   109  C    0.034628
   110  C   -0.007570
   111  N   -0.324355
   112  C    0.079268
   113  C   -0.163112
   114  C    0.002117
   115  C    0.097421
   116  C    0.122783
   117  C    0.047294
   118  O   -0.185547
   119  C   -0.000817
   120  C    0.213502
   121  O   -0.245535
   122  O   -0.307908
   123  C    0.151751
   124  H   -0.020065
   125  H   -0.015730
   126  H   -0.039906
   127  H   -0.001446
   128  H   -0.004453
   129  H    0.021657
   130  H    0.014354
   131  H    0.015797
   132  H    0.014009
   133  H    0.039096
   134  H    0.019852
   135  H    0.019298
   136  H    0.008539
   137  H    0.025834
   138  H    0.039763
   139  H    0.038057
   140  H    0.036246
   141  H    0.033988
   142  H    0.014327
   143  H    0.012836
   144  H    0.024934
   145  H    0.011423
   146  H    0.005845
   147  H    0.005936
   148  H    0.003759
   149  H    0.010773
   150  H    0.017673
   151  H    0.030710
   152  H    0.050663
   153  H    0.012110
   154  H    0.050730
   155  H    0.032862
   156  H    0.039702
   157  H    0.048003
   158  H    0.058200
 Sum of Mulliken charges =  -0.00000

 Dipole moment (field-independent basis, Debye):
    X=             -1.9511    Y=              2.4350    Z=              6.0223  Tot=              6.7826
 Quadrupole moment (field-independent basis, Debye-Ang):
   XX=           -478.8031   YY=           -476.6480   ZZ=           -513.7725
   XY=            -29.0085   XZ=              6.7401   YZ=             41.6897

 Normal termination of Gaussian 16 at Fri Sep 10 18:21:26 2021.
