 Gaussian 16, Revision A.03,
 Gaussian 16:  ES64L-G16RevA.03 25-Dec-2016

 -----------------------------------
 #p cam-b3lyp/Def2SVP td=(nstates=5)
 -----------------------------------

 --------------------------------
 TDDFT excited states in gaussian
 --------------------------------
 Symbolic Z-matrix:
 Charge =  0 Multiplicity = 1

                         Standard orientation:
 ---------------------------------------------------------------------
 Center     Atomic      Atomic             Coordinates (Angstroms)
 Number     Number       Type             X           Y           Z
 ---------------------------------------------------------------------
      1         12           0       -4.485424   -0.412019    0.116410
      2          6           0       -4.390531    3.159735    0.330376
      3          6           0       -5.360155   -0.043826   -3.161141
      4          6           0       -5.017753   -3.536757    0.020189
      5          6           0       -4.723345   -0.466603    3.592914
      6          7           0       -4.801706    1.382032   -1.141362
      7          6           0       -4.675096    2.692083   -0.954525
      8          6           0       -4.798711    3.518489   -2.269495
      9          6           0       -5.647141    2.484796   -3.137622
     10          6           0       -5.218446    1.192918   -2.464424
     11          6           0       -7.155125    2.646377   -2.975203
     12          6           0       -3.405569    3.807630   -2.923163
     13          6           0       -3.407870    4.875553   -4.020837
     14          1           0       -2.256381    5.756749   -4.142965
     15          7           0       -4.620104   -1.641885   -1.423765
     16          6           0       -4.974275   -1.317595   -2.690526
     17          6           0       -4.925031   -2.577716   -3.462763
     18          6           0       -4.698033   -3.692108   -2.501151
     19          6           0       -4.796982   -2.995448   -1.244071
     20          6           0       -5.036735   -2.632868   -4.955489
     21          6           0       -4.444276   -5.154888   -2.685581
     22          8           0       -4.505608   -5.983656   -1.714007
     23          6           0       -4.205971   -5.611256   -4.066878
     24          7           0       -5.043576   -1.802835    1.569590
     25          6           0       -5.148496   -3.103461    1.275739
     26          6           0       -5.279026   -3.934948    2.517323
     27          6           0       -4.996419   -2.949148    3.741286
     28          6           0       -4.823380   -1.630798    2.947383
     29          6           0       -6.634601   -4.625614    2.720807
     30          6           0       -3.882285   -3.363360    4.735043
     31          6           0       -2.536100   -3.310405    4.047963
     32          7           0       -4.370938    1.048915    1.717539
     33          6           0       -4.520690    0.808087    3.090947
     34          6           0       -4.470905    2.117454    3.767074
     35          6           0       -4.311225    3.036418    2.731771
     36          6           0       -4.290576    2.347169    1.485657
     37          6           0       -4.626817    2.340692    5.163602
     38          6           0       -4.177964    4.442434    2.386492
     39          8           0       -4.036732    5.483644    3.029476
     40          6           0       -4.346264    4.589325    0.809811
     41          6           0       -3.227188    5.463338    0.312739
     42          8           0       -2.042445    5.073988    0.359176
     43          8           0       -3.741728    6.509747   -0.351203
     44          6           0       -2.683432    7.401431   -0.896239
     45          1           0       -5.865088   -0.049493   -4.129104
     46          1           0       -5.095801   -4.625728    0.042260
     47          1           0       -4.706119   -0.412521    4.682974
     48          1           0       -5.345705    4.455933   -2.167424
     49          1           0       -5.342612    2.485980   -4.184036
     50          1           0       -7.396789    3.361751   -2.189226
     51          1           0       -7.527760    1.655289   -2.715628
     52          1           0       -7.621982    2.902300   -3.926689
     53          1           0       -3.096122    2.941316   -3.507803
     54          1           0       -2.670431    4.073713   -2.162835
     55          1           0       -4.332207    5.453860   -4.012346
     56          1           0       -3.412390    4.371768   -4.987470
     57          1           0       -5.363207   -1.679114   -5.368181
     58          1           0       -5.848267   -3.321843   -5.188811
     59          1           0       -4.114928   -2.978658   -5.423500
     60          1           0       -5.069676   -5.360139   -4.682917
     61          1           0       -3.955099   -6.668968   -3.995048
     62          1           0       -3.362692   -5.057826   -4.481057
     63          1           0       -4.543879   -4.738597    2.528846
     64          1           0       -5.876971   -2.814771    4.369972
     65          1           0       -6.562724   -5.708230    2.827959
     66          1           0       -7.278513   -4.357385    1.883716
     67          1           0       -7.213554   -4.255905    3.566706
     68          1           0       -4.032802   -4.390053    5.066994
     69          1           0       -3.839704   -2.730939    5.621881
     70          1           0       -2.482903   -4.273805    3.542136
     71          1           0       -1.737227   -3.211044    4.783585
     72          1           0       -2.511365   -2.537243    3.279786
     73          1           0       -3.863389    3.066472    5.443587
     74          1           0       -4.518367    1.414315    5.727221
     75          1           0       -5.644003    2.730949    5.193387
     76          1           0       -5.323783    5.039401    0.639490
     77          1           0       -2.878339    8.402840   -0.512280
     78          1           0       -2.689252    7.264176   -1.977688
     79          1           0       -1.672058    7.231967   -0.525101
     80         12           0        4.487255   -1.153956    0.035495
     81          6           0        4.742811    2.419718    0.241978
     82          6           0        3.764498   -0.761567   -3.274828
     83          6           0        3.813716   -4.252307   -0.082757
     84          6           0        4.097295   -1.187197    3.498524
     85          7           0        4.306874    0.646667   -1.236296
     86          6           0        4.486295    1.947358   -1.062057
     87          6           0        4.464670    2.780722   -2.371486
     88          6           0        3.596567    1.779990   -3.279117
     89          6           0        3.932376    0.463560   -2.581308
     90          6           0        2.098876    2.011599   -3.166818
     91          6           0        5.900463    2.996538   -2.966407
     92          6           0        5.987771    4.055479   -4.067669
     93          1           0        7.190478    4.879929   -4.146736
     94          7           0        4.361213   -2.382421   -1.518060
     95          6           0        4.081367   -2.051866   -2.796222
     96          6           0        4.086122   -3.315817   -3.548936
     97          6           0        4.228815   -4.437462   -2.581330
     98          6           0        4.116762   -3.719728   -1.327384
     99          6           0        4.042622   -3.370046   -5.048465
    100          6           0        4.419995   -5.913679   -2.755819
    101          8           0        4.280617   -6.730888   -1.778294
    102          6           0        4.683254   -6.383465   -4.123840
    103          7           0        3.812123   -2.505606    1.463637
    104          6           0        3.651211   -3.806234    1.163005
    105          6           0        3.426030   -4.630151    2.408339
    106          6           0        3.711168   -3.643089    3.633897
    107          6           0        3.976648   -2.338232    2.851430
    108          6           0        2.032510   -5.239710    2.559728
    109          6           0        4.762860   -4.104920    4.679526
    110          6           0        6.137735   -4.131735    4.051508
    111          7           0        4.609847    0.300436    1.628545
    112          6           0        4.385601    0.078780    3.005015
    113          6           0        4.471167    1.391618    3.677002
    114          6           0        4.718400    2.296259    2.633453
    115          6           0        4.762321    1.599297    1.395793
    116          6           0        4.279103    1.628565    5.067358
    117          6           0        4.941637    3.683743    2.296178
    118          8           0        5.098846    4.719942    2.940624
    119          6           0        4.841654    3.842534    0.717828
    120          6           0        6.020658    4.655084    0.257140
    121          8           0        7.176677    4.209903    0.366818
    122          8           0        5.577856    5.722961   -0.431294
    123          6           0        6.710928    6.553944   -0.918552
    124          1           0        3.307559   -0.739093   -4.264565
    125          1           0        3.682078   -5.336400   -0.053155
    126          1           0        4.084536   -1.126356    4.588847
    127          1           0        3.965025    3.738744   -2.292019
    128          1           0        3.952467    1.768801   -4.306043
    129          1           0        1.859384    2.735647   -2.402264
    130          1           0        1.669686    1.048455   -2.923537
    131          1           0        1.686078    2.288031   -4.141255
    132          1           0        6.188344    2.105601   -3.539212
    133          1           0        6.604470    3.224043   -2.189718
    134          1           0        5.088734    4.682351   -4.108936
    135          1           0        6.005878    3.548794   -5.035642
    136          1           0        3.773215   -2.397477   -5.478506
    137          1           0        3.209798   -4.027461   -5.320626
    138          1           0        4.962748   -3.767162   -5.482461
    139          1           0        3.860766   -6.088987   -4.771348
    140          1           0        4.880246   -7.453390   -4.032572
    141          1           0        5.578232   -5.876615   -4.501657
    142          1           0        4.122146   -5.458608    2.455042
    143          1           0        2.807367   -3.469885    4.236368
    144          1           0        2.047367   -6.340279    2.672003
    145          1           0        1.439451   -4.953013    1.701465
    146          1           0        1.444597   -4.847984    3.388055
    147          1           0        4.550265   -5.126263    5.004828
    148          1           0        4.790420   -3.483082    5.568086
    149          1           0        6.159529   -5.102160    3.546634
    150          1           0        6.909386   -4.067116    4.815972
    151          1           0        6.233893   -3.357375    3.281603
    152          1           0        5.056607    2.314380    5.376631
    153          1           0        4.315085    0.702410    5.637198
    154          1           0        3.276277    2.063802    5.054330
    155          1           0        3.893805    4.335104    0.497522
    156          1           0        6.545780    7.569535   -0.545730
    157          1           0        6.731207    6.417363   -2.016135
    158          1           0        7.696279    6.340401   -0.521160
 ---------------------------------------------------------------------

 SCF Done:  E(RCAM-B3LYP) =  -4069.81127966     A.U. after   19 cycles

 Excitation energies and oscillator strengths:

 Excited State   1:      Singlet-A      1.6476 eV  752.53 nm  f=0.0013  <S**2>=0.000
     309 -> 315       -0.11398
     310 -> 316        0.12180
     311 -> 313       -0.46768
     312 -> 314        0.50418
 This state for optimization and/or second-order correction.
 Total Energy, E(TD-HF/TD-DFT) =  -4069.75073237
 Copying the excited state density for this state as the 1-particle RhoCI density.

 Excited State   2:      Singlet-A      1.7045 eV  727.39 nm  f=0.6975  <S**2>=0.000
     309 -> 315        0.13370
     310 -> 316        0.12292
     311 -> 313        0.50151
     312 -> 314        0.46526

 Excited State   3:      Singlet-A      2.1803 eV  568.67 nm  f=0.0138  <S**2>=0.000
     309 -> 313       -0.31694
     310 -> 314        0.56186
     311 -> 315        0.13092
     312 -> 316       -0.23378

 Excited State   4:      Singlet-A      2.1963 eV  564.51 nm  f=0.1601  <S**2>=0.000
     309 -> 313        0.55686
     310 -> 314        0.31220
     311 -> 315       -0.24598
     312 -> 316       -0.13933

 Excited State   5:      Singlet-A      2.3521 eV  527.13 nm  f=0.0000  <S**2>=0.000
     312 -> 313        0.70710

 The electronic state is 1-A.
 Alpha  occ. eigenvalues --  -46.87889 -46.87433 -19.26357 -19.26106 -19.19096
 Alpha  occ. eigenvalues --  -19.18915 -19.18875 -19.18529 -19.18222 -19.17754
 Alpha  occ. eigenvalues --  -14.42551 -14.42271 -14.41543 -14.41135 -14.39493
 Alpha  occ. eigenvalues --  -14.39130 -14.38672 -14.38358 -10.39157 -10.38835
 Alpha  occ. eigenvalues --  -10.35510 -10.35211 -10.34445 -10.33926 -10.31746
 Alpha  occ. eigenvalues --  -10.31556 -10.31507 -10.31067 -10.31016 -10.30802
 Alpha  occ. eigenvalues --  -10.30662 -10.30588 -10.30303 -10.30159 -10.30119
 Alpha  occ. eigenvalues --  -10.30004 -10.29949 -10.29714 -10.29657 -10.29344
 Alpha  occ. eigenvalues --  -10.29228 -10.29172 -10.28893 -10.28766 -10.28522
 Alpha  occ. eigenvalues --  -10.28492 -10.28453 -10.28248 -10.28165 -10.27915
 Alpha  occ. eigenvalues --  -10.27873 -10.27829 -10.27763 -10.27670 -10.27609
 Alpha  occ. eigenvalues --  -10.27603 -10.27535 -10.27496 -10.27458 -10.27352
 Alpha  occ. eigenvalues --  -10.27347 -10.27248 -10.27243 -10.27232 -10.27182
 Alpha  occ. eigenvalues --  -10.26911 -10.26725 -10.26516 -10.26482 -10.26346
 Alpha  occ. eigenvalues --  -10.26317 -10.26290 -10.26114 -10.25997 -10.25896
 Alpha  occ. eigenvalues --  -10.25748 -10.25721 -10.25571 -10.25506 -10.25193
 Alpha  occ. eigenvalues --  -10.24909 -10.24872 -10.24861 -10.24620 -10.24591
 Alpha  occ. eigenvalues --  -10.24459  -3.16631  -3.16183  -1.91513  -1.91100
 Alpha  occ. eigenvalues --   -1.91065  -1.90941  -1.90654  -1.90490  -1.16706
 Alpha  occ. eigenvalues --   -1.16399  -1.08677  -1.08353  -1.07273  -1.06784
 Alpha  occ. eigenvalues --   -1.06717  -1.06698  -1.04682  -1.04264  -1.03854
 Alpha  occ. eigenvalues --   -1.03436  -1.03321  -1.02812  -1.02500  -1.01879
 Alpha  occ. eigenvalues --   -0.92058  -0.91729  -0.89621  -0.89324  -0.89289
 Alpha  occ. eigenvalues --   -0.88930  -0.88385  -0.88022  -0.87946  -0.87783
 Alpha  occ. eigenvalues --   -0.87542  -0.87468  -0.87365  -0.86938  -0.85111
 Alpha  occ. eigenvalues --   -0.84789  -0.84039  -0.83680  -0.83056  -0.82766
 Alpha  occ. eigenvalues --   -0.82760  -0.82446  -0.81672  -0.81365  -0.80688
 Alpha  occ. eigenvalues --   -0.80221  -0.78888  -0.78430  -0.77331  -0.77051
 Alpha  occ. eigenvalues --   -0.76939  -0.76686  -0.76024  -0.75608  -0.74990
 Alpha  occ. eigenvalues --   -0.74592  -0.72865  -0.72471  -0.71766  -0.71351
 Alpha  occ. eigenvalues --   -0.70024  -0.69580  -0.68991  -0.68618  -0.67730
 Alpha  occ. eigenvalues --   -0.67380  -0.67357  -0.67015  -0.65409  -0.65049
 Alpha  occ. eigenvalues --   -0.64946  -0.64724  -0.64549  -0.64435  -0.64369
 Alpha  occ. eigenvalues --   -0.64001  -0.62379  -0.62049  -0.60532  -0.60144
 Alpha  occ. eigenvalues --   -0.59921  -0.59570  -0.59079  -0.58766  -0.58593
 Alpha  occ. eigenvalues --   -0.58195  -0.57661  -0.57397  -0.57279  -0.57017
 Alpha  occ. eigenvalues --   -0.56398  -0.56071  -0.55985  -0.55666  -0.55608
 Alpha  occ. eigenvalues --   -0.55431  -0.55246  -0.55034  -0.54615  -0.54277
 Alpha  occ. eigenvalues --   -0.54030  -0.53698  -0.53389  -0.53329  -0.53022
 Alpha  occ. eigenvalues --   -0.53011  -0.52931  -0.52862  -0.52689  -0.52558
 Alpha  occ. eigenvalues --   -0.52495  -0.52230  -0.51982  -0.51739  -0.51615
 Alpha  occ. eigenvalues --   -0.51458  -0.51288  -0.50969  -0.50673  -0.50323
 Alpha  occ. eigenvalues --   -0.50143  -0.50016  -0.49780  -0.49674  -0.49619
 Alpha  occ. eigenvalues --   -0.49303  -0.49286  -0.49206  -0.48973  -0.48861
 Alpha  occ. eigenvalues --   -0.48681  -0.48545  -0.48519  -0.48327  -0.48172
 Alpha  occ. eigenvalues --   -0.48132  -0.47798  -0.47394  -0.47389  -0.46927
 Alpha  occ. eigenvalues --   -0.46902  -0.46684  -0.46501  -0.46451  -0.46351
 Alpha  occ. eigenvalues --   -0.46246  -0.46064  -0.45902  -0.45854  -0.45577
 Alpha  occ. eigenvalues --   -0.45295  -0.44996  -0.44659  -0.44621  -0.44291
 Alpha  occ. eigenvalues --   -0.44264  -0.44248  -0.44205  -0.44102  -0.43903
 Alpha  occ. eigenvalues --   -0.43884  -0.43721  -0.43579  -0.43497  -0.43331
 Alpha  occ. eigenvalues --   -0.43165  -0.43118  -0.42792  -0.42749  -0.42704
 Alpha  occ. eigenvalues --   -0.42658  -0.42364  -0.42125  -0.41793  -0.41768
 Alpha  occ. eigenvalues --   -0.41663  -0.41418  -0.41257  -0.41238  -0.40999
 Alpha  occ. eigenvalues --   -0.40916  -0.40763  -0.40675  -0.40541  -0.40505
 Alpha  occ. eigenvalues --   -0.40400  -0.40290  -0.40044  -0.39568  -0.39254
 Alpha  occ. eigenvalues --   -0.38578  -0.38154  -0.37905  -0.37466  -0.37422
 Alpha  occ. eigenvalues --   -0.37385  -0.37062  -0.36983  -0.36796  -0.36542
 Alpha  occ. eigenvalues --   -0.36288  -0.36003  -0.34377  -0.34023  -0.33849
 Alpha  occ. eigenvalues --   -0.33617  -0.33276  -0.32948  -0.31406  -0.31126
 Alpha  occ. eigenvalues --   -0.31086  -0.30742  -0.30082  -0.29655  -0.29531
 Alpha  occ. eigenvalues --   -0.29398  -0.29112  -0.28953  -0.24173  -0.23800
 Alpha  occ. eigenvalues --   -0.21221  -0.20891
 Alpha virt. eigenvalues --   -0.08861  -0.08561  -0.01840  -0.01464  -0.00140
 Alpha virt. eigenvalues --    0.00184   0.02129   0.02464   0.02863   0.03499
 Alpha virt. eigenvalues --    0.04593   0.04950   0.05021   0.05421   0.05996

 Mulliken charges:
               1
     1  Mg   0.838777
     2  C   -0.003198
     3  C   -0.095059
     4  C   -0.045397
     5  C   -0.063928
     6  N   -0.256646
     7  C   -0.052858
     8  C   -0.013797
     9  C   -0.086864
    10  C    0.046000
    11  C    0.104797
    12  C    0.053786
    13  C   -0.071297
    14  H    0.034599
    15  N   -0.433178
    16  C    0.168267
    17  C   -0.177697
    18  C   -0.003760
    19  C    0.148886
    20  C    0.110334
    21  C    0.013009
    22  O   -0.248746
    23  C    0.062500
    24  N   -0.341006
    25  C    0.041038
    26  C   -0.028379
    27  C   -0.024019
    28  C    0.074723
    29  C    0.076054
    30  C    0.035262
    31  C   -0.006168
    32  N   -0.310609
    33  C    0.080577
    34  C   -0.169462
    35  C    0.008812
    36  C    0.083174
    37  C    0.127169
    38  C    0.046627
    39  O   -0.187191
    40  C   -0.005607
    41  C    0.213397
    42  O   -0.257433
    43  O   -0.304805
    44  C    0.157239
    45  H   -0.017807
    46  H   -0.016416
    47  H   -0.041416
    48  H    0.001342
    49  H   -0.004793
    50  H    0.025763
    51  H    0.016724
    52  H    0.016614
    53  H    0.009764
    54  H    0.043539
    55  H    0.018875
    56  H    0.017172
    57  H    0.005387
    58  H    0.027147
    59  H    0.038241
    60  H    0.037055
    61  H    0.036537
    62  H    0.030533
    63  H    0.016858
    64  H    0.009788
    65  H    0.023541
    66  H    0.012677
    67  H    0.004857
    68  H    0.006524
    69  H    0.004707
    70  H    0.009869
    71  H    0.016561
    72  H    0.030092
    73  H    0.048393
    74  H    0.008915
    75  H    0.046264
    76  H    0.035310
    77  H    0.043881
    78  H    0.045439
    79  H    0.054396
    80  Mg   0.837785
    81  C   -0.015687
    82  C   -0.088203
    83  C   -0.045411
    84  C   -0.064948
    85  N   -0.254562
    86  C   -0.048277
    87  C   -0.015128
    88  C   -0.090937
    89  C    0.046090
    90  C    0.113353
    91  C    0.062655
    92  C   -0.077268
    93  H    0.034167
    94  N   -0.423344
    95  C    0.162741
    96  C   -0.175774
    97  C   -0.008069
    98  C    0.151670
    99  C    0.099991
   100  C    0.015224
   101  O   -0.253229
   102  C    0.061467
   103  N   -0.349973
   104  C    0.037217
   105  C   -0.019911
   106  C   -0.034580
   107  C    0.089274
   108  C    0.073265
   109  C    0.034805
   110  C   -0.007526
   111  N   -0.324608
   112  C    0.079348
   113  C   -0.162211
   114  C    0.004101
   115  C    0.096127
   116  C    0.130786
   117  C    0.044517
   118  O   -0.186685
   119  C   -0.000212
   120  C    0.210712
   121  O   -0.251845
   122  O   -0.304922
   123  C    0.152299
   124  H   -0.021502
   125  H   -0.015691
   126  H   -0.040915
   127  H    0.000557
   128  H   -0.005904
   129  H    0.029228
   130  H    0.013643
   131  H    0.012902
   132  H    0.013426
   133  H    0.037657
   134  H    0.020428
   135  H    0.018741
   136  H    0.007624
   137  H    0.024130
   138  H    0.039143
   139  H    0.037231
   140  H    0.035986
   141  H    0.033540
   142  H    0.013951
   143  H    0.011505
   144  H    0.024748
   145  H    0.013218
   146  H    0.005030
   147  H    0.005648
   148  H    0.003259
   149  H    0.010804
   150  H    0.017523
   151  H    0.030423
   152  H    0.045684
   153  H    0.007333
   154  H    0.050092
   155  H    0.040483
   156  H    0.043725
   157  H    0.048684
   158  H    0.053122
 Sum of Mulliken charges =  -0.00000

 Dipole moment (field-independent basis, Debye):
    X=             -4.2824    Y=             -1.6598    Z=             -7.3678  Tot=              8.6821
 Quadrupole moment (field-independent basis, Debye-Ang):
   XX=           -518.3003   YY=           -550.2952   ZZ=           -448.5792
   XY=             -6.6883   XZ=             -5.7860   YZ=            -47.6354

 Normal termination of Gaussian 16 at Fri Sep 10 05:10:10 2021.
