 Gaussian 16, Revision A.03,
 Gaussian 16:  ES64L-G16RevA.03 25-Dec-2016

 -----------------------------------
 #p cam-b3lyp/Def2SVP td=(nstates=5)
 -----------------------------------

 --------------------------------
 TDDFT excited states in gaussian
 --------------------------------
 Symbolic Z-matrix:
 Charge =  0 Multiplicity = 1

                         Standard orientation:
 ---------------------------------------------------------------------
 Center     Atomic      Atomic             Coordinates (Angstroms)
 Number     Number       Type             X           Y           Z
 ---------------------------------------------------------------------
      1         12           0       -7.847159    0.676382    0.358096
      2          6           0       -8.162417   -2.281989   -1.632098
      3          6           0       -8.577671   -1.253411    3.075690
      4          6           0       -8.022156    3.341585    2.067684
      5          6           0       -8.266474    2.514842   -2.572757
      6          7           0       -8.292305   -1.482002    0.567552
      7          6           0       -8.322739   -2.517993   -0.264895
      8          6           0       -8.465828   -3.889398    0.460465
      9          6           0       -9.145324   -3.388996    1.813196
     10          6           0       -8.612724   -1.967207    1.841065
     11          6           0      -10.668515   -3.341746    1.748695
     12          6           0       -7.080037   -4.565996    0.731628
     13          6           0       -7.141478   -6.041690    1.136482
     14          1           0       -6.090354   -6.937777    0.678755
     15          7           0       -7.759967    0.953047    2.312247
     16          6           0       -8.078541    0.052316    3.272705
     17          6           0       -7.847292    0.734564    4.564116
     18          6           0       -7.550305    2.165280    4.276116
     19          6           0       -7.794526    2.216947    2.857291
     20          6           0       -7.870708    0.027105    5.884231
     21          6           0       -7.125560    3.307471    5.143942
     22          8           0       -7.147029    4.518134    4.733566
     23          6           0       -6.763053    2.976926    6.534039
     24          7           0       -8.325249    2.648570   -0.131330
     25          6           0       -8.268514    3.620354    0.785950
     26          6           0       -8.373047    4.975958    0.152429
     27          6           0       -8.269053    4.736897   -1.422940
     28          6           0       -8.200936    3.189761   -1.422863
     29          6           0       -9.652331    5.764213    0.465637
     30          6           0       -7.171498    5.523471   -2.182606
     31          6           0       -5.804180    5.035434   -1.759099
     32          7           0       -7.983440    0.234185   -1.762502
     33          6           0       -8.180004    1.152198   -2.804273
     34          6           0       -8.313238    0.371912   -4.048247
     35          6           0       -8.200755   -0.955304   -3.638746
     36          6           0       -8.035651   -1.002385   -2.224951
     37          6           0       -8.568855    0.904423   -5.342667
     38          6           0       -8.206300   -2.345750   -4.063583
     39          8           0       -8.217125   -2.919373   -5.153690
     40          6           0       -8.303804   -3.265388   -2.767209
     41          6           0       -7.263628   -4.344595   -2.896254
     42          8           0       -6.047192   -4.067940   -2.862909
     43          8           0       -7.854578   -5.545427   -2.799693
     44          6           0       -6.874068   -6.660132   -2.890179
     45          1           0       -9.025369   -1.708480    3.961365
     46          1           0       -7.979530    4.291481    2.604637
     47          1           0       -8.314762    3.024014   -3.537052
     48          1           0       -9.118560   -4.603424   -0.042061
     49          1           0       -8.786295   -3.945176    2.678924
     50          1           0      -11.030782   -3.536984    0.739455
     51          1           0      -10.942038   -2.334367    2.063125
     52          1           0      -11.108459   -4.015189    2.484697
     53          1           0       -6.644664   -4.143191    1.637026
     54          1           0       -6.421606   -4.455849   -0.130731
     55          1           0       -8.123550   -6.469987    0.933988
     56          1           0       -7.037222   -6.103275    2.219782
     57          1           0       -8.278404   -0.978820    5.792349
     58          1           0       -8.586547    0.553749    6.515048
     59          1           0       -6.892018    0.021619    6.364301
     60          1           0       -7.614515    2.505965    7.025726
     61          1           0       -6.400235    3.903023    6.978515
     62          1           0       -5.965357    2.233606    6.523697
     63          1           0       -7.554700    5.620503    0.470700
     64          1           0       -9.192012    5.002821   -1.938794
     65          1           0       -9.466277    6.741893    0.910867
     66          1           0      -10.275564    5.150711    1.115627
     67          1           0      -10.314053    5.918819   -0.386207
     68          1           0       -7.224592    6.583188   -1.935365
     69          1           0       -7.247966    5.431463   -3.266090
     70          1           0       -5.616559    5.599164   -0.845951
     71          1           0       -5.062591    5.271509   -2.522988
     72          1           0       -5.823909    3.978799   -1.491481
     73          1           0       -7.907389    0.373346   -6.027057
     74          1           0       -8.388767    1.978826   -5.371483
     75          1           0       -9.623278    0.654497   -5.459220
     76          1           0       -9.314632   -3.671480   -2.746264
     77          1           0       -7.199901   -7.309016   -3.703207
     78          1           0       -6.805668   -7.094400   -1.892613
     79          1           0       -5.871832   -6.394289   -3.228099
     80         12           0        8.012144    0.657580   -0.500495
     81          6           0        7.893205   -2.513595    1.175372
     82          6           0        7.299723    2.104306    2.505169
     83          6           0        7.664887    3.418941   -2.024209
     84          6           0        7.578574   -1.066779   -3.497882
     85          7           0        7.664297   -0.199389    1.508694
     86          6           0        7.705543   -1.413101    2.037428
     87          6           0        7.616319   -1.443063    3.586842
     88          6           0        6.869517   -0.039319    3.811893
     89          6           0        7.329928    0.687557    2.550021
     90          6           0        5.354447   -0.150648    3.773074
     91          6           0        9.030343   -1.456933    4.266821
     92          6           0        9.023132   -1.796835    5.758860
     93          1           0       10.134975   -2.572708    6.301352
     94          7           0        8.036092    2.517713    0.190802
     95          6           0        7.741695    2.924087    1.443582
     96          6           0        7.888037    4.387880    1.436554
     97          6           0        8.132382    4.828150    0.036141
     98          6           0        7.928789    3.580187   -0.671844
     99          6           0        7.871685    5.213304    2.690280
    100          6           0        8.477900    6.155726   -0.567478
    101          8           0        8.410034    6.358961   -1.831178
    102          6           0        8.807799    7.237218    0.372208
    103          7           0        7.460430    1.133925   -2.447563
    104          6           0        7.439382    2.411151   -2.867304
    105          6           0        7.283080    2.489888   -4.367228
    106          6           0        7.447018    0.989391   -4.895623
    107          6           0        7.586995    0.258402   -3.542310
    108          6           0        5.958190    3.063893   -4.868777
    109          6           0        8.525928    0.740811   -5.985042
    110          6           0        9.904965    0.956296   -5.404334
    111          7           0        7.960787   -1.414804   -1.109292
    112          6           0        7.741185   -1.916255   -2.410988
    113          6           0        7.680755   -3.388578   -2.305921
    114          6           0        7.847747   -3.642413   -0.936187
    115          6           0        7.981199   -2.413995   -0.234267
    116          6           0        7.445458   -4.290385   -3.381792
    117          6           0        7.930842   -4.669750    0.076916
    118          8           0        7.970714   -5.899393    0.065938
    119          6           0        7.837381   -3.979369    1.505562
    120          6           0        8.932303   -4.545567    2.367580
    121          8           0       10.126548   -4.334527    2.092167
    122          8           0        8.391098   -5.055604    3.488887
    123          6           0        9.438810   -5.619351    4.381250
    124          1           0        6.857008    2.640644    3.344955
    125          1           0        7.645845    4.338453   -2.613804
    126          1           0        7.544107   -1.680912   -4.400281
    127          1           0        7.019058   -2.251125    3.991922
    128          1           0        7.239206    0.466862    4.699861
    129          1           0        5.030409   -1.138767    3.481938
    130          1           0        5.023916    0.584084    3.050595
    131          1           0        4.929119    0.157529    4.732476
    132          1           0        9.417067   -0.430603    4.309798
    133          1           0        9.695892   -2.119499    3.748482
    134          1           0        8.064670   -2.222460    6.080013
    135          1           0        9.107361   -0.867213    6.326948
    136          1           0        7.509132    4.634145    3.548490
    137          1           0        7.115389    5.993146    2.549851
    138          1           0        8.834059    5.687128    2.895210
    139          1           0        7.968513    7.400363    1.044100
    140          1           0        9.113245    8.081254   -0.249226
    141          1           0        9.650744    6.915467    0.993938
    142          1           0        8.060532    3.103659   -4.805369
    143          1           0        6.521674    0.617370   -5.359492
    144          1           0        6.085365    3.940625   -5.531533
    145          1           0        5.350876    3.320578   -4.010975
    146          1           0        5.321163    2.358933   -5.400217
    147          1           0        8.415671    1.461859   -6.798731
    148          1           0        8.476314   -0.250103   -6.423924
    149          1           0       10.034330    2.040655   -5.471492
    150          1           0       10.654844    0.432098   -5.993352
    151          1           0        9.931333    0.686326   -4.342225
    152          1           0        8.143267   -5.108252   -3.260771
    153          1           0        7.569080   -3.800573   -4.345413
    154          1           0        6.403225   -4.557637   -3.187872
    155          1           0        6.846833   -4.193516    1.908717
    156          1           0        9.164079   -6.660118    4.578774
    157          1           0        9.488714   -4.937767    5.251128
    158          1           0       10.435232   -5.737684    3.971885
 ---------------------------------------------------------------------

 SCF Done:  E(RCAM-B3LYP) =  -4069.81179044     A.U. after   19 cycles

 Excitation energies and oscillator strengths:

 Excited State   1:      Singlet-A      1.6732 eV  741.00 nm  f=0.2306  <S**2>=0.000
     310 -> 316        0.15010
     311 -> 313       -0.34118
     312 -> 314        0.59528
 This state for optimization and/or second-order correction.
 Total Energy, E(TD-HF/TD-DFT) =  -4069.75030182
 Copying the excited state density for this state as the 1-particle RhoCI density.

 Excited State   2:      Singlet-A      1.6815 eV  737.36 nm  f=0.5192  <S**2>=0.000
     309 -> 315        0.15251
     311 -> 313        0.59478
     312 -> 314        0.34101

 Excited State   3:      Singlet-A      2.1859 eV  567.21 nm  f=0.0932  <S**2>=0.000
     310 -> 314        0.63986
     312 -> 316       -0.27195

 Excited State   4:      Singlet-A      2.1921 eV  565.59 nm  f=0.1054  <S**2>=0.000
     309 -> 313        0.63810
     311 -> 315       -0.27685

 Excited State   5:      Singlet-A      2.7656 eV  448.31 nm  f=0.0000  <S**2>=0.000
     312 -> 313        0.70710

 The electronic state is 1-A.
 Alpha  occ. eigenvalues --  -46.87834 -46.87592 -19.26321 -19.26287 -19.19124
 Alpha  occ. eigenvalues --  -19.19029 -19.18873 -19.18653 -19.18198 -19.17992
 Alpha  occ. eigenvalues --  -14.42485 -14.42433 -14.41487 -14.41288 -14.39443
 Alpha  occ. eigenvalues --  -14.39285 -14.38623 -14.38531 -10.39090 -10.39053
 Alpha  occ. eigenvalues --  -10.35508 -10.35331 -10.34417 -10.34170 -10.31739
 Alpha  occ. eigenvalues --  -10.31669 -10.31436 -10.31246 -10.30965 -10.30943
 Alpha  occ. eigenvalues --  -10.30605 -10.30546 -10.30328 -10.30293 -10.30248
 Alpha  occ. eigenvalues --  -10.30067 -10.29957 -10.29819 -10.29671 -10.29367
 Alpha  occ. eigenvalues --  -10.29334 -10.29296 -10.28770 -10.28676 -10.28636
 Alpha  occ. eigenvalues --  -10.28538 -10.28402 -10.28341 -10.28140 -10.28093
 Alpha  occ. eigenvalues --  -10.27933 -10.27831 -10.27762 -10.27627 -10.27605
 Alpha  occ. eigenvalues --  -10.27540 -10.27532 -10.27489 -10.27437 -10.27430
 Alpha  occ. eigenvalues --  -10.27420 -10.27409 -10.27400 -10.27290 -10.27181
 Alpha  occ. eigenvalues --  -10.26998 -10.26718 -10.26660 -10.26486 -10.26361
 Alpha  occ. eigenvalues --  -10.26256 -10.26223 -10.26057 -10.26055 -10.25979
 Alpha  occ. eigenvalues --  -10.25875 -10.25860 -10.25765 -10.25474 -10.25297
 Alpha  occ. eigenvalues --  -10.24869 -10.24826 -10.24805 -10.24730 -10.24658
 Alpha  occ. eigenvalues --  -10.24620  -3.16577  -3.16342  -1.91459  -1.91224
 Alpha  occ. eigenvalues --   -1.91045  -1.90887  -1.90813  -1.90650  -1.16637
 Alpha  occ. eigenvalues --   -1.16613  -1.08654  -1.08601  -1.07275  -1.06909
 Alpha  occ. eigenvalues --   -1.06905  -1.06651  -1.04615  -1.04432  -1.03798
 Alpha  occ. eigenvalues --   -1.03595  -1.03272  -1.02968  -1.02448  -1.02042
 Alpha  occ. eigenvalues --   -0.92004  -0.91925  -0.89557  -0.89421  -0.89211
 Alpha  occ. eigenvalues --   -0.89103  -0.88325  -0.88143  -0.87905  -0.87721
 Alpha  occ. eigenvalues --   -0.87706  -0.87620  -0.87322  -0.87058  -0.85009
 Alpha  occ. eigenvalues --   -0.84948  -0.83973  -0.83800  -0.83022  -0.82868
 Alpha  occ. eigenvalues --   -0.82679  -0.82599  -0.81606  -0.81546  -0.80627
 Alpha  occ. eigenvalues --   -0.80387  -0.78840  -0.78570  -0.77252  -0.77085
 Alpha  occ. eigenvalues --   -0.76957  -0.76843  -0.75947  -0.75786  -0.74932
 Alpha  occ. eigenvalues --   -0.74728  -0.72810  -0.72630  -0.71704  -0.71515
 Alpha  occ. eigenvalues --   -0.69946  -0.69680  -0.68903  -0.68774  -0.67678
 Alpha  occ. eigenvalues --   -0.67539  -0.67249  -0.67152  -0.65312  -0.65221
 Alpha  occ. eigenvalues --   -0.64884  -0.64707  -0.64649  -0.64598  -0.64306
 Alpha  occ. eigenvalues --   -0.64131  -0.62316  -0.62229  -0.60487  -0.60273
 Alpha  occ. eigenvalues --   -0.59833  -0.59742  -0.59021  -0.58927  -0.58537
 Alpha  occ. eigenvalues --   -0.58362  -0.57608  -0.57501  -0.57344  -0.57169
 Alpha  occ. eigenvalues --   -0.56346  -0.56141  -0.55993  -0.55842  -0.55561
 Alpha  occ. eigenvalues --   -0.55397  -0.55370  -0.55180  -0.54548  -0.54426
 Alpha  occ. eigenvalues --   -0.53919  -0.53865  -0.53339  -0.53255  -0.53163
 Alpha  occ. eigenvalues --   -0.53087  -0.52943  -0.52849  -0.52799  -0.52613
 Alpha  occ. eigenvalues --   -0.52477  -0.52326  -0.51948  -0.51808  -0.51646
 Alpha  occ. eigenvalues --   -0.51610  -0.51226  -0.51140  -0.50629  -0.50415
 Alpha  occ. eigenvalues --   -0.50071  -0.49963  -0.49922  -0.49792  -0.49550
 Alpha  occ. eigenvalues --   -0.49432  -0.49249  -0.49146  -0.49121  -0.49049
 Alpha  occ. eigenvalues --   -0.48619  -0.48506  -0.48504  -0.48481  -0.48302
 Alpha  occ. eigenvalues --   -0.48279  -0.47729  -0.47536  -0.47334  -0.47053
 Alpha  occ. eigenvalues --   -0.46830  -0.46644  -0.46580  -0.46503  -0.46395
 Alpha  occ. eigenvalues --   -0.46203  -0.46193  -0.46016  -0.45845  -0.45763
 Alpha  occ. eigenvalues --   -0.45239  -0.45132  -0.44607  -0.44547  -0.44458
 Alpha  occ. eigenvalues --   -0.44419  -0.44183  -0.44116  -0.44071  -0.44053
 Alpha  occ. eigenvalues --   -0.44013  -0.43883  -0.43517  -0.43503  -0.43417
 Alpha  occ. eigenvalues --   -0.43327  -0.43059  -0.42884  -0.42839  -0.42725
 Alpha  occ. eigenvalues --   -0.42677  -0.42481  -0.42041  -0.41901  -0.41736
 Alpha  occ. eigenvalues --   -0.41608  -0.41559  -0.41405  -0.41173  -0.40927
 Alpha  occ. eigenvalues --   -0.40901  -0.40871  -0.40668  -0.40644  -0.40606
 Alpha  occ. eigenvalues --   -0.40421  -0.40254  -0.40187  -0.39480  -0.39348
 Alpha  occ. eigenvalues --   -0.38504  -0.38277  -0.37769  -0.37610  -0.37356
 Alpha  occ. eigenvalues --   -0.37290  -0.37196  -0.37143  -0.36731  -0.36727
 Alpha  occ. eigenvalues --   -0.36218  -0.36153  -0.34321  -0.34187  -0.33820
 Alpha  occ. eigenvalues --   -0.33785  -0.33221  -0.33108  -0.31402  -0.31211
 Alpha  occ. eigenvalues --   -0.31071  -0.30907  -0.30056  -0.29898  -0.29492
 Alpha  occ. eigenvalues --   -0.29359  -0.29261  -0.29143  -0.24116  -0.23968
 Alpha  occ. eigenvalues --   -0.21165  -0.21049
 Alpha virt. eigenvalues --   -0.08813  -0.08725  -0.01789  -0.01615  -0.00102
 Alpha virt. eigenvalues --    0.00033   0.02166   0.02273   0.03075   0.03287
 Alpha virt. eigenvalues --    0.04690   0.04789   0.05085   0.05205   0.06165

 Mulliken charges:
               1
     1  Mg   0.838542
     2  C   -0.002943
     3  C   -0.094090
     4  C   -0.045963
     5  C   -0.063977
     6  N   -0.256785
     7  C   -0.052355
     8  C   -0.014008
     9  C   -0.086976
    10  C    0.046281
    11  C    0.104798
    12  C    0.053464
    13  C   -0.072015
    14  H    0.036703
    15  N   -0.433094
    16  C    0.168315
    17  C   -0.177241
    18  C   -0.004182
    19  C    0.148657
    20  C    0.110185
    21  C    0.012068
    22  O   -0.249782
    23  C    0.062592
    24  N   -0.341128
    25  C    0.041233
    26  C   -0.028148
    27  C   -0.024014
    28  C    0.074896
    29  C    0.076171
    30  C    0.035129
    31  C   -0.004497
    32  N   -0.310490
    33  C    0.080450
    34  C   -0.169683
    35  C    0.008436
    36  C    0.082994
    37  C    0.127305
    38  C    0.046166
    39  O   -0.188216
    40  C   -0.005304
    41  C    0.212911
    42  O   -0.257075
    43  O   -0.304821
    44  C    0.157594
    45  H   -0.017571
    46  H   -0.016963
    47  H   -0.041429
    48  H    0.001072
    49  H   -0.003983
    50  H    0.025534
    51  H    0.016386
    52  H    0.016742
    53  H    0.011064
    54  H    0.044199
    55  H    0.017915
    56  H    0.017919
    57  H    0.005987
    58  H    0.026808
    59  H    0.039184
    60  H    0.037496
    61  H    0.035308
    62  H    0.031114
    63  H    0.016402
    64  H    0.009548
    65  H    0.023144
    66  H    0.012573
    67  H    0.004830
    68  H    0.006397
    69  H    0.004833
    70  H    0.008608
    71  H    0.018243
    72  H    0.028920
    73  H    0.047627
    74  H    0.009131
    75  H    0.046118
    76  H    0.035253
    77  H    0.043089
    78  H    0.046529
    79  H    0.053872
    80  Mg   0.837969
    81  C   -0.016896
    82  C   -0.087861
    83  C   -0.045407
    84  C   -0.064462
    85  N   -0.254550
    86  C   -0.049811
    87  C   -0.015056
    88  C   -0.090526
    89  C    0.045767
    90  C    0.114389
    91  C    0.062554
    92  C   -0.077739
    93  H    0.034662
    94  N   -0.423494
    95  C    0.162921
    96  C   -0.174645
    97  C   -0.007807
    98  C    0.152113
    99  C    0.099385
   100  C    0.015537
   101  O   -0.253198
   102  C    0.061218
   103  N   -0.350002
   104  C    0.037639
   105  C   -0.019914
   106  C   -0.034922
   107  C    0.088949
   108  C    0.073491
   109  C    0.034704
   110  C   -0.007659
   111  N   -0.324156
   112  C    0.078457
   113  C   -0.162874
   114  C    0.002243
   115  C    0.096282
   116  C    0.131461
   117  C    0.042468
   118  O   -0.188049
   119  C    0.000871
   120  C    0.211192
   121  O   -0.251054
   122  O   -0.305681
   123  C    0.152102
   124  H   -0.019798
   125  H   -0.015544
   126  H   -0.040140
   127  H   -0.000888
   128  H   -0.004567
   129  H    0.022479
   130  H    0.014827
   131  H    0.015826
   132  H    0.013934
   133  H    0.037661
   134  H    0.020545
   135  H    0.019498
   136  H    0.008623
   137  H    0.026192
   138  H    0.039609
   139  H    0.038274
   140  H    0.036287
   141  H    0.033781
   142  H    0.014255
   143  H    0.013055
   144  H    0.024975
   145  H    0.011825
   146  H    0.006320
   147  H    0.006327
   148  H    0.003798
   149  H    0.010841
   150  H    0.017826
   151  H    0.029978
   152  H    0.045792
   153  H    0.008661
   154  H    0.047559
   155  H    0.034978
   156  H    0.043694
   157  H    0.049350
   158  H    0.053555
 Sum of Mulliken charges =  -0.00000

 Dipole moment (field-independent basis, Debye):
    X=             -3.6674    Y=              2.0257    Z=              6.8019  Tot=              7.9887
 Quadrupole moment (field-independent basis, Debye-Ang):
   XX=           -518.3447   YY=           -524.1463   ZZ=           -474.7907
   XY=             34.9327   XZ=             -8.2669   YZ=            -22.9553

 Normal termination of Gaussian 16 at Sat Sep  4 14:47:04 2021.
