 Gaussian 16, Revision A.03,
 Gaussian 16:  ES64L-G16RevA.03 25-Dec-2016

 -----------------------------------
 #p cam-b3lyp/Def2SVP td=(nstates=5)
 -----------------------------------

 --------------------------------
 TDDFT excited states in gaussian
 --------------------------------
 Symbolic Z-matrix:
 Charge =  0 Multiplicity = 1

                         Standard orientation:
 ---------------------------------------------------------------------
 Center     Atomic      Atomic             Coordinates (Angstroms)
 Number     Number       Type             X           Y           Z
 ---------------------------------------------------------------------
      1         12           0       -6.331134    0.689723   -0.047436
      2          6           0       -6.680109   -2.442299    1.649877
      3          6           0       -7.199855    2.205437    2.883605
      4          6           0       -6.472918    3.432064   -1.633652
      5          6           0       -6.607841   -1.070582   -3.042502
      6          7           0       -6.848962   -0.122954    1.945566
      7          6           0       -6.887339   -1.339118    2.480956
      8          6           0       -7.093946   -1.328113    4.025160
      9          6           0       -7.796601    0.095203    4.174981
     10          6           0       -7.221158    0.780511    2.948138
     11          6           0       -9.315073    0.042153    4.041076
     12          6           0       -5.738289   -1.382875    4.806779
     13          6           0       -5.857246   -1.703443    6.299574
     14          1           0       -4.821588   -2.510119    6.927296
     15          7           0       -6.292216    2.552761    0.608632
     16          6           0       -6.666370    2.987087    1.836091
     17          6           0       -6.451676    4.450160    1.833672
     18          6           0       -6.102179    4.856469    0.444119
     19          6           0       -6.303348    3.617955   -0.263690
     20          6           0       -6.535391    5.296113    3.067003
     21          6           0       -5.667579    6.157464   -0.153098
     22          8           0       -5.639525    6.350183   -1.416682
     23          6           0       -5.356053    7.243473    0.793780
     24          7           0       -6.733352    1.157535   -2.041680
     25          6           0       -6.673157    2.419754   -2.480044
     26          6           0       -6.717108    2.480149   -3.978163
     27          6           0       -6.574853    0.972863   -4.485712
     28          6           0       -6.554824    0.261585   -3.110230
     29          6           0       -7.979867    3.106275   -4.585959
     30          6           0       -5.431801    0.673205   -5.487738
     31          6           0       -4.093174    0.840257   -4.804167
     32          7           0       -6.419400   -1.397827   -0.635135
     33          6           0       -6.557019   -1.902313   -1.936376
     34          6           0       -6.678208   -3.367273   -1.821165
     35          6           0       -6.618923   -3.613370   -0.450848
     36          6           0       -6.496511   -2.378122    0.247342
     37          6           0       -6.879452   -4.274157   -2.898892
     38          6           0       -6.655280   -4.630568    0.587344
     39          8           0       -6.652225   -5.862407    0.594912
     40          6           0       -6.818911   -3.904208    1.994985
     41          6           0       -5.809425   -4.503530    2.935761
     42          8           0       -4.586471   -4.332579    2.755417
     43          8           0       -6.439922   -4.977349    4.021354
     44          6           0       -5.492271   -5.559468    5.008901
     45          1           0       -7.687008    2.777026    3.676011
     46          1           0       -6.416448    4.346433   -2.227941
     47          1           0       -6.612260   -1.692770   -3.939339
     48          1           0       -7.753649   -2.110378    4.401027
     49          1           0       -7.480316    0.611836    5.080948
     50          1           0       -9.653747   -0.947781    3.735707
     51          1           0       -9.566215    0.781807    3.280594
     52          1           0       -9.796910    0.380452    4.958771
     53          1           0       -5.316494   -0.379531    4.865520
     54          1           0       -5.051976   -2.090103    4.339735
     55          1           0       -6.845841   -2.091646    6.546326
     56          1           0       -5.786473   -0.768951    6.856275
     57          1           0       -6.971273    4.746837    3.900579
     58          1           0       -7.252565    6.090250    2.860324
     59          1           0       -5.571705    5.731013    3.332529
     60          1           0       -6.235651    7.453355    1.402717
     61          1           0       -4.977731    8.068482    0.191217
     62          1           0       -4.581852    6.901335    1.481169
     63          1           0       -5.888742    3.068778   -4.370274
     64          1           0       -7.473733    0.626715   -4.996467
     65          1           0       -7.776571    3.953662   -5.241177
     66          1           0       -8.640468    3.393700   -3.768472
     67          1           0       -8.611440    2.413641   -5.141649
     68          1           0       -5.459136    1.379845   -6.316507
     69          1           0       -5.479573   -0.331829   -5.907115
     70          1           0       -3.914758    1.912493   -4.877037
     71          1           0       -3.322732    0.279361   -5.334285
     72          1           0       -4.153461    0.591234   -3.744526
     73          1           0       -6.215182   -5.118517   -2.715121
     74          1           0       -6.665338   -3.803126   -3.858000
     75          1           0       -7.937293   -4.504802   -2.773867
     76          1           0       -7.842039   -4.084176    2.323532
     77          1           0       -5.814327   -6.583616    5.197672
     78          1           0       -5.466400   -4.873037    5.855393
     79          1           0       -4.472871   -5.725531    4.658780
     80         12           0        6.877241    0.197171    0.178385
     81          6           0        5.042646   -1.560107   -2.356439
     82          6           0        5.797924    3.095401   -1.260352
     83          6           0        8.837488    1.771552    2.113882
     84          6           0        8.694106   -2.731163    0.697580
     85          7           0        5.589890    0.587586   -1.577341
     86          6           0        4.899586   -0.158648   -2.426438
     87          6           0        3.943612    0.638937   -3.353538
     88          6           0        4.693097    2.058466   -3.307750
     89          6           0        5.378588    1.929226   -1.949051
     90          6           0        5.767228    2.206509   -4.372490
     91          6           0        2.490174    0.737719   -2.770641
     92          6           0        1.432698    1.232173   -3.760094
     93          1           0        0.085749    0.674448   -3.675720
     94          7           0        6.892751    2.108171    0.713528
     95          6           0        6.389921    3.151367    0.020564
     96          6           0        6.671221    4.346108    0.831499
     97          6           0        7.526306    3.942375    1.980648
     98          6           0        7.808719    2.565415    1.628102
     99          6           0        6.079003    5.692134    0.529966
    100          6           0        8.020003    4.678065    3.189456
    101          8           0        8.946235    4.201289    3.936179
    102          6           0        7.453135    6.014818    3.420232
    103          7           0        8.664894   -0.323893    1.103112
    104          6           0        9.286191    0.528736    1.936734
    105          6           0       10.397191   -0.159945    2.692919
    106          6           0       10.235222   -1.717855    2.370013
    107          6           0        9.061871   -1.647973    1.368128
    108          6           0       11.816455    0.287120    2.343321
    109          6           0       10.114369   -2.679343    3.583937
    110          6           0        8.810296   -2.434529    4.308402
    111          7           0        6.772123   -1.843553   -0.523369
    112          6           0        7.647786   -2.903039   -0.199676
    113          6           0        7.239152   -4.068662   -1.010083
    114          6           0        6.159999   -3.596019   -1.772011
    115          6           0        5.926343   -2.226449   -1.473370
    116          6           0        7.874374   -5.342465   -1.014709
    117          6           0        5.172154   -3.941318   -2.768818
    118          8           0        4.831067   -4.981830   -3.329833
    119          6           0        4.485450   -2.603747   -3.284317
    120          6           0        2.996452   -2.816810   -3.285832
    121          8           0        2.381657   -2.989877   -2.218739
    122          8           0        2.516634   -2.565614   -4.517509
    123          6           0        1.042045   -2.752678   -4.566681
    124          1           0        5.704062    4.057641   -1.764504
    125          1           0        9.475201    2.236326    2.869381
    126          1           0        9.148055   -3.708748    0.873437
    127          1           0        3.893783    0.277519   -4.373664
    128          1           0        3.982041    2.880463   -3.299438
    129          1           0        5.930757    1.284704   -4.910715
    130          1           0        6.665215    2.501298   -3.845448
    131          1           0        5.523547    3.037340   -5.040824
    132          1           0        2.454018    1.551355   -2.034825
    133          1           0        2.182802   -0.201015   -2.352384
    134          1           0        1.794087    1.209021   -4.795378
    135          1           0        1.243701    2.290730   -3.565797
    136          1           0        5.625894    5.717660   -0.468754
    137          1           0        6.911561    6.401322    0.468722
    138          1           0        5.383885    6.028993    1.301983
    139          1           0        7.653911    6.646031    2.557844
    140          1           0        7.861184    6.343928    4.377867
    141          1           0        6.363869    5.924383    3.497277
    142          1           0       10.289894   -0.009243    3.760091
    143          1           0       11.099549   -2.110904    1.814782
    144          1           0       12.386796    0.652777    3.218010
    145          1           0       11.755167    1.053363    1.581977
    146          1           0       12.433198   -0.469190    1.860800
    147          1           0       10.911652   -2.481496    4.304584
    148          1           0       10.178432   -3.727789    3.312558
    149          1           0        9.044215   -1.585368    4.957465
    150          1           0        8.525077   -3.308956    4.889836
    151          1           0        8.027833   -2.111394    3.611981
    152          1           0        7.086204   -6.083474   -1.001021
    153          1           0        8.543033   -5.456376   -0.164013
    154          1           0        8.419625   -5.285072   -1.960583
    155          1           0        4.871134   -2.401861   -4.284357
    156          1           0        0.837745   -3.472403   -5.365397
    157          1           0        0.615891   -1.738308   -4.681553
    158          1           0        0.569723   -3.236748   -3.719901
 ---------------------------------------------------------------------

 SCF Done:  E(RCAM-B3LYP) =  -4069.81131066     A.U. after   19 cycles

 Excitation energies and oscillator strengths:

 Excited State   1:      Singlet-A      1.6647 eV  744.79 nm  f=0.0088  <S**2>=0.000
     309 -> 315       -0.11080
     310 -> 316        0.12996
     311 -> 313       -0.44444
     312 -> 314        0.52345
 This state for optimization and/or second-order correction.
 Total Energy, E(TD-HF/TD-DFT) =  -4069.75013459
 Copying the excited state density for this state as the 1-particle RhoCI density.

 Excited State   2:      Singlet-A      1.6899 eV  733.67 nm  f=0.7321  <S**2>=0.000
     309 -> 315        0.13538
     310 -> 316        0.11453
     311 -> 313        0.52215
     312 -> 314        0.44346

 Excited State   3:      Singlet-A      2.1845 eV  567.57 nm  f=0.0674  <S**2>=0.000
     309 -> 313        0.19620
     310 -> 314        0.61241
     312 -> 316       -0.25889

 Excited State   4:      Singlet-A      2.1921 eV  565.58 nm  f=0.1281  <S**2>=0.000
     309 -> 313        0.61013
     310 -> 314       -0.19475
     311 -> 315       -0.26491

 Excited State   5:      Singlet-A      2.6703 eV  464.32 nm  f=0.0000  <S**2>=0.000
     312 -> 313        0.70696

 The electronic state is 1-A.
 Alpha  occ. eigenvalues --  -46.87800 -46.87544 -19.26150 -19.26145 -19.18935
 Alpha  occ. eigenvalues --  -19.18878 -19.18870 -19.18633 -19.18117 -19.17907
 Alpha  occ. eigenvalues --  -14.42447 -14.42381 -14.41467 -14.41247 -14.39411
 Alpha  occ. eigenvalues --  -14.39240 -14.38582 -14.38480 -10.38949 -10.38877
 Alpha  occ. eigenvalues --  -10.35506 -10.35313 -10.34334 -10.34081 -10.31548
 Alpha  occ. eigenvalues --  -10.31526 -10.31387 -10.31182 -10.30905 -10.30899
 Alpha  occ. eigenvalues --  -10.30562 -10.30517 -10.30283 -10.30247 -10.30238
 Alpha  occ. eigenvalues --  -10.30043 -10.29941 -10.29782 -10.29638 -10.29332
 Alpha  occ. eigenvalues --  -10.29287 -10.29271 -10.28704 -10.28582 -10.28479
 Alpha  occ. eigenvalues --  -10.28449 -10.28357 -10.28286 -10.28084 -10.28012
 Alpha  occ. eigenvalues --  -10.27885 -10.27789 -10.27727 -10.27597 -10.27585
 Alpha  occ. eigenvalues --  -10.27554 -10.27522 -10.27505 -10.27429 -10.27393
 Alpha  occ. eigenvalues --  -10.27380 -10.27362 -10.27357 -10.27288 -10.27095
 Alpha  occ. eigenvalues --  -10.26897 -10.26627 -10.26525 -10.26493 -10.26363
 Alpha  occ. eigenvalues --  -10.26331 -10.26206 -10.26053 -10.26044 -10.25914
 Alpha  occ. eigenvalues --  -10.25829 -10.25825 -10.25729 -10.25501 -10.25323
 Alpha  occ. eigenvalues --  -10.24899 -10.24820 -10.24805 -10.24752 -10.24643
 Alpha  occ. eigenvalues --  -10.24579  -3.16543  -3.16294  -1.91424  -1.91176
 Alpha  occ. eigenvalues --   -1.91011  -1.90853  -1.90765  -1.90602  -1.16499
 Alpha  occ. eigenvalues --   -1.16436  -1.08565  -1.08506  -1.07276  -1.06888
 Alpha  occ. eigenvalues --   -1.06727  -1.06505  -1.04575  -1.04376  -1.03773
 Alpha  occ. eigenvalues --   -1.03549  -1.03240  -1.02927  -1.02417  -1.01997
 Alpha  occ. eigenvalues --   -0.91951  -0.91858  -0.89575  -0.89388  -0.89153
 Alpha  occ. eigenvalues --   -0.89020  -0.88341  -0.88121  -0.87861  -0.87673
 Alpha  occ. eigenvalues --   -0.87670  -0.87565  -0.87299  -0.87025  -0.84960
 Alpha  occ. eigenvalues --   -0.84870  -0.84004  -0.83775  -0.83023  -0.82848
 Alpha  occ. eigenvalues --   -0.82636  -0.82531  -0.81534  -0.81446  -0.80577
 Alpha  occ. eigenvalues --   -0.80311  -0.78810  -0.78530  -0.77237  -0.77027
 Alpha  occ. eigenvalues --   -0.76909  -0.76766  -0.75889  -0.75705  -0.74930
 Alpha  occ. eigenvalues --   -0.74697  -0.72781  -0.72584  -0.71672  -0.71465
 Alpha  occ. eigenvalues --   -0.70003  -0.69663  -0.68859  -0.68702  -0.67643
 Alpha  occ. eigenvalues --   -0.67483  -0.67194  -0.67071  -0.65259  -0.65137
 Alpha  occ. eigenvalues --   -0.64847  -0.64649  -0.64611  -0.64519  -0.64310
 Alpha  occ. eigenvalues --   -0.64097  -0.62236  -0.62120  -0.60473  -0.60241
 Alpha  occ. eigenvalues --   -0.59782  -0.59670  -0.58989  -0.58873  -0.58500
 Alpha  occ. eigenvalues --   -0.58301  -0.57535  -0.57397  -0.57312  -0.57123
 Alpha  occ. eigenvalues --   -0.56309  -0.56087  -0.55900  -0.55729  -0.55532
 Alpha  occ. eigenvalues --   -0.55358  -0.55333  -0.55125  -0.54507  -0.54351
 Alpha  occ. eigenvalues --   -0.53860  -0.53778  -0.53318  -0.53211  -0.53118
 Alpha  occ. eigenvalues --   -0.53016  -0.52895  -0.52773  -0.52759  -0.52572
 Alpha  occ. eigenvalues --   -0.52526  -0.52303  -0.51899  -0.51759  -0.51590
 Alpha  occ. eigenvalues --   -0.51530  -0.51188  -0.51073  -0.50621  -0.50393
 Alpha  occ. eigenvalues --   -0.50102  -0.49939  -0.49872  -0.49772  -0.49506
 Alpha  occ. eigenvalues --   -0.49377  -0.49199  -0.49073  -0.49067  -0.48976
 Alpha  occ. eigenvalues --   -0.48568  -0.48495  -0.48440  -0.48419  -0.48273
 Alpha  occ. eigenvalues --   -0.48231  -0.47699  -0.47477  -0.47304  -0.47010
 Alpha  occ. eigenvalues --   -0.46814  -0.46592  -0.46522  -0.46424  -0.46372
 Alpha  occ. eigenvalues --   -0.46156  -0.46153  -0.45960  -0.45780  -0.45681
 Alpha  occ. eigenvalues --   -0.45247  -0.45106  -0.44550  -0.44540  -0.44383
 Alpha  occ. eigenvalues --   -0.44356  -0.44187  -0.44069  -0.44008  -0.43995
 Alpha  occ. eigenvalues --   -0.43969  -0.43821  -0.43453  -0.43404  -0.43389
 Alpha  occ. eigenvalues --   -0.43258  -0.43024  -0.42796  -0.42761  -0.42734
 Alpha  occ. eigenvalues --   -0.42574  -0.42455  -0.42043  -0.41847  -0.41693
 Alpha  occ. eigenvalues --   -0.41541  -0.41513  -0.41332  -0.41139  -0.40884
 Alpha  occ. eigenvalues --   -0.40873  -0.40862  -0.40622  -0.40603  -0.40581
 Alpha  occ. eigenvalues --   -0.40386  -0.40186  -0.40088  -0.39553  -0.39331
 Alpha  occ. eigenvalues --   -0.38514  -0.38246  -0.37710  -0.37509  -0.37356
 Alpha  occ. eigenvalues --   -0.37232  -0.37156  -0.37067  -0.36654  -0.36591
 Alpha  occ. eigenvalues --   -0.36153  -0.36080  -0.34285  -0.34133  -0.33657
 Alpha  occ. eigenvalues --   -0.33654  -0.33178  -0.33054  -0.31400  -0.31191
 Alpha  occ. eigenvalues --   -0.31036  -0.30855  -0.29973  -0.29808  -0.29461
 Alpha  occ. eigenvalues --   -0.29311  -0.29220  -0.29090  -0.24081  -0.23918
 Alpha  occ. eigenvalues --   -0.21134  -0.21003
 Alpha virt. eigenvalues --   -0.08779  -0.08678  -0.01766  -0.01574  -0.00071
 Alpha virt. eigenvalues --    0.00076   0.02215   0.02332   0.03093   0.03358
 Alpha virt. eigenvalues --    0.04728   0.04808   0.05214   0.05366   0.06093

 Mulliken charges:
               1
     1  Mg   0.839100
     2  C   -0.002193
     3  C   -0.093833
     4  C   -0.046452
     5  C   -0.064682
     6  N   -0.256700
     7  C   -0.052136
     8  C   -0.014066
     9  C   -0.087021
    10  C    0.046331
    11  C    0.104822
    12  C    0.053416
    13  C   -0.072020
    14  H    0.037095
    15  N   -0.433041
    16  C    0.168240
    17  C   -0.177198
    18  C   -0.004440
    19  C    0.148602
    20  C    0.110168
    21  C    0.011671
    22  O   -0.250470
    23  C    0.062706
    24  N   -0.341071
    25  C    0.041116
    26  C   -0.028083
    27  C   -0.023943
    28  C    0.074725
    29  C    0.076190
    30  C    0.035394
    31  C   -0.005229
    32  N   -0.310677
    33  C    0.080674
    34  C   -0.169584
    35  C    0.008997
    36  C    0.083582
    37  C    0.127099
    38  C    0.047056
    39  O   -0.187263
    40  C   -0.005674
    41  C    0.212808
    42  O   -0.255331
    43  O   -0.305227
    44  C    0.157334
    45  H   -0.017584
    46  H   -0.017496
    47  H   -0.041903
    48  H    0.001153
    49  H   -0.003942
    50  H    0.025553
    51  H    0.016207
    52  H    0.016670
    53  H    0.011144
    54  H    0.045150
    55  H    0.017680
    56  H    0.017702
    57  H    0.006100
    58  H    0.026643
    59  H    0.039124
    60  H    0.037670
    61  H    0.034813
    62  H    0.031055
    63  H    0.015618
    64  H    0.009753
    65  H    0.022819
    66  H    0.012870
    67  H    0.004833
    68  H    0.006261
    69  H    0.004671
    70  H    0.008680
    71  H    0.015734
    72  H    0.029828
    73  H    0.048554
    74  H    0.008419
    75  H    0.046195
    76  H    0.035116
    77  H    0.042969
    78  H    0.046112
    79  H    0.054979
    80  Mg   0.838087
    81  C   -0.016287
    82  C   -0.087727
    83  C   -0.045737
    84  C   -0.065099
    85  N   -0.254530
    86  C   -0.049631
    87  C   -0.015104
    88  C   -0.090507
    89  C    0.045724
    90  C    0.114408
    91  C    0.062446
    92  C   -0.079109
    93  H    0.036730
    94  N   -0.423389
    95  C    0.162739
    96  C   -0.174863
    97  C   -0.008122
    98  C    0.152067
    99  C    0.099452
   100  C    0.015302
   101  O   -0.253547
   102  C    0.061342
   103  N   -0.350109
   104  C    0.037442
   105  C   -0.019707
   106  C   -0.034861
   107  C    0.089088
   108  C    0.073768
   109  C    0.034787
   110  C   -0.007651
   111  N   -0.324258
   112  C    0.078781
   113  C   -0.162876
   114  C    0.002448
   115  C    0.096592
   116  C    0.131365
   117  C    0.043032
   118  O   -0.187191
   119  C    0.000677
   120  C    0.211167
   121  O   -0.249001
   122  O   -0.306279
   123  C    0.151364
   124  H   -0.019803
   125  H   -0.015951
   126  H   -0.040537
   127  H   -0.000838
   128  H   -0.004111
   129  H    0.022291
   130  H    0.014197
   131  H    0.016109
   132  H    0.013931
   133  H    0.038719
   134  H    0.019935
   135  H    0.020101
   136  H    0.008896
   137  H    0.025806
   138  H    0.039211
   139  H    0.038191
   140  H    0.035901
   141  H    0.033517
   142  H    0.014153
   143  H    0.012257
   144  H    0.024827
   145  H    0.011560
   146  H    0.005492
   147  H    0.005951
   148  H    0.003689
   149  H    0.010626
   150  H    0.017948
   151  H    0.030487
   152  H    0.046648
   153  H    0.008381
   154  H    0.046717
   155  H    0.034625
   156  H    0.043183
   157  H    0.048373
   158  H    0.056354
 Sum of Mulliken charges =  -0.00000

 Dipole moment (field-independent basis, Debye):
    X=             -1.8530    Y=              7.0889    Z=              1.3872  Tot=              7.4572
 Quadrupole moment (field-independent basis, Debye-Ang):
   XX=           -478.4160   YY=           -538.7565   ZZ=           -470.2263
   XY=            -18.7123   XZ=            -22.9514   YZ=            -10.2015

 Normal termination of Gaussian 16 at Sat Sep 11 09:16:45 2021.
