 Gaussian 16, Revision A.03,
 Gaussian 16:  ES64L-G16RevA.03 25-Dec-2016

 -----------------------------------
 #p cam-b3lyp/Def2SVP td=(nstates=5)
 -----------------------------------

 --------------------------------
 TDDFT excited states in gaussian
 --------------------------------
 Symbolic Z-matrix:
 Charge =  0 Multiplicity = 1

                         Standard orientation:
 ---------------------------------------------------------------------
 Center     Atomic      Atomic             Coordinates (Angstroms)
 Number     Number       Type             X           Y           Z
 ---------------------------------------------------------------------
      1         12           0       -4.079178    0.246372    0.443434
      2          6           0       -3.301079    3.574219    1.507487
      3          6           0       -5.053793    1.587365   -2.539002
      4          6           0       -5.195250   -2.612953   -0.353602
      5          6           0       -4.125065   -0.660572    3.808105
      6          7           0       -4.122801    2.330479   -0.301709
      7          6           0       -3.741239    3.507759    0.183671
      8          6           0       -3.781513    4.653431   -0.871405
      9          6           0       -4.857454    4.035725   -1.872799
     10          6           0       -4.642247    2.561093   -1.581132
     11          6           0       -6.296275    4.400896   -1.522162
     12          6           0       -2.398305    4.862911   -1.574672
     13          6           0       -2.261782    6.162102   -2.373934
     14          1           0       -0.973741    6.838723   -2.395891
     15          7           0       -4.530494   -0.504861   -1.327106
     16          6           0       -4.888671    0.189306   -2.433961
     17          6           0       -5.121695   -0.819292   -3.489949
     18          6           0       -5.054406   -2.165406   -2.856275
     19          6           0       -4.948699   -1.809462   -1.464331
     20          6           0       -5.326478   -0.468745   -4.931799
     21          6           0       -5.091676   -3.552513   -3.415450
     22          8           0       -5.252702   -4.580977   -2.673218
     23          6           0       -5.022544   -3.671221   -4.883159
     24          7           0       -4.805814   -1.357488    1.564715
     25          6           0       -5.170420   -2.501892    0.976171
     26          6           0       -5.384450   -3.590832    1.985299
     27          6           0       -4.852060   -3.015290    3.376365
     28          6           0       -4.479175   -1.585438    2.912952
     29          6           0       -6.832067   -4.072820    2.152944
     30          6           0       -3.781244   -3.852360    4.120062
     31          6           0       -2.490470   -3.851147    3.332026
     32          7           0       -3.600664    1.205186    2.330957
     33          6           0       -3.714770    0.647607    3.612659
     34          6           0       -3.380839    1.711178    4.577736
     35          6           0       -3.110019    2.825364    3.785844
     36          6           0       -3.290475    2.486797    2.414312
     37          6           0       -3.412243    1.590285    5.995069
     38          6           0       -2.734111    4.229829    3.780555
     39          8           0       -2.362924    5.031400    4.639157
     40          6           0       -2.961092    4.803755    2.312592
     41          6           0       -1.727502    5.575505    1.930536
     42          8           0       -0.636636    4.994103    1.759220
     43          8           0       -2.072594    6.828583    1.596995
     44          6           0       -0.897993    7.639702    1.179200
     45          1           0       -5.604956    1.915944   -3.422290
     46          1           0       -5.475673   -3.641789   -0.588758
     47          1           0       -4.036010   -0.892614    4.870968
     48          1           0       -4.135399    5.611075   -0.489165
     49          1           0       -4.618153    4.255093   -2.913152
     50          1           0       -6.353753    4.919890   -0.565468
     51          1           0       -6.833580    3.453533   -1.474220
     52          1           0       -6.759888    4.967766   -2.329936
     53          1           0       -2.291358    4.137072   -2.380762
     54          1           0       -1.584184    4.796939   -0.852051
     55          1           0       -3.058613    6.865445   -2.130463
     56          1           0       -2.416084    5.932301   -3.428250
     57          1           0       -5.490350    0.599903   -5.064777
     58          1           0       -6.265206   -0.928032   -5.240917
     59          1           0       -4.514451   -0.832108   -5.561807
     60          1           0       -5.857078   -3.128639   -5.327802
     61          1           0       -4.971760   -4.738352   -5.096473
     62          1           0       -4.115041   -3.179562   -5.234809
     63          1           0       -4.814426   -4.481994    1.725821
     64          1           0       -5.654332   -2.901396    4.105791
     65          1           0       -6.959461   -5.142685    1.986020
     66          1           0       -7.460450   -3.493955    1.476673
     67          1           0       -7.281953   -3.841547    3.118103
     68          1           0       -4.103366   -4.889535    4.206382
     69          1           0       -3.569928   -3.486001    5.124739
     70          1           0       -2.648572   -4.646632    2.604675
     71          1           0       -1.646674   -4.080114    3.983786
     72          1           0       -2.364237   -2.921813    2.776248
     73          1           0       -2.511091    2.080661    6.363072
     74          1           0       -3.448391    0.545446    6.302653
     75          1           0       -4.334324    2.124791    6.222940
     76          1           0       -3.844390    5.440036    2.357893
     77          1           0       -0.878599    8.526525    1.812764
     78          1           0       -0.991046    7.788465    0.103274
     79          1           0        0.082781    7.213069    1.392283
     80         12           0        3.551529   -1.687444   -0.600569
     81          6           0        5.804354    1.068550   -0.144059
     82          6           0        1.589458    0.414185   -2.435792
     83          6           0        1.334201   -3.956565   -0.644602
     84          6           0        5.063831   -3.199287    2.151338
     85          7           0        3.775115    0.443547   -1.149340
     86          6           0        4.702640    1.372076   -0.970820
     87          6           0        4.474888    2.673678   -1.785383
     88          6           0        2.885113    2.559547   -1.981496
     89          6           0        2.735356    1.042597   -1.886135
     90          6           0        2.092199    3.189932   -0.848685
     91          6           0        5.226292    2.656023   -3.162733
     92          6           0        5.302011    4.010214   -3.871389
     93          1           0        6.504118    4.329010   -4.636750
     94          7           0        1.987675   -1.931828   -1.797726
     95          6           0        1.328751   -0.973001   -2.481640
     96          6           0        0.243703   -1.662492   -3.196781
     97          6           0        0.214672   -3.081572   -2.749472
     98          6           0        1.185518   -3.039009   -1.674421
     99          6           0       -0.587977   -0.994416   -4.252913
    100          6           0       -0.567918   -4.276040   -3.204457
    101          8           0       -0.607613   -5.356881   -2.516678
    102          6           0       -1.361400   -4.111480   -4.431158
    103          7           0        3.097961   -3.241097    0.704334
    104          6           0        2.117385   -4.116801    0.422291
    105          6           0        2.155973   -5.299653    1.360255
    106          6           0        3.521005   -5.153172    2.180506
    107          6           0        4.013794   -3.803964    1.612881
    108          6           0        0.985439   -5.412849    2.336684
    109          6           0        4.491907   -6.365312    2.153396
    110          6           0        5.052033   -6.546876    0.761036
    111          7           0        5.258615   -1.274687    0.657826
    112          6           0        5.699003   -2.024095    1.770720
    113          6           0        6.828567   -1.286533    2.372832
    114          6           0        6.953136   -0.138571    1.575868
    115          6           0        5.957658   -0.149262    0.561765
    116          6           0        7.551145   -1.676207    3.535646
    117          6           0        7.693626    1.085074    1.368357
    118          8           0        8.702597    1.584623    1.864496
    119          6           0        6.902368    1.983451    0.322776
    120          6           0        7.885607    2.477978   -0.702496
    121          8           0        8.451333    1.681084   -1.471602
    122          8           0        7.832614    3.821536   -0.751719
    123          6           0        8.782334    4.358695   -1.762317
    124          1           0        0.792846    1.043795   -2.833145
    125          1           0        0.662977   -4.817776   -0.679863
    126          1           0        5.651395   -3.652867    2.952407
    127          1           0        4.719833    3.588064   -1.258425
    128          1           0        2.582074    2.911599   -2.964143
    129          1           0        2.730883    3.507490   -0.037890
    130          1           0        1.403636    2.426402   -0.511147
    131          1           0        1.472987    4.006554   -1.230846
    132          1           0        4.625690    2.096131   -3.891116
    133          1           0        6.213012    2.249794   -3.053272
    134          1           0        5.040199    4.840040   -3.203710
    135          1           0        4.534111    4.038762   -4.648252
    136          1           0       -0.447187    0.093486   -4.247345
    137          1           0       -1.636871   -1.134010   -3.969715
    138          1           0       -0.430185   -1.421078   -5.245752
    139          1           0       -2.069875   -3.297590   -4.296523
    140          1           0       -1.778144   -5.097808   -4.644143
    141          1           0       -0.690413   -3.813337   -5.244483
    142          1           0        2.176292   -6.230928    0.807610
    143          1           0        3.336735   -4.994302    3.253187
    144          1           0        0.443492   -6.374257    2.258809
    145          1           0        0.313972   -4.582624    2.162313
    146          1           0        1.245167   -5.283475    3.385972
    147          1           0        3.954982   -7.286057    2.394448
    148          1           0        5.312504   -6.277275    2.857572
    149          1           0        4.268484   -7.116234    0.252140
    150          1           0        5.986471   -7.103483    0.793612
    151          1           0        5.146798   -5.583725    0.246260
    152          1           0        8.598740   -1.512375    3.320690
    153          1           0        7.355542   -2.714347    3.795993
    154          1           0        7.129901   -0.982855    4.268504
    155          1           0        6.441947    2.802354    0.876823
    156          1           0        9.429097    5.073784   -1.244598
    157          1           0        8.154007    4.750950   -2.583952
    158          1           0        9.513130    3.674230   -2.176918
 ---------------------------------------------------------------------

 SCF Done:  E(RCAM-B3LYP) =  -4069.81200198     A.U. after   19 cycles

 Excitation energies and oscillator strengths:

 Excited State   1:      Singlet-A      1.6240 eV  763.44 nm  f=0.1162  <S**2>=0.000
     309 -> 315       -0.11374
     310 -> 316       -0.11439
     311 -> 313       -0.48349
     312 -> 314        0.48879
 This state for optimization and/or second-order correction.
 Total Energy, E(TD-HF/TD-DFT) =  -4069.75232049
 Copying the excited state density for this state as the 1-particle RhoCI density.

 Excited State   2:      Singlet-A      1.7104 eV  724.87 nm  f=0.6002  <S**2>=0.000
     309 -> 315        0.13165
     310 -> 316       -0.12739
     311 -> 313        0.48587
     312 -> 314        0.48074

 Excited State   3:      Singlet-A      2.1473 eV  577.41 nm  f=0.0001  <S**2>=0.000
     312 -> 313        0.70518

 Excited State   4:      Singlet-A      2.1750 eV  570.03 nm  f=0.0018  <S**2>=0.000
     309 -> 313        0.41573
     310 -> 314        0.49509
     311 -> 315       -0.16974
     312 -> 316        0.20127

 Excited State   5:      Singlet-A      2.1959 eV  564.63 nm  f=0.1649  <S**2>=0.000
     309 -> 313        0.48900
     310 -> 314       -0.40949
     311 -> 315       -0.21743
     312 -> 316       -0.18020

 The electronic state is 1-A.
 Alpha  occ. eigenvalues --  -46.88078 -46.87397 -19.26678 -19.26129 -19.19450
 Alpha  occ. eigenvalues --  -19.19036 -19.18936 -19.18470 -19.18451 -19.17795
 Alpha  occ. eigenvalues --  -14.42762 -14.42200 -14.41714 -14.41110 -14.39706
 Alpha  occ. eigenvalues --  -14.39100 -14.38875 -14.38334 -10.39486 -10.38858
 Alpha  occ. eigenvalues --  -10.35665 -10.35149 -10.34694 -10.33968 -10.32069
 Alpha  occ. eigenvalues --  -10.31725 -10.31573 -10.31267 -10.30996 -10.30889
 Alpha  occ. eigenvalues --  -10.30767 -10.30734 -10.30473 -10.30150 -10.30130
 Alpha  occ. eigenvalues --  -10.30114 -10.29959 -10.29908 -10.29657 -10.29561
 Alpha  occ. eigenvalues --  -10.29185 -10.29182 -10.29173 -10.29114 -10.28687
 Alpha  occ. eigenvalues --  -10.28495 -10.28475 -10.28352 -10.28137 -10.28103
 Alpha  occ. eigenvalues --  -10.28040 -10.27933 -10.27871 -10.27747 -10.27716
 Alpha  occ. eigenvalues --  -10.27660 -10.27655 -10.27560 -10.27491 -10.27388
 Alpha  occ. eigenvalues --  -10.27339 -10.27310 -10.27307 -10.27243 -10.27207
 Alpha  occ. eigenvalues --  -10.27194 -10.26768 -10.26683 -10.26552 -10.26441
 Alpha  occ. eigenvalues --  -10.26333 -10.26298 -10.26293 -10.26081 -10.25987
 Alpha  occ. eigenvalues --  -10.25693 -10.25619 -10.25536 -10.25250 -10.25150
 Alpha  occ. eigenvalues --  -10.25136 -10.25020 -10.24745 -10.24614 -10.24581
 Alpha  occ. eigenvalues --  -10.24444  -3.16818  -3.16146  -1.91699  -1.91287
 Alpha  occ. eigenvalues --   -1.91129  -1.91028  -1.90617  -1.90454  -1.17029
 Alpha  occ. eigenvalues --   -1.16421  -1.08930  -1.08403  -1.07411  -1.07051
 Alpha  occ. eigenvalues --   -1.06720  -1.06685  -1.04904  -1.04201  -1.04037
 Alpha  occ. eigenvalues --   -1.03524  -1.03400  -1.02791  -1.02695  -1.01852
 Alpha  occ. eigenvalues --   -0.92286  -0.91712  -0.89742  -0.89583  -0.89276
 Alpha  occ. eigenvalues --   -0.88749  -0.88484  -0.88157  -0.88015  -0.87999
 Alpha  occ. eigenvalues --   -0.87614  -0.87542  -0.87417  -0.86917  -0.85363
 Alpha  occ. eigenvalues --   -0.84674  -0.84127  -0.83686  -0.83261  -0.82995
 Alpha  occ. eigenvalues --   -0.82745  -0.82354  -0.81918  -0.81354  -0.80916
 Alpha  occ. eigenvalues --   -0.80202  -0.79111  -0.78413  -0.77540  -0.77255
 Alpha  occ. eigenvalues --   -0.76884  -0.76610  -0.76258  -0.75480  -0.75114
 Alpha  occ. eigenvalues --   -0.74581  -0.73058  -0.72439  -0.71953  -0.71278
 Alpha  occ. eigenvalues --   -0.70072  -0.69561  -0.69232  -0.68515  -0.67945
 Alpha  occ. eigenvalues --   -0.67633  -0.67367  -0.66963  -0.65663  -0.65157
 Alpha  occ. eigenvalues --   -0.64969  -0.64929  -0.64515  -0.64488  -0.64383
 Alpha  occ. eigenvalues --   -0.63981  -0.62624  -0.62049  -0.60720  -0.60174
 Alpha  occ. eigenvalues --   -0.60148  -0.59454  -0.59270  -0.58794  -0.58741
 Alpha  occ. eigenvalues --   -0.58176  -0.57918  -0.57563  -0.57298  -0.57036
 Alpha  occ. eigenvalues --   -0.56615  -0.56345  -0.55967  -0.55821  -0.55659
 Alpha  occ. eigenvalues --   -0.55582  -0.55263  -0.55037  -0.54791  -0.54302
 Alpha  occ. eigenvalues --   -0.54278  -0.53750  -0.53578  -0.53512  -0.53314
 Alpha  occ. eigenvalues --   -0.53205  -0.52998  -0.52870  -0.52616  -0.52578
 Alpha  occ. eigenvalues --   -0.52312  -0.52214  -0.52165  -0.51993  -0.51643
 Alpha  occ. eigenvalues --   -0.51490  -0.51409  -0.50992  -0.50898  -0.50453
 Alpha  occ. eigenvalues --   -0.50236  -0.50166  -0.49853  -0.49737  -0.49631
 Alpha  occ. eigenvalues --   -0.49429  -0.49408  -0.49150  -0.48927  -0.48901
 Alpha  occ. eigenvalues --   -0.48735  -0.48679  -0.48630  -0.48252  -0.48178
 Alpha  occ. eigenvalues --   -0.48080  -0.47995  -0.47578  -0.47323  -0.47091
 Alpha  occ. eigenvalues --   -0.46932  -0.46883  -0.46643  -0.46454  -0.46426
 Alpha  occ. eigenvalues --   -0.46221  -0.46133  -0.46035  -0.45861  -0.45560
 Alpha  occ. eigenvalues --   -0.45423  -0.44980  -0.44885  -0.44812  -0.44445
 Alpha  occ. eigenvalues --   -0.44392  -0.44321  -0.44271  -0.44168  -0.43877
 Alpha  occ. eigenvalues --   -0.43814  -0.43747  -0.43704  -0.43680  -0.43319
 Alpha  occ. eigenvalues --   -0.43300  -0.43100  -0.43037  -0.42837  -0.42699
 Alpha  occ. eigenvalues --   -0.42636  -0.42349  -0.42261  -0.42006  -0.41873
 Alpha  occ. eigenvalues --   -0.41733  -0.41431  -0.41397  -0.41216  -0.41190
 Alpha  occ. eigenvalues --   -0.41117  -0.40777  -0.40704  -0.40649  -0.40443
 Alpha  occ. eigenvalues --   -0.40397  -0.40220  -0.39948  -0.39574  -0.39223
 Alpha  occ. eigenvalues --   -0.38699  -0.38190  -0.38124  -0.37632  -0.37554
 Alpha  occ. eigenvalues --   -0.37391  -0.37062  -0.37025  -0.36900  -0.36557
 Alpha  occ. eigenvalues --   -0.36474  -0.35966  -0.34578  -0.34165  -0.33984
 Alpha  occ. eigenvalues --   -0.33630  -0.33483  -0.32918  -0.31550  -0.31316
 Alpha  occ. eigenvalues --   -0.30998  -0.30697  -0.30329  -0.29778  -0.29697
 Alpha  occ. eigenvalues --   -0.29619  -0.29076  -0.28952  -0.24367  -0.23771
 Alpha  occ. eigenvalues --   -0.21430  -0.20853
 Alpha virt. eigenvalues --   -0.09084  -0.08535  -0.02037  -0.01439  -0.00396
 Alpha virt. eigenvalues --    0.00231   0.01908   0.02326   0.02550   0.03552
 Alpha virt. eigenvalues --    0.04307   0.04609   0.04984   0.05398   0.05633

 Mulliken charges:
               1
     1  Mg   0.838086
     2  C   -0.004068
     3  C   -0.097087
     4  C   -0.043012
     5  C   -0.063224
     6  N   -0.256778
     7  C   -0.053658
     8  C   -0.013213
     9  C   -0.086183
    10  C    0.044962
    11  C    0.104701
    12  C    0.048816
    13  C   -0.071729
    14  H    0.034070
    15  N   -0.432694
    16  C    0.166751
    17  C   -0.181606
    18  C   -0.008672
    19  C    0.152192
    20  C    0.110767
    21  C    0.010271
    22  O   -0.242135
    23  C    0.067115
    24  N   -0.341042
    25  C    0.040381
    26  C   -0.029264
    27  C   -0.025539
    28  C    0.075760
    29  C    0.075811
    30  C    0.047573
    31  C   -0.024130
    32  N   -0.310950
    33  C    0.081303
    34  C   -0.168834
    35  C    0.008632
    36  C    0.083670
    37  C    0.127163
    38  C    0.046556
    39  O   -0.187357
    40  C   -0.005901
    41  C    0.213253
    42  O   -0.258520
    43  O   -0.304291
    44  C    0.157148
    45  H   -0.017688
    46  H   -0.014205
    47  H   -0.040571
    48  H    0.001812
    49  H   -0.005018
    50  H    0.025959
    51  H    0.017275
    52  H    0.017113
    53  H    0.007315
    54  H    0.046632
    55  H    0.020380
    56  H    0.018013
    57  H    0.005905
    58  H    0.028418
    59  H    0.035139
    60  H    0.036234
    61  H    0.040096
    62  H    0.020404
    63  H    0.020633
    64  H    0.009832
    65  H    0.024601
    66  H    0.012198
    67  H    0.004743
    68  H    0.006410
    69  H    0.002695
    70  H    0.016668
    71  H    0.020902
    72  H    0.031784
    73  H    0.048322
    74  H    0.009792
    75  H    0.046640
    76  H    0.035786
    77  H    0.044646
    78  H    0.045634
    79  H    0.053280
    80  Mg   0.838248
    81  C   -0.016623
    82  C   -0.089757
    83  C   -0.046349
    84  C   -0.065046
    85  N   -0.255038
    86  C   -0.047392
    87  C   -0.015115
    88  C   -0.092674
    89  C    0.048143
    90  C    0.117453
    91  C    0.062850
    92  C   -0.076809
    93  H    0.033229
    94  N   -0.423273
    95  C    0.162263
    96  C   -0.174558
    97  C   -0.008052
    98  C    0.149853
    99  C    0.095783
   100  C    0.019864
   101  O   -0.249367
   102  C    0.050789
   103  N   -0.350011
   104  C    0.036235
   105  C   -0.016939
   106  C   -0.035090
   107  C    0.089067
   108  C    0.066810
   109  C    0.034899
   110  C   -0.007443
   111  N   -0.324231
   112  C    0.078885
   113  C   -0.163135
   114  C    0.002679
   115  C    0.096456
   116  C    0.131317
   117  C    0.042531
   118  O   -0.188289
   119  C    0.000783
   120  C    0.210999
   121  O   -0.251665
   122  O   -0.305155
   123  C    0.152362
   124  H   -0.019559
   125  H   -0.015164
   126  H   -0.041134
   127  H   -0.000182
   128  H   -0.008151
   129  H    0.026796
   130  H    0.020162
   131  H    0.017199
   132  H    0.012860
   133  H    0.036974
   134  H    0.020702
   135  H    0.018213
   136  H    0.006399
   137  H    0.033856
   138  H    0.035342
   139  H    0.037922
   140  H    0.040879
   141  H    0.031572
   142  H    0.013717
   143  H    0.011604
   144  H    0.023985
   145  H    0.018052
   146  H    0.004285
   147  H    0.005449
   148  H    0.003346
   149  H    0.010797
   150  H    0.017439
   151  H    0.030460
   152  H    0.045451
   153  H    0.007822
   154  H    0.047685
   155  H    0.037212
   156  H    0.043517
   157  H    0.049077
   158  H    0.053054
 Sum of Mulliken charges =  -0.00000

 Dipole moment (field-independent basis, Debye):
    X=             -6.6409    Y=              1.9324    Z=             -4.5946  Tot=              8.3034
 Quadrupole moment (field-independent basis, Debye-Ang):
   XX=           -546.3683   YY=           -502.6188   ZZ=           -483.3283
   XY=            -17.4964   XZ=              3.7622   YZ=            -58.7987

 Normal termination of Gaussian 16 at Thu Sep  9 08:19:26 2021.
