 Gaussian 16, Revision A.03,
 Gaussian 16:  ES64L-G16RevA.03 25-Dec-2016

 -----------------------------------
 #p cam-b3lyp/Def2SVP td=(nstates=5)
 -----------------------------------

 --------------------------------
 TDDFT excited states in gaussian
 --------------------------------
 Symbolic Z-matrix:
 Charge =  0 Multiplicity = 1

                         Standard orientation:
 ---------------------------------------------------------------------
 Center     Atomic      Atomic             Coordinates (Angstroms)
 Number     Number       Type             X           Y           Z
 ---------------------------------------------------------------------
      1         12           0        7.811150    0.811597    0.380675
      2          6           0        8.381092   -2.482136   -0.899443
      3          6           0        8.588159    1.991973   -2.725132
      4          6           0        7.757939    3.739004    1.598903
      5          6           0        8.193277   -0.524250    3.576790
      6          7           0        8.392617   -0.214307   -1.492841
      7          6           0        8.516441   -1.483930   -1.866867
      8          6           0        8.729078   -1.658298   -3.400410
      9          6           0        9.333632   -0.221599   -3.735683
     10          6           0        8.706985    0.575451   -2.605219
     11          6           0       10.851537   -0.153084   -3.602364
     12          6           0        7.384015   -1.905974   -4.162770
     13          6           0        7.531599   -2.407708   -5.602157
     14          1           0        6.556388   -3.357510   -6.116149
     15          7           0        7.648235    2.567295   -0.510298
     16          6           0        7.997639    2.864045   -1.785108
     17          6           0        7.683564    4.297077   -1.970737
     18          6           0        7.300612    4.854559   -0.643840
     19          6           0        7.582524    3.734450    0.217124
     20          6           0        7.715139    4.980445   -3.303314
     21          6           0        6.775412    6.189024   -0.217812
     22          8           0        6.728322    6.540898    1.010415
     23          6           0        6.394938    7.119862   -1.295690
     24          7           0        8.171107    1.559333    2.296127
     25          6           0        8.022829    2.860500    2.568084
     26          6           0        8.055505    3.116666    4.045667
     27          6           0        8.014086    1.681356    4.744183
     28          6           0        8.049130    0.798754    3.472154
     29          6           0        9.269705    3.900790    4.562270
     30          6           0        6.889454    1.436211    5.781257
     31          6           0        5.545777    1.421793    5.087410
     32          7           0        8.038944   -1.171662    1.232636
     33          6           0        8.204556   -1.493340    2.587542
     34          6           0        8.426004   -2.949188    2.661955
     35          6           0        8.390105   -3.373611    1.335147
     36          6           0        8.186944   -2.250111    0.483815
     37          6           0        8.683611   -3.693460    3.846916
     38          6           0        8.500698   -4.511455    0.436849
     39          8           0        8.581774   -5.731269    0.588418
     40          6           0        8.620986   -3.963444   -1.053467
     41          6           0        7.659203   -4.746744   -1.904774
     42          8           0        6.426597   -4.637868   -1.742930
     43          8           0        8.325674   -5.312577   -2.922709
     44          6           0        7.424628   -6.080675   -3.822873
     45          1           0        9.038882    2.488399   -3.586730
     46          1           0        7.636388    4.716436    2.070379
     47          1           0        8.235939   -1.023676    4.546432
     48          1           0        9.442403   -2.435645   -3.674861
     49          1           0        8.987085    0.150925   -4.699453
     50          1           0       11.255556   -1.069847   -3.173138
     51          1           0       11.048022    0.693973   -2.944808
     52          1           0       11.313470    0.096015   -4.558055
     53          1           0        6.894994   -0.949781   -4.348822
     54          1           0        6.745390   -2.592192   -3.605466
     55          1           0        8.545538   -2.756087   -5.800825
     56          1           0        7.399821   -1.559945   -6.274565
     57          1           0        8.191417    4.359210   -4.060791
     58          1           0        8.375450    5.841731   -3.203892
     59          1           0        6.725274    5.310583   -3.618764
     60          1           0        7.261013    7.308951   -1.930283
     61          1           0        5.958351    7.987980   -0.803133
     62          1           0        5.649141    6.639772   -1.929921
     63          1           0        7.187054    3.693030    4.361930
     64          1           0        8.932085    1.466253    5.291615
     65          1           0        9.005957    4.809798    5.103423
     66          1           0        9.912983    4.124709    3.711773
     67          1           0        9.944463    3.330463    5.200113
     68          1           0        6.864588    2.244139    6.511723
     69          1           0        7.003746    0.499363    6.326696
     70          1           0        5.294243    2.479753    5.021959
     71          1           0        4.812934    0.882734    5.688715
     72          1           0        5.627907    1.042752    4.068554
     73          1           0        8.079401   -4.597859    3.776475
     74          1           0        8.433333   -3.118277    4.738055
     75          1           0        9.755305   -3.865525    3.748321
     76          1           0        9.655547   -4.114022   -1.360276
     77          1           0        7.816728   -7.096216   -3.879158
     78          1           0        7.355943   -5.512659   -4.750799
     79          1           0        6.417305   -6.269377   -3.450004
     80         12           0       -7.979472   -0.890531    0.262280
     81          6           0       -8.101469    2.276738   -1.420737
     82          6           0       -7.305569    0.828138    3.130492
     83          6           0       -7.420947   -3.673198    1.680819
     84          6           0       -7.525700   -2.374455   -2.858256
     85          7           0       -7.758003    1.271246    0.674512
     86          6           0       -7.886870    2.384866   -0.030881
     87          6           0       -7.859799    3.687484    0.812933
     88          6           0       -7.045791    3.134929    2.082166
     89          6           0       -7.415839    1.656306    1.985031
     90          6           0       -5.538833    3.261007    1.932029
     91          6           0       -9.297794    4.167612    1.217448
     92          6           0       -9.367455    5.591119    1.774721
     93          1           0      -10.540785    6.403311    1.464701
     94          7           0       -7.927337   -1.362074    2.189329
     95          6           0       -7.659873   -0.535813    3.222298
     96          6           0       -7.724614   -1.370247    4.432133
     97          6           0       -7.889556   -2.789225    4.015008
     98          6           0       -7.727936   -2.662761    2.580444
     99          6           0       -7.711406   -0.795361    5.818770
    100          6           0       -8.137350   -4.052931    4.781717
    101          8           0       -8.009234   -5.206521    4.237973
    102          6           0       -8.443216   -3.902762    6.211882
    103          7           0       -7.326914   -2.731016   -0.451263
    104          6           0       -7.218919   -3.791420    0.368372
    105          6           0       -7.000269   -5.064907   -0.413175
    106          6           0       -7.226301   -4.671948   -1.946828
    107          6           0       -7.459046   -3.153475   -1.787335
    108          6           0       -5.627136   -5.716798   -0.252152
    109          6           0       -8.274107   -5.501185   -2.738752
    110          6           0       -9.660653   -5.229235   -2.201234
    111          7           0       -8.019221   -0.230275   -1.794541
    112          6           0       -7.777213   -1.011212   -2.945903
    113          6           0       -7.802483   -0.096449   -4.105647
    114          6           0       -8.036423    1.166807   -3.541769
    115          6           0       -8.128904    1.050719   -2.128451
    116          6           0       -7.575759   -0.465695   -5.461512
    117          6           0       -8.215581    2.573673   -3.819868
    118          8           0       -8.322966    3.250378   -4.841769
    119          6           0       -8.139712    3.373554   -2.448435
    120          6           0       -9.296991    4.333459   -2.405938
    121          8           0      -10.466105    3.912218   -2.357630
    122          8           0       -8.828860    5.579655   -2.210455
    123          6           0       -9.940083    6.566240   -2.150009
    124          1           0       -6.866870    1.249788    4.035276
    125          1           0       -7.328136   -4.673831    2.109297
    126          1           0       -7.490177   -2.774120   -3.873970
    127          1           0       -7.324366    4.512270    0.358165
    128          1           0       -7.421174    3.561869    3.008535
    129          1           0       -5.258885    3.594057    0.943673
    130          1           0       -5.140301    2.273703    2.125590
    131          1           0       -5.134748    3.908110    2.715802
    132          1           0       -9.628516    3.604176    2.099435
    133          1           0       -9.978314    4.068114    0.394267
    134          1           0       -8.447234    6.155356    1.580339
    135          1           0       -9.422158    5.534815    2.864603
    136          1           0       -7.415109    0.260845    5.813527
    137          1           0       -6.908225   -1.300071    6.366525
    138          1           0       -8.653334   -0.952146    6.348735
    139          1           0       -7.622964   -3.385843    6.704274
    140          1           0       -8.677081   -4.907995    6.567833
    141          1           0       -9.326212   -3.262284    6.315437
    142          1           0       -7.724932   -5.819651   -0.133321
    143          1           0       -6.305603   -4.788444   -2.537241
    144          1           0       -5.679731   -6.763185    0.103326
    145          1           0       -5.040388   -5.113307    0.427590
    146          1           0       -5.009899   -5.720996   -1.148926
    147          1           0       -8.092555   -6.570122   -2.602478
    148          1           0       -8.262360   -5.306004   -3.805869
    149          1           0       -9.727115   -5.899879   -1.339309
    150          1           0      -10.414908   -5.469924   -2.947691
    151          1           0       -9.743223   -4.202227   -1.826939
    152          1           0       -8.321932    0.047949   -6.053023
    153          1           0       -7.634500   -1.543880   -5.595090
    154          1           0       -6.558245   -0.089949   -5.598456
    155          1           0       -7.178967    3.889195   -2.422654
    156          1           0       -9.731247    7.329392   -2.906101
    157          1           0       -9.986006    6.900300   -1.096420
    158          1           0      -10.924849    6.231218   -2.454035
 ---------------------------------------------------------------------

 SCF Done:  E(RCAM-B3LYP) =  -4069.81183245     A.U. after   19 cycles

 Excitation energies and oscillator strengths:

 Excited State   1:      Singlet-A      1.6721 eV  741.47 nm  f=0.1470  <S**2>=0.000
     310 -> 316        0.14631
     311 -> 313        0.36577
     312 -> 314        0.58063
 This state for optimization and/or second-order correction.
 Total Energy, E(TD-HF/TD-DFT) =  -4069.75038219
 Copying the excited state density for this state as the 1-particle RhoCI density.

 Excited State   2:      Singlet-A      1.6829 eV  736.75 nm  f=0.6058  <S**2>=0.000
     309 -> 315        0.14911
     311 -> 313        0.57998
     312 -> 314       -0.36542

 Excited State   3:      Singlet-A      2.1857 eV  567.25 nm  f=0.0782  <S**2>=0.000
     309 -> 313        0.10999
     310 -> 314        0.63324
     312 -> 316       -0.26872

 Excited State   4:      Singlet-A      2.1929 eV  565.40 nm  f=0.1181  <S**2>=0.000
     309 -> 313        0.63127
     310 -> 314       -0.10922
     311 -> 315       -0.27423

 Excited State   5:      Singlet-A      2.7661 eV  448.22 nm  f=0.0000  <S**2>=0.000
     312 -> 313        0.70710

 The electronic state is 1-A.
 Alpha  occ. eigenvalues --  -46.87836 -46.87592 -19.26319 -19.26309 -19.19125
 Alpha  occ. eigenvalues --  -19.19048 -19.18857 -19.18642 -19.18202 -19.18004
 Alpha  occ. eigenvalues --  -14.42486 -14.42430 -14.41491 -14.41286 -14.39441
 Alpha  occ. eigenvalues --  -14.39283 -14.38625 -14.38534 -10.39108 -10.39054
 Alpha  occ. eigenvalues --  -10.35489 -10.35319 -10.34421 -10.34181 -10.31734
 Alpha  occ. eigenvalues --  -10.31701 -10.31439 -10.31247 -10.30957 -10.30942
 Alpha  occ. eigenvalues --  -10.30606 -10.30548 -10.30331 -10.30299 -10.30251
 Alpha  occ. eigenvalues --  -10.30063 -10.29966 -10.29820 -10.29668 -10.29366
 Alpha  occ. eigenvalues --  -10.29338 -10.29292 -10.28773 -10.28662 -10.28613
 Alpha  occ. eigenvalues --  -10.28550 -10.28400 -10.28340 -10.28141 -10.28078
 Alpha  occ. eigenvalues --  -10.27938 -10.27829 -10.27762 -10.27621 -10.27601
 Alpha  occ. eigenvalues --  -10.27560 -10.27507 -10.27504 -10.27440 -10.27429
 Alpha  occ. eigenvalues --  -10.27419 -10.27403 -10.27400 -10.27279 -10.27189
 Alpha  occ. eigenvalues --  -10.27003 -10.26724 -10.26644 -10.26444 -10.26344
 Alpha  occ. eigenvalues --  -10.26260 -10.26256 -10.26062 -10.26061 -10.25954
 Alpha  occ. eigenvalues --  -10.25881 -10.25864 -10.25807 -10.25491 -10.25264
 Alpha  occ. eigenvalues --  -10.24868 -10.24830 -10.24812 -10.24777 -10.24662
 Alpha  occ. eigenvalues --  -10.24616  -3.16579  -3.16341  -1.91460  -1.91224
 Alpha  occ. eigenvalues --   -1.91047  -1.90889  -1.90812  -1.90649  -1.16659
 Alpha  occ. eigenvalues --   -1.16612  -1.08659  -1.08613  -1.07258  -1.06910
 Alpha  occ. eigenvalues --   -1.06893  -1.06670  -1.04616  -1.04429  -1.03801
 Alpha  occ. eigenvalues --   -1.03594  -1.03273  -1.02968  -1.02450  -1.02043
 Alpha  occ. eigenvalues --   -0.92007  -0.91927  -0.89571  -0.89422  -0.89214
 Alpha  occ. eigenvalues --   -0.89090  -0.88339  -0.88138  -0.87907  -0.87737
 Alpha  occ. eigenvalues --   -0.87708  -0.87617  -0.87308  -0.87053  -0.85012
 Alpha  occ. eigenvalues --   -0.84938  -0.83993  -0.83796  -0.83007  -0.82859
 Alpha  occ. eigenvalues --   -0.82681  -0.82590  -0.81618  -0.81547  -0.80631
 Alpha  occ. eigenvalues --   -0.80385  -0.78832  -0.78571  -0.77258  -0.77081
 Alpha  occ. eigenvalues --   -0.76968  -0.76836  -0.75953  -0.75781  -0.74945
 Alpha  occ. eigenvalues --   -0.74718  -0.72813  -0.72634  -0.71709  -0.71508
 Alpha  occ. eigenvalues --   -0.69969  -0.69678  -0.68904  -0.68766  -0.67678
 Alpha  occ. eigenvalues --   -0.67537  -0.67247  -0.67142  -0.65317  -0.65214
 Alpha  occ. eigenvalues --   -0.64891  -0.64707  -0.64659  -0.64594  -0.64318
 Alpha  occ. eigenvalues --   -0.64129  -0.62331  -0.62228  -0.60481  -0.60269
 Alpha  occ. eigenvalues --   -0.59834  -0.59735  -0.59026  -0.58926  -0.58542
 Alpha  occ. eigenvalues --   -0.58362  -0.57617  -0.57506  -0.57351  -0.57167
 Alpha  occ. eigenvalues --   -0.56345  -0.56145  -0.56007  -0.55839  -0.55556
 Alpha  occ. eigenvalues --   -0.55394  -0.55387  -0.55179  -0.54567  -0.54424
 Alpha  occ. eigenvalues --   -0.53922  -0.53853  -0.53337  -0.53253  -0.53163
 Alpha  occ. eigenvalues --   -0.53082  -0.52951  -0.52845  -0.52788  -0.52602
 Alpha  occ. eigenvalues --   -0.52502  -0.52329  -0.51952  -0.51834  -0.51644
 Alpha  occ. eigenvalues --   -0.51601  -0.51235  -0.51143  -0.50605  -0.50405
 Alpha  occ. eigenvalues --   -0.50083  -0.49953  -0.49912  -0.49785  -0.49546
 Alpha  occ. eigenvalues --   -0.49424  -0.49248  -0.49144  -0.49124  -0.49046
 Alpha  occ. eigenvalues --   -0.48626  -0.48507  -0.48502  -0.48481  -0.48298
 Alpha  occ. eigenvalues --   -0.48271  -0.47731  -0.47530  -0.47333  -0.47047
 Alpha  occ. eigenvalues --   -0.46838  -0.46642  -0.46583  -0.46492  -0.46399
 Alpha  occ. eigenvalues --   -0.46204  -0.46203  -0.46017  -0.45855  -0.45770
 Alpha  occ. eigenvalues --   -0.45250  -0.45121  -0.44612  -0.44544  -0.44457
 Alpha  occ. eigenvalues --   -0.44414  -0.44190  -0.44118  -0.44066  -0.44052
 Alpha  occ. eigenvalues --   -0.44010  -0.43879  -0.43529  -0.43502  -0.43422
 Alpha  occ. eigenvalues --   -0.43321  -0.43065  -0.42884  -0.42840  -0.42742
 Alpha  occ. eigenvalues --   -0.42700  -0.42478  -0.42057  -0.41898  -0.41741
 Alpha  occ. eigenvalues --   -0.41608  -0.41564  -0.41396  -0.41177  -0.40919
 Alpha  occ. eigenvalues --   -0.40906  -0.40861  -0.40657  -0.40633  -0.40620
 Alpha  occ. eigenvalues --   -0.40416  -0.40257  -0.40171  -0.39507  -0.39348
 Alpha  occ. eigenvalues --   -0.38518  -0.38269  -0.37775  -0.37598  -0.37367
 Alpha  occ. eigenvalues --   -0.37293  -0.37193  -0.37138  -0.36748  -0.36726
 Alpha  occ. eigenvalues --   -0.36231  -0.36149  -0.34324  -0.34187  -0.33820
 Alpha  occ. eigenvalues --   -0.33801  -0.33224  -0.33109  -0.31387  -0.31200
 Alpha  occ. eigenvalues --   -0.31074  -0.30905  -0.30061  -0.29909  -0.29486
 Alpha  occ. eigenvalues --   -0.29358  -0.29261  -0.29150  -0.24119  -0.23968
 Alpha  occ. eigenvalues --   -0.21166  -0.21049
 Alpha virt. eigenvalues --   -0.08811  -0.08726  -0.01790  -0.01613  -0.00094
 Alpha virt. eigenvalues --    0.00037   0.02163   0.02266   0.03075   0.03289
 Alpha virt. eigenvalues --    0.04685   0.04795   0.05070   0.05204   0.06155

 Mulliken charges:
               1
     1  Mg   0.838629
     2  C   -0.002938
     3  C   -0.093917
     4  C   -0.045996
     5  C   -0.064046
     6  N   -0.256785
     7  C   -0.052417
     8  C   -0.014024
     9  C   -0.087021
    10  C    0.046292
    11  C    0.104779
    12  C    0.053424
    13  C   -0.071888
    14  H    0.036200
    15  N   -0.433143
    16  C    0.168380
    17  C   -0.176998
    18  C   -0.004056
    19  C    0.148672
    20  C    0.110109
    21  C    0.012180
    22  O   -0.249902
    23  C    0.062491
    24  N   -0.341087
    25  C    0.041220
    26  C   -0.028143
    27  C   -0.023902
    28  C    0.074730
    29  C    0.076163
    30  C    0.035190
    31  C   -0.004435
    32  N   -0.310463
    33  C    0.080349
    34  C   -0.169767
    35  C    0.008410
    36  C    0.082926
    37  C    0.127325
    38  C    0.046117
    39  O   -0.188344
    40  C   -0.005316
    41  C    0.212909
    42  O   -0.257159
    43  O   -0.304761
    44  C    0.157696
    45  H   -0.017408
    46  H   -0.016999
    47  H   -0.041606
    48  H    0.001010
    49  H   -0.003839
    50  H    0.025490
    51  H    0.016420
    52  H    0.016819
    53  H    0.011298
    54  H    0.044048
    55  H    0.017913
    56  H    0.018146
    57  H    0.006060
    58  H    0.026905
    59  H    0.039820
    60  H    0.037527
    61  H    0.035522
    62  H    0.031660
    63  H    0.016231
    64  H    0.009513
    65  H    0.023063
    66  H    0.012709
    67  H    0.004789
    68  H    0.006143
    69  H    0.004760
    70  H    0.008437
    71  H    0.017704
    72  H    0.029187
    73  H    0.047606
    74  H    0.008977
    75  H    0.046070
    76  H    0.035242
    77  H    0.043006
    78  H    0.046483
    79  H    0.053615
    80  Mg   0.837959
    81  C   -0.016939
    82  C   -0.087794
    83  C   -0.045282
    84  C   -0.064689
    85  N   -0.254593
    86  C   -0.049855
    87  C   -0.015095
    88  C   -0.090491
    89  C    0.045807
    90  C    0.114329
    91  C    0.062529
    92  C   -0.077812
    93  H    0.034638
    94  N   -0.423554
    95  C    0.163049
    96  C   -0.174484
    97  C   -0.007636
    98  C    0.152187
    99  C    0.099312
   100  C    0.015676
   101  O   -0.252907
   102  C    0.061181
   103  N   -0.350014
   104  C    0.037748
   105  C   -0.020021
   106  C   -0.034750
   107  C    0.088898
   108  C    0.073374
   109  C    0.034737
   110  C   -0.007655
   111  N   -0.324051
   112  C    0.078385
   113  C   -0.163240
   114  C    0.002074
   115  C    0.096196
   116  C    0.131521
   117  C    0.042188
   118  O   -0.188412
   119  C    0.000968
   120  C    0.211206
   121  O   -0.251055
   122  O   -0.305666
   123  C    0.152096
   124  H   -0.019591
   125  H   -0.015255
   126  H   -0.040568
   127  H   -0.000802
   128  H   -0.004416
   129  H    0.022361
   130  H    0.014795
   131  H    0.016374
   132  H    0.013910
   133  H    0.037576
   134  H    0.020767
   135  H    0.019600
   136  H    0.008725
   137  H    0.026347
   138  H    0.039695
   139  H    0.038347
   140  H    0.036450
   141  H    0.033726
   142  H    0.014312
   143  H    0.012693
   144  H    0.025363
   145  H    0.012317
   146  H    0.006281
   147  H    0.006404
   148  H    0.003435
   149  H    0.010976
   150  H    0.017696
   151  H    0.029994
   152  H    0.045717
   153  H    0.008481
   154  H    0.046712
   155  H    0.034817
   156  H    0.043657
   157  H    0.049534
   158  H    0.053505
 Sum of Mulliken charges =  -0.00000

 Dipole moment (field-independent basis, Debye):
    X=              3.6681    Y=              3.6818    Z=              0.9565  Tot=              5.2845
 Quadrupole moment (field-independent basis, Debye-Ang):
   XX=           -520.5141   YY=           -532.8406   ZZ=           -465.3454
   XY=             19.6573   XZ=            -63.2371   YZ=             30.4328

 Normal termination of Gaussian 16 at Sat Sep  4 13:48:51 2021.
