 Gaussian 16, Revision A.03,
 Gaussian 16:  ES64L-G16RevA.03 25-Dec-2016

 -----------------------------------
 #p cam-b3lyp/Def2SVP td=(nstates=5)
 -----------------------------------

 --------------------------------
 TDDFT excited states in gaussian
 --------------------------------
 Symbolic Z-matrix:
 Charge =  0 Multiplicity = 1

                         Standard orientation:
 ---------------------------------------------------------------------
 Center     Atomic      Atomic             Coordinates (Angstroms)
 Number     Number       Type             X           Y           Z
 ---------------------------------------------------------------------
      1         12           0        4.904400   -1.303023    0.484341
      2          6           0        5.606169    1.981734   -0.752634
      3          6           0        5.651303   -0.127887    3.599507
      4          6           0        4.733284   -4.290664    1.533789
      5          6           0        5.321260   -2.459855   -2.776583
      6          7           0        5.534019    0.693384    1.204469
      7          6           0        5.708131    1.882743    0.636772
      8          6           0        5.934957    3.030937    1.665157
      9          6           0        6.485855    2.168601    2.887813
     10          6           0        5.823557    0.840488    2.566254
     11          6           0        7.999346    1.980354    2.867596
     12          6           0        4.604176    3.767403    2.037138
     13          6           0        4.778033    5.097903    2.775308
     14          1           0        3.842408    6.178159    2.501442
     15          7           0        4.678996   -2.006399    2.316636
     16          6           0        5.023192   -1.385543    3.470479
     17          6           0        4.655534   -2.316041    4.559368
     18          6           0        4.244917   -3.605265    3.936961
     19          6           0        4.565098   -3.357779    2.554350
     20          6           0        4.667656   -1.933683    6.007610
     21          6           0        3.666990   -4.864821    4.500567
     22          8           0        3.600337   -5.945988    3.821445
     23          6           0        3.256638   -4.823527    5.915823
     24          7           0        5.225924   -3.150717   -0.432329
     25          6           0        5.026682   -4.294485    0.231810
     26          6           0        5.042142   -5.473817   -0.694946
     27          6           0        5.052088   -4.873281   -2.174476
     28          6           0        5.127200   -3.368167   -1.817742
     29          6           0        6.222894   -6.440328   -0.528530
     30          6           0        3.932458   -5.348892   -3.133977
     31          6           0        2.593808   -4.831568   -2.657019
     32          7           0        5.203524   -0.406568   -1.469614
     33          6           0        5.374512   -1.078816   -2.688433
     34          6           0        5.651042   -0.054062   -3.711897
     35          6           0        5.638034    1.149556   -3.009770
     36          6           0        5.396369    0.890609   -1.630337
     37          6           0        5.930953   -0.301653   -5.084770
     38          6           0        5.796518    2.591992   -3.099860
     39          8           0        5.923376    3.394266   -4.026012
     40          6           0        5.903249    3.177562   -1.622855
     41          6           0        4.976373    4.359244   -1.534339
     42          8           0        3.739711    4.209286   -1.608814
     43          8           0        5.669068    5.439080   -1.141057
     44          6           0        4.802547    6.640209   -1.004728
     45          1           0        6.087043    0.065117    4.581760
     46          1           0        4.572118   -5.328188    1.833801
     47          1           0        5.378111   -2.738542   -3.830412
     48          1           0        6.678826    3.769284    1.365280
     49          1           0        6.130163    2.547288    3.845833
     50          1           0        8.435938    2.361580    1.944571
     51          1           0        8.160029    0.905162    2.949055
     52          1           0        8.456209    2.419656    3.754764
     53          1           0        4.079920    3.196985    2.803845
     54          1           0        3.989448    3.924829    1.150203
     55          1           0        5.805524    5.457353    2.712328
     56          1           0        4.617334    4.921895    3.838980
     57          1           0        5.171110   -0.980806    6.166050
     58          1           0        5.294073   -2.660978    6.523704
     59          1           0        3.667494   -1.936581    6.441201
     60          1           0        4.118027   -4.567182    6.532950
     61          1           0        2.784741   -5.783934    6.120228
     62          1           0        2.532915   -4.019106    6.050283
     63          1           0        4.150731   -6.085888   -0.563863
     64          1           0        5.974880   -5.108677   -2.705248
     65          1           0        5.921902   -7.469094   -0.329160
     66          1           0        6.861402   -6.058417    0.267549
     67          1           0        6.915743   -6.464557   -1.369238
     68          1           0        3.873084   -6.436737   -3.137712
     69          1           0        4.079724   -5.021250   -4.163158
     70          1           0        2.302370   -5.565770   -1.906791
     71          1           0        1.879090   -4.809895   -3.480378
     72          1           0        2.695464   -3.871326   -2.150968
     73          1           0        5.362097    0.436509   -5.650003
     74          1           0        5.654420   -1.316869   -5.368441
     75          1           0        7.008920   -0.141934   -5.103066
     76          1           0        6.944332    3.461721   -1.472782
     77          1           0        5.233436    7.419834   -1.633022
     78          1           0        4.716863    6.840874    0.063353
     79          1           0        3.801313    6.563064   -1.430072
     80         12           0       -5.571849   -0.059849   -0.445906
     81          6           0       -3.108256    2.549439   -0.408460
     82          6           0       -7.019682    1.473334    2.235095
     83          6           0       -7.487496   -2.573968   -0.168524
     84          6           0       -3.334407   -1.955024   -2.329470
     85          7           0       -5.040182    1.769874    0.677361
     86          6           0       -4.118440    2.714032    0.562051
     87          6           0       -4.334983    3.940833    1.488137
     88          6           0       -5.217428    3.230227    2.626196
     89          6           0       -5.829702    2.105393    1.794002
     90          6           0       -4.383250    2.606174    3.732560
     91          6           0       -5.131238    5.091932    0.778942
     92          6           0       -5.111489    6.434484    1.513057
     93          1           0       -5.084163    7.660755    0.720603
     94          7           0       -7.303094   -0.256690    0.504155
     95          6           0       -7.739456    0.464357    1.558184
     96          6           0       -9.061942   -0.082102    1.899627
     97          6           0       -9.299002   -1.291992    1.066143
     98          6           0       -8.001984   -1.436279    0.436046
     99          6           0       -9.991504    0.584420    2.871785
    100          6           0      -10.491221   -2.180532    0.878292
    101          8           0      -10.399761   -3.313955    0.286839
    102          6           0      -11.749399   -1.727258    1.489039
    103          7           0       -5.354674   -2.061805   -0.962964
    104          6           0       -6.360608   -2.935522   -0.782309
    105          6           0       -6.076361   -4.245874   -1.476996
    106          6           0       -4.773728   -3.986215   -2.367665
    107          6           0       -4.464739   -2.532778   -1.946427
    108          6           0       -5.835522   -5.445762   -0.561230
    109          6           0       -4.881418   -4.309566   -3.883097
    110          6           0       -5.838830   -3.347810   -4.549269
    111          7           0       -3.660865    0.279479   -1.395134
    112          6           0       -2.885861   -0.658571   -2.111726
    113          6           0       -1.615627    0.006822   -2.466927
    114          6           0       -1.731177    1.288531   -1.908037
    115          6           0       -2.976473    1.406419   -1.233611
    116          6           0       -0.531889   -0.590586   -3.170294
    117          6           0       -1.078380    2.565044   -1.726170
    118          8           0       -0.042960    3.079052   -2.147401
    119          6           0       -1.887302    3.395990   -0.639173
    120          6           0       -2.090122    4.787044   -1.174284
    121          8           0       -2.796858    4.980917   -2.179053
    122          8           0       -1.598578    5.674985   -0.290933
    123          6           0       -1.786283    7.069649   -0.772066
    124          1           0       -7.419634    1.744644    3.212495
    125          1           0       -8.156897   -3.436876   -0.196297
    126          1           0       -2.625868   -2.446020   -2.999969
    127          1           0       -3.429357    4.349029    1.920559
    128          1           0       -5.992798    3.895251    2.997569
    129          1           0       -3.327260    2.641025    3.509404
    130          1           0       -4.719571    1.580667    3.811737
    131          1           0       -4.618296    3.075368    4.692216
    132          1           0       -6.204517    4.867237    0.827076
    133          1           0       -4.790029    5.226249   -0.229115
    134          1           0       -4.343351    6.465250    2.295341
    135          1           0       -6.052583    6.546447    2.056958
    136          1           0       -9.478627    1.363490    3.449181
    137          1           0      -10.267973   -0.168751    3.617557
    138          1           0      -10.899658    0.960582    2.395937
    139          1           0      -11.607433   -1.605156    2.560202
    140          1           0      -12.505042   -2.448084    1.170794
    141          1           0      -11.995546   -0.737181    1.089326
    142          1           0       -6.896600   -4.524884   -2.126968
    143          1           0       -3.922932   -4.597923   -2.033292
    144          1           0       -6.525450   -6.288566   -0.755546
    145          1           0       -5.919891   -5.114173    0.465163
    146          1           0       -4.826516   -5.853547   -0.590066
    147          1           0       -5.295607   -5.310320   -4.028300
    148          1           0       -3.928354   -4.277307   -4.400424
    149          1           0       -6.817222   -3.793850   -4.347082
    150          1           0       -5.643802   -3.292029   -5.618323
    151          1           0       -5.816014   -2.367313   -4.059614
    152          1           0       -0.191039    0.137893   -3.893922
    153          1           0       -0.833478   -1.518773   -3.651216
    154          1           0        0.164558   -0.763127   -2.345388
    155          1           0       -1.299800    3.392465    0.279750
    156          1           0       -0.799002    7.541827   -0.776100
    157          1           0       -2.554031    7.513115   -0.110515
    158          1           0       -2.090852    7.207491   -1.802941
 ---------------------------------------------------------------------

 SCF Done:  E(RCAM-B3LYP) =  -4069.80818892     A.U. after   19 cycles

 Excitation energies and oscillator strengths:

 Excited State   1:      Singlet-A      1.6573 eV  748.12 nm  f=0.1870  <S**2>=0.000
     309 -> 315       -0.11466
     310 -> 316        0.12433
     311 -> 313       -0.46569
     312 -> 314        0.50509
 This state for optimization and/or second-order correction.
 Total Energy, E(TD-HF/TD-DFT) =  -4069.74728495
 Copying the excited state density for this state as the 1-particle RhoCI density.

 Excited State   2:      Singlet-A      1.6974 eV  730.42 nm  f=0.5718  <S**2>=0.000
     309 -> 315        0.13156
     310 -> 316        0.12069
     311 -> 313        0.50329
     312 -> 314        0.46424

 Excited State   3:      Singlet-A      2.1831 eV  567.92 nm  f=0.0016  <S**2>=0.000
     309 -> 313       -0.42235
     310 -> 314        0.48577
     311 -> 315        0.17756
     312 -> 316       -0.20478

 Excited State   4:      Singlet-A      2.1953 eV  564.78 nm  f=0.1747  <S**2>=0.000
     309 -> 313        0.48185
     310 -> 314        0.41887
     311 -> 315       -0.21315
     312 -> 316       -0.18396

 Excited State   5:      Singlet-A      2.5143 eV  493.12 nm  f=0.0000  <S**2>=0.000
     311 -> 314        0.70609

 The electronic state is 1-A.
 Alpha  occ. eigenvalues --  -46.87573 -46.87419 -19.26029 -19.25708 -19.18812
 Alpha  occ. eigenvalues --  -19.18645 -19.18496 -19.18278 -19.17802 -19.17462
 Alpha  occ. eigenvalues --  -14.42276 -14.42223 -14.41243 -14.41118 -14.39183
 Alpha  occ. eigenvalues --  -14.39106 -14.38336 -14.38333 -10.38749 -10.38387
 Alpha  occ. eigenvalues --  -10.35284 -10.35179 -10.34013 -10.33655 -10.31520
 Alpha  occ. eigenvalues --  -10.31207 -10.31147 -10.31053 -10.30805 -10.30665
 Alpha  occ. eigenvalues --  -10.30314 -10.30275 -10.30128 -10.30078 -10.30047
 Alpha  occ. eigenvalues --  -10.29942 -10.29708 -10.29635 -10.29393 -10.29215
 Alpha  occ. eigenvalues --  -10.29127 -10.29055 -10.28541 -10.28529 -10.28489
 Alpha  occ. eigenvalues --  -10.28306 -10.28135 -10.28102 -10.27969 -10.27884
 Alpha  occ. eigenvalues --  -10.27699 -10.27542 -10.27510 -10.27444 -10.27405
 Alpha  occ. eigenvalues --  -10.27359 -10.27332 -10.27331 -10.27322 -10.27271
 Alpha  occ. eigenvalues --  -10.27233 -10.27204 -10.27174 -10.27136 -10.26748
 Alpha  occ. eigenvalues --  -10.26662 -10.26525 -10.26404 -10.26289 -10.26242
 Alpha  occ. eigenvalues --  -10.26172 -10.26029 -10.25983 -10.25909 -10.25827
 Alpha  occ. eigenvalues --  -10.25705 -10.25596 -10.25514 -10.25325 -10.25207
 Alpha  occ. eigenvalues --  -10.24760 -10.24574 -10.24572 -10.24566 -10.24558
 Alpha  occ. eigenvalues --  -10.24438  -3.16317  -3.16170  -1.91198  -1.91052
 Alpha  occ. eigenvalues --   -1.90785  -1.90641  -1.90626  -1.90477  -1.16314
 Alpha  occ. eigenvalues --   -1.16037  -1.08231  -1.08063  -1.07052  -1.06753
 Alpha  occ. eigenvalues --   -1.06584  -1.05937  -1.04342  -1.04261  -1.03549
 Alpha  occ. eigenvalues --   -1.03420  -1.03004  -1.02789  -1.02181  -1.01856
 Alpha  occ. eigenvalues --   -0.91690  -0.91674  -0.89366  -0.89266  -0.88969
 Alpha  occ. eigenvalues --   -0.88943  -0.88134  -0.88006  -0.87620  -0.87499
 Alpha  occ. eigenvalues --   -0.87452  -0.87449  -0.87079  -0.86890  -0.84798
 Alpha  occ. eigenvalues --   -0.84744  -0.83801  -0.83663  -0.82812  -0.82725
 Alpha  occ. eigenvalues --   -0.82443  -0.82406  -0.81323  -0.81247  -0.80319
 Alpha  occ. eigenvalues --   -0.80192  -0.78584  -0.78384  -0.77028  -0.76935
 Alpha  occ. eigenvalues --   -0.76688  -0.76682  -0.75644  -0.75605  -0.74715
 Alpha  occ. eigenvalues --   -0.74580  -0.72552  -0.72443  -0.71443  -0.71349
 Alpha  occ. eigenvalues --   -0.69820  -0.69568  -0.68640  -0.68614  -0.67400
 Alpha  occ. eigenvalues --   -0.67335  -0.66999  -0.66982  -0.65049  -0.65032
 Alpha  occ. eigenvalues --   -0.64608  -0.64530  -0.64415  -0.64360  -0.64092
 Alpha  occ. eigenvalues --   -0.63976  -0.61999  -0.61909  -0.60254  -0.60104
 Alpha  occ. eigenvalues --   -0.59583  -0.59561  -0.58749  -0.58737  -0.58246
 Alpha  occ. eigenvalues --   -0.58153  -0.57245  -0.57204  -0.56997  -0.56973
 Alpha  occ. eigenvalues --   -0.56075  -0.55946  -0.55623  -0.55583  -0.55303
 Alpha  occ. eigenvalues --   -0.55210  -0.55109  -0.54996  -0.54233  -0.54193
 Alpha  occ. eigenvalues --   -0.53719  -0.53639  -0.53092  -0.52989  -0.52977
 Alpha  occ. eigenvalues --   -0.52905  -0.52655  -0.52611  -0.52560  -0.52471
 Alpha  occ. eigenvalues --   -0.52264  -0.52195  -0.51640  -0.51570  -0.51450
 Alpha  occ. eigenvalues --   -0.51364  -0.50937  -0.50886  -0.50422  -0.50279
 Alpha  occ. eigenvalues --   -0.49913  -0.49781  -0.49723  -0.49650  -0.49276
 Alpha  occ. eigenvalues --   -0.49273  -0.48958  -0.48924  -0.48851  -0.48805
 Alpha  occ. eigenvalues --   -0.48339  -0.48293  -0.48226  -0.48167  -0.48143
 Alpha  occ. eigenvalues --   -0.47980  -0.47471  -0.47347  -0.47069  -0.46894
 Alpha  occ. eigenvalues --   -0.46594  -0.46484  -0.46355  -0.46303  -0.46146
 Alpha  occ. eigenvalues --   -0.46029  -0.45872  -0.45829  -0.45528  -0.45502
 Alpha  occ. eigenvalues --   -0.45035  -0.44986  -0.44342  -0.44304  -0.44272
 Alpha  occ. eigenvalues --   -0.44189  -0.43976  -0.43882  -0.43866  -0.43847
 Alpha  occ. eigenvalues --   -0.43714  -0.43622  -0.43304  -0.43192  -0.43162
 Alpha  occ. eigenvalues --   -0.43138  -0.42785  -0.42667  -0.42589  -0.42567
 Alpha  occ. eigenvalues --   -0.42343  -0.42170  -0.41820  -0.41754  -0.41433
 Alpha  occ. eigenvalues --   -0.41314  -0.41303  -0.41257  -0.40913  -0.40745
 Alpha  occ. eigenvalues --   -0.40686  -0.40650  -0.40525  -0.40510  -0.40386
 Alpha  occ. eigenvalues --   -0.40274  -0.40056  -0.39988  -0.39380  -0.39240
 Alpha  occ. eigenvalues --   -0.38320  -0.38152  -0.37504  -0.37468  -0.37145
 Alpha  occ. eigenvalues --   -0.37050  -0.37008  -0.36974  -0.36474  -0.36333
 Alpha  occ. eigenvalues --   -0.35969  -0.35741  -0.34048  -0.33998  -0.33531
 Alpha  occ. eigenvalues --   -0.33182  -0.32921  -0.32833  -0.31174  -0.31057
 Alpha  occ. eigenvalues --   -0.30782  -0.30730  -0.29653  -0.29364  -0.29228
 Alpha  occ. eigenvalues --   -0.29068  -0.29049  -0.28882  -0.23839  -0.23789
 Alpha  occ. eigenvalues --   -0.20903  -0.20870
 Alpha virt. eigenvalues --   -0.08539  -0.08523  -0.01540  -0.01453   0.00165
 Alpha virt. eigenvalues --    0.00223   0.02486   0.02528   0.03170   0.03461
 Alpha virt. eigenvalues --    0.04929   0.04944   0.05526   0.05705   0.06342

 Mulliken charges:
               1
     1  Mg   0.837503
     2  C    0.000966
     3  C   -0.094361
     4  C   -0.046554
     5  C   -0.065138
     6  N   -0.256425
     7  C   -0.052400
     8  C   -0.014016
     9  C   -0.086892
    10  C    0.045990
    11  C    0.105010
    12  C    0.053064
    13  C   -0.070857
    14  H    0.035454
    15  N   -0.433028
    16  C    0.167823
    17  C   -0.177799
    18  C   -0.004711
    19  C    0.148379
    20  C    0.110412
    21  C    0.011700
    22  O   -0.250618
    23  C    0.062758
    24  N   -0.341090
    25  C    0.040642
    26  C   -0.027914
    27  C   -0.023937
    28  C    0.074777
    29  C    0.076347
    30  C    0.035459
    31  C   -0.004502
    32  N   -0.311561
    33  C    0.081096
    34  C   -0.169217
    35  C    0.009646
    36  C    0.085969
    37  C    0.126704
    38  C    0.051107
    39  O   -0.186837
    40  C   -0.006872
    41  C    0.209035
    42  O   -0.243001
    43  O   -0.307048
    44  C    0.157749
    45  H   -0.018334
    46  H   -0.017809
    47  H   -0.042295
    48  H    0.000941
    49  H   -0.004898
    50  H    0.025441
    51  H    0.016069
    52  H    0.015852
    53  H    0.009712
    54  H    0.049191
    55  H    0.017322
    56  H    0.016290
    57  H    0.005371
    58  H    0.026165
    59  H    0.038337
    60  H    0.037137
    61  H    0.034894
    62  H    0.030917
    63  H    0.015477
    64  H    0.009447
    65  H    0.022583
    66  H    0.012767
    67  H    0.004411
    68  H    0.005979
    69  H    0.004790
    70  H    0.008552
    71  H    0.015192
    72  H    0.029006
    73  H    0.049417
    74  H    0.007994
    75  H    0.045572
    76  H    0.033689
    77  H    0.040935
    78  H    0.043854
    79  H    0.056656
    80  Mg   0.836823
    81  C   -0.016788
    82  C   -0.088017
    83  C   -0.045821
    84  C   -0.065470
    85  N   -0.254116
    86  C   -0.050299
    87  C   -0.014620
    88  C   -0.090361
    89  C    0.045054
    90  C    0.114649
    91  C    0.062714
    92  C   -0.077303
    93  H    0.034504
    94  N   -0.423300
    95  C    0.162176
    96  C   -0.175315
    97  C   -0.008414
    98  C    0.151671
    99  C    0.099665
   100  C    0.015115
   101  O   -0.253908
   102  C    0.061392
   103  N   -0.350125
   104  C    0.037124
   105  C   -0.019609
   106  C   -0.034827
   107  C    0.089473
   108  C    0.073735
   109  C    0.034876
   110  C   -0.007533
   111  N   -0.324426
   112  C    0.078954
   113  C   -0.165606
   114  C    0.004674
   115  C    0.095755
   116  C    0.132996
   117  C    0.040219
   118  O   -0.170626
   119  C    0.000763
   120  C    0.213726
   121  O   -0.251619
   122  O   -0.305711
   123  C    0.153087
   124  H   -0.020750
   125  H   -0.016217
   126  H   -0.040925
   127  H   -0.001290
   128  H   -0.004970
   129  H    0.021632
   130  H    0.014208
   131  H    0.014957
   132  H    0.013807
   133  H    0.038191
   134  H    0.019854
   135  H    0.019090
   136  H    0.008008
   137  H    0.025248
   138  H    0.039072
   139  H    0.037842
   140  H    0.035743
   141  H    0.033629
   142  H    0.013921
   143  H    0.012373
   144  H    0.024554
   145  H    0.011580
   146  H    0.005723
   147  H    0.005750
   148  H    0.002984
   149  H    0.010778
   150  H    0.017504
   151  H    0.030562
   152  H    0.049258
   153  H    0.006538
   154  H    0.047565
   155  H    0.035070
   156  H    0.042119
   157  H    0.047844
   158  H    0.053978
 Sum of Mulliken charges =  -0.00000

 Dipole moment (field-independent basis, Debye):
    X=             -0.0119    Y=              0.6947    Z=              7.4848  Tot=              7.5170
 Quadrupole moment (field-independent basis, Debye-Ang):
   XX=           -494.7352   YY=           -502.0437   ZZ=           -489.1034
   XY=            -26.8875   XZ=              1.3042   YZ=             57.0183

 Normal termination of Gaussian 16 at Fri Sep 10 20:26:22 2021.
