 Gaussian 16, Revision A.03,
 Gaussian 16:  ES64L-G16RevA.03 25-Dec-2016

 -----------------------------------
 #p cam-b3lyp/Def2SVP td=(nstates=5)
 -----------------------------------

 --------------------------------
 TDDFT excited states in gaussian
 --------------------------------
 Symbolic Z-matrix:
 Charge =  0 Multiplicity = 1

                         Standard orientation:
 ---------------------------------------------------------------------
 Center     Atomic      Atomic             Coordinates (Angstroms)
 Number     Number       Type             X           Y           Z
 ---------------------------------------------------------------------
      1         12           0      -15.897188   -0.664805    0.089826
      2          6           0      -16.071010    2.868004    0.638695
      3          6           0      -16.784468   -0.055157   -3.148094
      4          6           0      -16.193515   -3.797404   -0.304677
      5          6           0      -16.143686   -1.064469    3.543110
      6          7           0      -16.342179    1.211401   -0.997593
      7          6           0      -16.314803    2.503765   -0.687404
      8          6           0      -16.494947    3.439015   -1.920380
      9          6           0      -17.260202    2.431669   -2.890760
     10          6           0      -16.738499    1.117473   -2.337009
     11          6           0      -18.776665    2.464823   -2.730317
     12          6           0      -15.124888    3.891122   -2.528877
     13          6           0      -15.202990    5.054661   -3.521566
     14          1           0      -14.120305    6.026484   -3.548022
     15          7           0      -15.933428   -1.750552   -1.560231
     16          6           0      -16.306040   -1.335450   -2.794791
     17          6           0      -16.159552   -2.509992   -3.681173
     18          6           0      -15.853384   -3.690153   -2.825851
     19          6           0      -16.009076   -3.124408   -1.510150
     20          6           0      -16.261082   -2.432283   -5.173622
     21          6           0      -15.490030   -5.106133   -3.143824
     22          8           0      -15.492818   -6.025077   -2.254944
     23          6           0      -15.212902   -5.411265   -4.559146
     24          7           0      -16.355131   -2.224030    1.400071
     25          6           0      -16.361173   -3.495336    0.984466
     26          6           0      -16.433796   -4.447577    2.141144
     27          6           0      -16.230546   -3.563334    3.455129
     28          6           0      -16.153731   -2.166807    2.790237
     29          6           0      -17.734581   -5.253070    2.264234
     30          6           0      -15.092328   -3.985550    4.417737
     31          6           0      -13.751269   -3.768257    3.753326
     32          7           0      -15.898633    0.643093    1.822006
     33          6           0      -16.035187    0.263385    3.165080
     34          6           0      -16.086245    1.503230    3.961476
     35          6           0      -15.991901    2.525029    3.018676
     36          6           0      -15.914885    1.959795    1.713735
     37          6           0      -16.263803    1.581597    5.371002
     38          6           0      -15.963041    3.963333    2.808191
     39          8           0      -15.902691    4.946874    3.547447
     40          6           0      -16.135824    4.245341    1.250486
     41          6           0      -15.083485    5.242981    0.849734
     42          8           0      -13.873085    4.940015    0.872349
     43          8           0      -15.672433    6.306237    0.281254
     44          6           0      -14.681842    7.321432   -0.166253
     45          1           0      -17.283839   -0.006993   -4.117759
     46          1           0      -16.189833   -4.886381   -0.385637
     47          1           0      -16.134743   -1.112285    4.633562
     48          1           0      -17.111033    4.319454   -1.736834
     49          1           0      -16.952606    2.554121   -3.929082
     50          1           0      -19.074266    3.082974   -1.883414
     51          1           0      -19.074986    1.428758   -2.568860
     52          1           0      -19.257732    2.773957   -3.658642
     53          1           0      -14.749159    3.109169   -3.188753
     54          1           0      -14.414677    4.138161   -1.739005
     55          1           0      -16.168086    5.559369   -3.468952
     56          1           0      -15.166041    4.645328   -4.531161
     57          1           0      -16.656514   -1.470743   -5.498614
     58          1           0      -17.017808   -3.154521   -5.479314
     59          1           0      -15.314169   -2.663013   -5.661935
     60          1           0      -16.090625   -5.167991   -5.158287
     61          1           0      -14.883760   -6.449482   -4.584061
     62          1           0      -14.411879   -4.760179   -4.910427
     63          1           0      -15.640549   -5.191932    2.085273
     64          1           0      -17.121097   -3.554577    4.084031
     65          1           0      -17.582198   -6.332630    2.270202
     66          1           0      -18.393564   -4.955647    1.449022
     67          1           0      -18.342849   -5.008774    3.134720
     68          1           0      -15.166765   -5.047298    4.650324
     69          1           0      -15.100656   -3.438163    5.360365
     70          1           0      -13.624095   -4.673050    3.160023
     71          1           0      -12.964915   -3.679675    4.503666
     72          1           0      -13.781589   -2.926413    3.061325
     73          1           0      -15.557983    2.332403    5.726076
     74          1           0      -16.088408    0.616820    5.846444
     75          1           0      -17.307478    1.890715    5.426178
     76          1           0      -17.143659    4.635658    1.112488
     77          1           0      -14.952706    8.264930    0.307749
     78          1           0      -14.673212    7.286711   -1.255805
     79          1           0      -13.662044    7.193276    0.198340
     80         12           0       15.857062   -0.895617   -0.081283
     81          6           0       16.762345    2.551720    0.337524
     82          6           0       14.063675    0.062944   -2.819809
     83          6           0       14.679478   -3.838785   -0.217070
     84          6           0       16.744689   -1.389664    3.252444
     85          7           0       15.532591    1.080699   -1.019984
     86          6           0       15.977145    2.310427   -0.809065
     87          6           0       15.623359    3.323464   -1.930732
     88          6           0       14.332099    2.579064   -2.528553
     89          6           0       14.672610    1.143635   -2.133229
     90          6           0       13.037277    2.970777   -1.836210
     91          6           0       16.761699    3.449367   -3.003265
     92          6           0       16.620669    4.640153   -3.953992
     93          1           0       17.833064    5.315982   -4.407686
     94          7           0       14.975279   -1.858350   -1.575997
     95          6           0       14.311984   -1.312365   -2.616769
     96          6           0       13.833574   -2.443314   -3.426850
     97          6           0       14.126858   -3.703808   -2.692115
     98          6           0       14.596768   -3.169764   -1.429557
     99          6           0       13.242939   -2.271120   -4.796133
    100          6           0       13.992930   -5.150574   -3.059766
    101          8           0       14.081811   -6.079584   -2.181210
    102          6           0       13.661904   -5.442695   -4.462106
    103          7           0       15.528051   -2.350809    1.366647
    104          6           0       15.054821   -3.564158    1.032335
    105          6           0       15.160607   -4.528716    2.189409
    106          6           0       16.029601   -3.774040    3.299771
    107          6           0       16.208209   -2.410131    2.597451
    108          6           0       13.835139   -4.981156    2.801627
    109          6           0       17.295110   -4.507949    3.821817
    110          6           0       18.325125   -4.608046    2.719809
    111          7           0       16.787634    0.283538    1.471673
    112          6           0       17.042140   -0.109108    2.804025
    113          6           0       17.582419    1.070786    3.509975
    114          6           0       17.583218    2.082312    2.537709
    115          6           0       17.060151    1.574481    1.317865
    116          6           0       17.947985    1.122444    4.884682
    117          6           0       17.897677    3.467065    2.268895
    118          8           0       18.447577    4.370764    2.897117
    119          6           0       17.262302    3.866788    0.867850
    120          6           0       18.313114    4.589831    0.070643
    121          8           0       19.339031    3.997095   -0.307210
    122          8           0       17.836365    5.792776   -0.298122
    123          6           0       18.838507    6.543365   -1.100704
    124          1           0       13.290692    0.285505   -3.555913
    125          1           0       14.388524   -4.891575   -0.238660
    126          1           0       17.136996   -1.488492    4.266844
    127          1           0       15.353508    4.312685   -1.580847
    128          1           0       14.285793    2.675899   -3.610147
    129          1           0       13.214537    3.598270   -0.975414
    130          1           0       12.570711    2.041285   -1.537197
    131          1           0       12.352693    3.435078   -2.551816
    132          1           0       16.670250    2.624022   -3.721038
    133          1           0       17.726086    3.473680   -2.534244
    134          1           0       15.885543    5.370196   -3.594016
    135          1           0       16.203086    4.282662   -4.898366
    136          1           0       13.002702   -1.220616   -5.001385
    137          1           0       12.270886   -2.776037   -4.790882
    138          1           0       13.864059   -2.708354   -5.580797
    139          1           0       12.722568   -4.959223   -4.719691
    140          1           0       13.697087   -6.530295   -4.550225
    141          1           0       14.431072   -4.997669   -5.103164
    142          1           0       15.677905   -5.432964    1.893017
    143          1           0       15.446950   -3.583336    4.213002
    144          1           0       13.705707   -6.079930    2.799114
    145          1           0       13.028857   -4.502063    2.262261
    146          1           0       13.660345   -4.647220    3.822965
    147          1           0       17.047165   -5.532768    4.108935
    148          1           0       17.745116   -4.031249    4.686253
    149          1           0       18.000847   -5.489276    2.158228
    150          1           0       19.319999   -4.750014    3.137080
    151          1           0       18.264436   -3.746370    2.044920
    152          1           0       18.887430    1.656478    4.937173
    153          1           0       18.032315    0.125165    5.311407
    154          1           0       17.095875    1.672742    5.292546
    155          1           0       16.395322    4.497159    1.069221
    156          1           0       18.991110    7.505628   -0.602264
    157          1           0       18.437854    6.567988   -2.131547
    158          1           0       19.850421    6.156394   -1.127815
 ---------------------------------------------------------------------

 SCF Done:  E(RCAM-B3LYP) =  -4069.81176827     A.U. after   19 cycles

 Excitation energies and oscillator strengths:

 Excited State   1:      Singlet-A      1.6754 eV  740.05 nm  f=0.2439  <S**2>=0.000
     310 -> 316        0.16948
     311 -> 314       -0.14764
     312 -> 313        0.66998
     310 <- 316        0.10217
 This state for optimization and/or second-order correction.
 Total Energy, E(TD-HF/TD-DFT) =  -4069.75019994
 Copying the excited state density for this state as the 1-particle RhoCI density.

 Excited State   2:      Singlet-A      1.6801 eV  737.98 nm  f=0.5343  <S**2>=0.000
     309 -> 315        0.17149
     311 -> 314        0.66961
     312 -> 313        0.14759
     309 <- 315        0.10268

 Excited State   3:      Singlet-A      2.1861 eV  567.16 nm  f=0.0951  <S**2>=0.000
     310 -> 313        0.64211
     312 -> 316       -0.27294

 Excited State   4:      Singlet-A      2.1926 eV  565.48 nm  f=0.1050  <S**2>=0.000
     309 -> 314        0.64033
     311 -> 315       -0.27815

 Excited State   5:      Singlet-A      3.0640 eV  404.65 nm  f=0.0000  <S**2>=0.000
     312 -> 314        0.70711

 The electronic state is 1-A.
 Alpha  occ. eigenvalues --  -46.87809 -46.87660 -19.26350 -19.26298 -19.19161
 Alpha  occ. eigenvalues --  -19.19034 -19.18827 -19.18715 -19.18181 -19.18051
 Alpha  occ. eigenvalues --  -14.42497 -14.42462 -14.41461 -14.41359 -14.39415
 Alpha  occ. eigenvalues --  -14.39352 -14.38600 -14.38599 -10.39093 -10.39091
 Alpha  occ. eigenvalues --  -10.35460 -10.35392 -10.34401 -10.34228 -10.31757
 Alpha  occ. eigenvalues --  -10.31694 -10.31417 -10.31309 -10.31023 -10.30921
 Alpha  occ. eigenvalues --  -10.30582 -10.30519 -10.30398 -10.30361 -10.30218
 Alpha  occ. eigenvalues --  -10.30141 -10.29932 -10.29895 -10.29643 -10.29437
 Alpha  occ. eigenvalues --  -10.29401 -10.29266 -10.28762 -10.28719 -10.28655
 Alpha  occ. eigenvalues --  -10.28554 -10.28405 -10.28377 -10.28139 -10.28129
 Alpha  occ. eigenvalues --  -10.28001 -10.27805 -10.27739 -10.27669 -10.27596
 Alpha  occ. eigenvalues --  -10.27518 -10.27511 -10.27494 -10.27483 -10.27468
 Alpha  occ. eigenvalues --  -10.27465 -10.27460 -10.27415 -10.27375 -10.27170
 Alpha  occ. eigenvalues --  -10.27050 -10.26720 -10.26693 -10.26423 -10.26416
 Alpha  occ. eigenvalues --  -10.26246 -10.26194 -10.26138 -10.26031 -10.26022
 Alpha  occ. eigenvalues --  -10.25935 -10.25854 -10.25851 -10.25445 -10.25396
 Alpha  occ. eigenvalues --  -10.24873 -10.24845 -10.24799 -10.24732 -10.24697
 Alpha  occ. eigenvalues --  -10.24690  -3.16551  -3.16410  -1.91433  -1.91293
 Alpha  occ. eigenvalues --   -1.91020  -1.90881  -1.90862  -1.90718  -1.16646
 Alpha  occ. eigenvalues --   -1.16644  -1.08658  -1.08639  -1.07228  -1.06968
 Alpha  occ. eigenvalues --   -1.06946  -1.06656  -1.04593  -1.04495  -1.03772
 Alpha  occ. eigenvalues --   -1.03663  -1.03246  -1.03039  -1.02423  -1.02111
 Alpha  occ. eigenvalues --   -0.91987  -0.91984  -0.89531  -0.89495  -0.89201
 Alpha  occ. eigenvalues --   -0.89150  -0.88298  -0.88220  -0.87882  -0.87794
 Alpha  occ. eigenvalues --   -0.87685  -0.87684  -0.87286  -0.87121  -0.84999
 Alpha  occ. eigenvalues --   -0.84995  -0.83947  -0.83876  -0.82979  -0.82932
 Alpha  occ. eigenvalues --   -0.82661  -0.82653  -0.81598  -0.81597  -0.80609
 Alpha  occ. eigenvalues --   -0.80443  -0.78809  -0.78636  -0.77230  -0.77145
 Alpha  occ. eigenvalues --   -0.76947  -0.76898  -0.75936  -0.75838  -0.74909
 Alpha  occ. eigenvalues --   -0.74803  -0.72786  -0.72699  -0.71684  -0.71580
 Alpha  occ. eigenvalues --   -0.69918  -0.69758  -0.68886  -0.68827  -0.67653
 Alpha  occ. eigenvalues --   -0.67602  -0.67233  -0.67200  -0.65299  -0.65271
 Alpha  occ. eigenvalues --   -0.64866  -0.64770  -0.64654  -0.64633  -0.64281
 Alpha  occ. eigenvalues --   -0.64204  -0.62310  -0.62279  -0.60454  -0.60340
 Alpha  occ. eigenvalues --   -0.59817  -0.59796  -0.58999  -0.58993  -0.58516
 Alpha  occ. eigenvalues --   -0.58426  -0.57597  -0.57554  -0.57320  -0.57237
 Alpha  occ. eigenvalues --   -0.56322  -0.56205  -0.55992  -0.55887  -0.55532
 Alpha  occ. eigenvalues --   -0.55452  -0.55351  -0.55248  -0.54535  -0.54488
 Alpha  occ. eigenvalues --   -0.53912  -0.53908  -0.53311  -0.53234  -0.53228
 Alpha  occ. eigenvalues --   -0.53142  -0.52927  -0.52902  -0.52769  -0.52669
 Alpha  occ. eigenvalues --   -0.52449  -0.52402  -0.51926  -0.51885  -0.51659
 Alpha  occ. eigenvalues --   -0.51629  -0.51208  -0.51201  -0.50585  -0.50476
 Alpha  occ. eigenvalues --   -0.50042  -0.49980  -0.49931  -0.49867  -0.49527
 Alpha  occ. eigenvalues --   -0.49488  -0.49227  -0.49202  -0.49108  -0.49104
 Alpha  occ. eigenvalues --   -0.48605  -0.48558  -0.48473  -0.48457  -0.48376
 Alpha  occ. eigenvalues --   -0.48339  -0.47707  -0.47595  -0.47309  -0.47118
 Alpha  occ. eigenvalues --   -0.46809  -0.46709  -0.46568  -0.46554  -0.46371
 Alpha  occ. eigenvalues --   -0.46271  -0.46174  -0.46086  -0.45834  -0.45822
 Alpha  occ. eigenvalues --   -0.45212  -0.45208  -0.44590  -0.44519  -0.44514
 Alpha  occ. eigenvalues --   -0.44476  -0.44156  -0.44127  -0.44101  -0.44078
 Alpha  occ. eigenvalues --   -0.44032  -0.43939  -0.43553  -0.43507  -0.43398
 Alpha  occ. eigenvalues --   -0.43386  -0.43039  -0.42931  -0.42901  -0.42711
 Alpha  occ. eigenvalues --   -0.42666  -0.42554  -0.42021  -0.41965  -0.41716
 Alpha  occ. eigenvalues --   -0.41669  -0.41546  -0.41459  -0.41153  -0.40989
 Alpha  occ. eigenvalues --   -0.40881  -0.40836  -0.40723  -0.40699  -0.40582
 Alpha  occ. eigenvalues --   -0.40493  -0.40248  -0.40227  -0.39452  -0.39426
 Alpha  occ. eigenvalues --   -0.38480  -0.38350  -0.37762  -0.37654  -0.37332
 Alpha  occ. eigenvalues --   -0.37276  -0.37266  -0.37199  -0.36771  -0.36726
 Alpha  occ. eigenvalues --   -0.36217  -0.36205  -0.34298  -0.34254  -0.33862
 Alpha  occ. eigenvalues --   -0.33784  -0.33198  -0.33176  -0.31357  -0.31274
 Alpha  occ. eigenvalues --   -0.31047  -0.30973  -0.30041  -0.29956  -0.29461
 Alpha  occ. eigenvalues --   -0.29334  -0.29328  -0.29212  -0.24092  -0.24036
 Alpha  occ. eigenvalues --   -0.21139  -0.21117
 Alpha virt. eigenvalues --   -0.08792  -0.08786  -0.01761  -0.01684  -0.00070
 Alpha virt. eigenvalues --   -0.00029   0.02189   0.02207   0.03109   0.03227
 Alpha virt. eigenvalues --    0.04706   0.04730   0.05085   0.05165   0.06164

 Mulliken charges:
               1
     1  Mg   0.838772
     2  C   -0.002969
     3  C   -0.094138
     4  C   -0.045885
     5  C   -0.063941
     6  N   -0.256804
     7  C   -0.052458
     8  C   -0.014018
     9  C   -0.086999
    10  C    0.046322
    11  C    0.104811
    12  C    0.053478
    13  C   -0.071789
    14  H    0.036077
    15  N   -0.433151
    16  C    0.168414
    17  C   -0.177156
    18  C   -0.004017
    19  C    0.148718
    20  C    0.110180
    21  C    0.012293
    22  O   -0.249608
    23  C    0.062474
    24  N   -0.341133
    25  C    0.041269
    26  C   -0.028209
    27  C   -0.023948
    28  C    0.074802
    29  C    0.076172
    30  C    0.035134
    31  C   -0.004508
    32  N   -0.310477
    33  C    0.080397
    34  C   -0.169710
    35  C    0.008360
    36  C    0.082990
    37  C    0.127314
    38  C    0.046121
    39  O   -0.188430
    40  C   -0.005353
    41  C    0.212886
    42  O   -0.257133
    43  O   -0.304784
    44  C    0.157698
    45  H   -0.017602
    46  H   -0.016822
    47  H   -0.041472
    48  H    0.000947
    49  H   -0.004051
    50  H    0.025484
    51  H    0.016459
    52  H    0.016660
    53  H    0.011182
    54  H    0.044109
    55  H    0.017893
    56  H    0.017935
    57  H    0.005867
    58  H    0.026838
    59  H    0.039522
    60  H    0.037356
    61  H    0.035658
    62  H    0.031472
    63  H    0.016560
    64  H    0.009477
    65  H    0.023229
    66  H    0.012548
    67  H    0.004770
    68  H    0.006386
    69  H    0.004742
    70  H    0.008782
    71  H    0.018151
    72  H    0.028958
    73  H    0.047572
    74  H    0.009125
    75  H    0.046026
    76  H    0.035165
    77  H    0.042960
    78  H    0.046389
    79  H    0.053663
    80  Mg   0.837861
    81  C   -0.016805
    82  C   -0.087787
    83  C   -0.045490
    84  C   -0.064871
    85  N   -0.254561
    86  C   -0.049838
    87  C   -0.015109
    88  C   -0.090506
    89  C    0.045754
    90  C    0.114371
    91  C    0.062529
    92  C   -0.077896
    93  H    0.034881
    94  N   -0.423486
    95  C    0.162924
    96  C   -0.174609
    97  C   -0.007810
    98  C    0.152118
    99  C    0.099364
   100  C    0.015587
   101  O   -0.253164
   102  C    0.061196
   103  N   -0.350048
   104  C    0.037506
   105  C   -0.019844
   106  C   -0.034806
   107  C    0.088900
   108  C    0.073642
   109  C    0.034720
   110  C   -0.007672
   111  N   -0.324125
   112  C    0.078454
   113  C   -0.163128
   114  C    0.002268
   115  C    0.096192
   116  C    0.131486
   117  C    0.042374
   118  O   -0.187858
   119  C    0.000913
   120  C    0.211255
   121  O   -0.251034
   122  O   -0.305609
   123  C    0.152024
   124  H   -0.019636
   125  H   -0.015553
   126  H   -0.040445
   127  H   -0.000621
   128  H   -0.004332
   129  H    0.022492
   130  H    0.014463
   131  H    0.016314
   132  H    0.013906
   133  H    0.037667
   134  H    0.020813
   135  H    0.019584
   136  H    0.008768
   137  H    0.026171
   138  H    0.039774
   139  H    0.038267
   140  H    0.036396
   141  H    0.033881
   142  H    0.014395
   143  H    0.012453
   144  H    0.025153
   145  H    0.011680
   146  H    0.005715
   147  H    0.006279
   148  H    0.003657
   149  H    0.010931
   150  H    0.017926
   151  H    0.030090
   152  H    0.045999
   153  H    0.008515
   154  H    0.046982
   155  H    0.035063
   156  H    0.043926
   157  H    0.049495
   158  H    0.053569
 Sum of Mulliken charges =  -0.00000

 Dipole moment (field-independent basis, Debye):
    X=             -5.4342    Y=             -0.9923    Z=             -6.9517  Tot=              8.8792
 Quadrupole moment (field-independent basis, Debye-Ang):
   XX=           -563.8323   YY=           -537.0190   ZZ=           -458.5438
   XY=             -5.0149   XZ=             21.3363   YZ=            -54.7156

 Normal termination of Gaussian 16 at Sun Sep 12 15:55:07 2021.
