 Gaussian 16, Revision A.03,
 Gaussian 16:  ES64L-G16RevA.03 25-Dec-2016

 -----------------------------------
 #p cam-b3lyp/Def2SVP td=(nstates=5)
 -----------------------------------

 --------------------------------
 TDDFT excited states in gaussian
 --------------------------------
 Symbolic Z-matrix:
 Charge =  0 Multiplicity = 1

                         Standard orientation:
 ---------------------------------------------------------------------
 Center     Atomic      Atomic             Coordinates (Angstroms)
 Number     Number       Type             X           Y           Z
 ---------------------------------------------------------------------
      1         12           0       -4.922370    0.804209   -0.061968
      2          6           0       -5.343525   -2.282619    1.700512
      3          6           0       -5.714231    2.401478    2.847457
      4          6           0       -5.001843    3.518136   -1.700536
      5          6           0       -5.283202   -1.005192   -3.018575
      6          7           0       -5.441580    0.045993    1.952027
      7          6           0       -5.509396   -1.157875    2.511736
      8          6           0       -5.698535   -1.110771    4.057499
      9          6           0       -6.357802    0.335164    4.186489
     10          6           0       -5.776252    0.979314    2.940377
     11          6           0       -7.878560    0.324022    4.069560
     12          6           0       -4.336498   -1.189999    4.825814
     13          6           0       -4.448239   -1.477831    6.325821
     14          1           0       -3.429613   -2.302130    6.958498
     15          7           0       -4.822046    2.677723    0.556685
     16          6           0       -5.169836    3.146630    1.779163
     17          6           0       -4.912723    4.602461    1.745564
     18          6           0       -4.566919    4.971237    0.344666
     19          6           0       -4.811825    3.725608   -0.336368
     20          6           0       -4.958179    5.474347    2.962733
     21          6           0       -4.101287    6.247073   -0.282680
     22          8           0       -4.081591    6.414260   -1.550053
     23          6           0       -3.747874    7.341713    0.639223
     24          7           0       -5.332805    1.244702   -2.060753
     25          6           0       -5.240770    2.495846   -2.524600
     26          6           0       -5.299482    2.528334   -4.023078
     27          6           0       -5.206735    1.007935   -4.502181
     28          6           0       -5.192217    0.323280   -3.113186
     29          6           0       -6.550131    3.179234   -4.629887
     30          6           0       -4.084013    0.655476   -5.509994
     31          6           0       -2.733629    0.796516   -4.843909
     32          7           0       -5.077793   -1.290902   -0.607312
     33          6           0       -5.244383   -1.816369   -1.896810
     34          6           0       -5.406846   -3.274631   -1.751387
     35          6           0       -5.339618   -3.495643   -0.377168
     36          6           0       -5.173634   -2.251157    0.295138
     37          6           0       -5.646264   -4.196033   -2.808804
     38          6           0       -5.394079   -4.490941    0.681261
     39          8           0       -5.426767   -5.721960    0.713157
     40          6           0       -5.520966   -3.732841    2.075898
     41          6           0       -4.519012   -4.343054    3.017725
     42          8           0       -3.293669   -4.211543    2.821244
     43          8           0       -5.150999   -4.776982    4.119016
     44          6           0       -4.209834   -5.367282    5.107909
     45          1           0       -6.175777    3.002406    3.633461
     46          1           0       -4.925369    4.418719   -2.313349
     47          1           0       -5.315616   -1.644320   -3.902837
     48          1           0       -6.376520   -1.865912    4.455647
     49          1           0       -6.016644    0.859843    5.078702
     50          1           0       -8.249232   -0.661322    3.787390
     51          1           0       -8.116466    1.055775    3.297270
     52          1           0       -8.340195    0.694087    4.985379
     53          1           0       -3.885079   -0.198489    4.860284
     54          1           0       -3.676242   -1.925984    4.365690
     55          1           0       -5.444922   -1.832033    6.590536
     56          1           0       -4.344177   -0.535155    6.863161
     57          1           0       -5.400622    4.954403    3.811525
     58          1           0       -5.654192    6.284979    2.747907
     59          1           0       -3.979380    5.885916    3.209505
     60          1           0       -4.614220    7.589084    1.253064
     61          1           0       -3.352394    8.143402    0.016535
     62          1           0       -2.976409    6.990486    1.325103
     63          1           0       -4.458727    3.084701   -4.435403
     64          1           0       -6.120886    0.678393   -4.996554
     65          1           0       -6.329522    4.007389   -5.303827
     66          1           0       -7.193028    3.501743   -3.811375
     67          1           0       -7.207676    2.494715   -5.165130
     68          1           0       -4.099934    1.346350   -6.352245
     69          1           0       -4.165621   -0.355698   -5.908890
     70          1           0       -2.524921    1.861444   -4.939833
     71          1           0       -1.985725    0.203081   -5.370867
     72          1           0       -2.789431    0.570036   -3.778978
     73          1           0       -5.004844   -5.055753   -2.615334
     74          1           0       -5.429144   -3.750232   -3.779228
     75          1           0       -6.708921   -4.393114   -2.668176
     76          1           0       -6.545205   -3.876333    2.418631
     77          1           0       -4.559435   -6.377688    5.320257
     78          1           0       -4.154667   -4.665558    5.940342
     79          1           0       -3.199622   -5.569918    4.750488
     80         12           0        5.628536    0.104244    0.019130
     81          6           0        3.215891   -1.799159   -1.834314
     82          6           0        3.977873    2.909428   -1.001104
     83          6           0        7.987070    1.824122    1.262820
     84          6           0        7.697481   -2.699038   -0.063103
     85          7           0        3.840468    0.389222   -1.251242
     86          6           0        2.970315   -0.410306   -1.849514
     87          6           0        1.726755    0.313454   -2.432010
     88          6           0        2.362907    1.776867   -2.612596
     89          6           0        3.440810    1.709790   -1.532641
     90          6           0        3.044639    1.975122   -3.956200
     91          6           0        0.520832    0.331209   -1.428304
     92          6           0       -0.819217    0.745297   -2.040314
     93          1           0       -2.036541    0.107143   -1.547019
     94          7           0        5.688066    2.020183    0.533152
     95          6           0        4.931378    3.020304    0.034685
     96          6           0        5.373330    4.241750    0.725267
     97          6           0        6.564836    3.908103    1.552126
     98          6           0        6.810800    2.546104    1.122531
     99          6           0        4.633493    5.544311    0.628258
    100          6           0        7.360024    4.690258    2.553182
    101          8           0        8.499512    4.282215    2.974955
    102          6           0        6.809041    5.992869    2.954589
    103          7           0        7.643336   -0.292470    0.343990
    104          6           0        8.436540    0.608770    0.949403
    105          6           0        9.767645    0.000752    1.322021
    106          6           0        9.612357   -1.568705    1.056911
    107          6           0        8.185220   -1.585650    0.466670
    108          6           0       10.978753    0.529037    0.553571
    109          6           0        9.932644   -2.518031    2.243872
    110          6           0        8.902959   -2.343289    3.336851
    111          7           0        5.440728   -1.949081   -0.626338
    112          6           0        6.438406   -2.947928   -0.594297
    113          6           0        5.873914   -4.148127   -1.244902
    114          6           0        4.584844   -3.753836   -1.633936
    115          6           0        4.369002   -2.397012   -1.270708
    116          6           0        6.555583   -5.380428   -1.451994
    117          6           0        3.361472   -4.173658   -2.278763
    118          8           0        2.930159   -5.241222   -2.712385
    119          6           0        2.466486   -2.888460   -2.550156
    120          6           0        1.066154   -3.192619   -2.092906
    121          8           0        0.822696   -3.387586   -0.889025
    122          8           0        0.214971   -2.989339   -3.114932
    123          6           0       -1.188024   -3.267357   -2.707326
    124          1           0        3.672706    3.856643   -1.446676
    125          1           0        8.796166    2.338150    1.786867
    126          1           0        8.244126   -3.644218   -0.041035
    127          1           0        1.387517   -0.065161   -3.388751
    128          1           0        1.638836    2.553652   -2.380906
    129          1           0        3.091841    1.057374   -4.523349
    130          1           0        4.040983    2.332177   -3.730694
    131          1           0        2.554889    2.779595   -4.512352
    132          1           0        0.662291    1.151707   -0.713106
    133          1           0        0.417201   -0.618447   -0.940401
    134          1           0       -0.794122    0.729319   -3.136706
    135          1           0       -1.005295    1.792954   -1.791721
    136          1           0        3.893743    5.527405   -0.181601
    137          1           0        5.360187    6.302359    0.316567
    138          1           0        4.190687    5.849022    1.578905
    139          1           0        6.693844    6.622599    2.075602
    140          1           0        7.471038    6.360337    3.741105
    141          1           0        5.804625    5.836796    3.363748
    142          1           0        9.985528    0.160089    2.370942
    143          1           0       10.286191   -1.915942    0.259902
    144          1           0       11.766904    0.941747    1.211268
    145          1           0       10.637493    1.278906   -0.147696
    146          1           0       11.462889   -0.194888   -0.099695
    147          1           0       10.899243   -2.261105    2.684127
    148          1           0        9.975718   -3.564401    1.960596
    149          1           0        9.271771   -1.472004    3.886329
    150          1           0        8.866650   -3.225032    3.973455
    151          1           0        7.925124   -2.079015    2.917760
    152          1           0        5.858348   -6.168187   -1.199405
    153          1           0        7.459825   -5.440645   -0.849939
    154          1           0        6.777702   -5.303413   -2.519705
    155          1           0        2.511355   -2.677834   -3.619357
    156          1           0       -1.583018   -4.009815   -3.407618
    157          1           0       -1.691784   -2.282862   -2.679784
    158          1           0       -1.344633   -3.767151   -1.758573
 ---------------------------------------------------------------------

 SCF Done:  E(RCAM-B3LYP) =  -4069.81028916     A.U. after   19 cycles

 Excitation energies and oscillator strengths:

 Excited State   1:      Singlet-A      1.6512 eV  750.88 nm  f=0.0050  <S**2>=0.000
     309 -> 315        0.12005
     310 -> 316       -0.11605
     311 -> 313        0.49340
     312 -> 314       -0.47867
 This state for optimization and/or second-order correction.
 Total Energy, E(TD-HF/TD-DFT) =  -4069.74960918
 Copying the excited state density for this state as the 1-particle RhoCI density.

 Excited State   2:      Singlet-A      1.6974 eV  730.44 nm  f=0.7043  <S**2>=0.000
     309 -> 315        0.12467
     310 -> 316        0.12830
     311 -> 313        0.47639
     312 -> 314        0.49139

 Excited State   3:      Singlet-A      2.1820 eV  568.22 nm  f=0.0822  <S**2>=0.000
     309 -> 313        0.30711
     310 -> 314        0.56619
     311 -> 315       -0.12764
     312 -> 316       -0.23711

 Excited State   4:      Singlet-A      2.1899 eV  566.15 nm  f=0.1183  <S**2>=0.000
     309 -> 313        0.56387
     310 -> 314       -0.30465
     311 -> 315       -0.24278
     312 -> 316        0.13257

 Excited State   5:      Singlet-A      2.4387 eV  508.41 nm  f=0.0000  <S**2>=0.000
     312 -> 313        0.70648

 The electronic state is 1-A.
 Alpha  occ. eigenvalues --  -46.87959 -46.87479 -19.26132 -19.25804 -19.19092
 Alpha  occ. eigenvalues --  -19.18847 -19.18596 -19.18585 -19.18258 -19.17784
 Alpha  occ. eigenvalues --  -14.42624 -14.42324 -14.41631 -14.41180 -14.39595
 Alpha  occ. eigenvalues --  -14.39175 -14.38806 -14.38408 -10.38934 -10.38565
 Alpha  occ. eigenvalues --  -10.35727 -10.35268 -10.34473 -10.33953 -10.31566
 Alpha  occ. eigenvalues --  -10.31487 -10.31110 -10.31066 -10.31045 -10.30846
 Alpha  occ. eigenvalues --  -10.30765 -10.30732 -10.30435 -10.30215 -10.30163
 Alpha  occ. eigenvalues --  -10.30139 -10.29989 -10.29858 -10.29716 -10.29503
 Alpha  occ. eigenvalues --  -10.29273 -10.29221 -10.28803 -10.28660 -10.28565
 Alpha  occ. eigenvalues --  -10.28539 -10.28482 -10.28207 -10.28205 -10.28007
 Alpha  occ. eigenvalues --  -10.27956 -10.27912 -10.27810 -10.27809 -10.27720
 Alpha  occ. eigenvalues --  -10.27690 -10.27680 -10.27559 -10.27491 -10.27382
 Alpha  occ. eigenvalues --  -10.27340 -10.27293 -10.27285 -10.27238 -10.27193
 Alpha  occ. eigenvalues --  -10.26740 -10.26708 -10.26677 -10.26514 -10.26399
 Alpha  occ. eigenvalues --  -10.26337 -10.26320 -10.26258 -10.26083 -10.26014
 Alpha  occ. eigenvalues --  -10.25858 -10.25762 -10.25660 -10.25638 -10.25278
 Alpha  occ. eigenvalues --  -10.25042 -10.25004 -10.24901 -10.24672 -10.24607
 Alpha  occ. eigenvalues --  -10.24512  -3.16695  -3.16229  -1.91575  -1.91163
 Alpha  occ. eigenvalues --   -1.91111  -1.91007  -1.90700  -1.90537  -1.16482
 Alpha  occ. eigenvalues --   -1.16098  -1.08695  -1.08367  -1.07500  -1.06841
 Alpha  occ. eigenvalues --   -1.06480  -1.06398  -1.04747  -1.04314  -1.03948
 Alpha  occ. eigenvalues --   -1.03486  -1.03441  -1.02860  -1.02611  -1.01928
 Alpha  occ. eigenvalues --   -0.92112  -0.91759  -0.89729  -0.89323  -0.89273
 Alpha  occ. eigenvalues --   -0.88986  -0.88497  -0.88091  -0.88065  -0.87837
 Alpha  occ. eigenvalues --   -0.87606  -0.87515  -0.87504  -0.86973  -0.85092
 Alpha  occ. eigenvalues --   -0.84848  -0.84152  -0.83705  -0.83218  -0.82800
 Alpha  occ. eigenvalues --   -0.82769  -0.82470  -0.81641  -0.81268  -0.80715
 Alpha  occ. eigenvalues --   -0.80176  -0.79010  -0.78469  -0.77419  -0.77057
 Alpha  occ. eigenvalues --   -0.76969  -0.76680  -0.76008  -0.75586  -0.75075
 Alpha  occ. eigenvalues --   -0.74604  -0.72976  -0.72521  -0.71828  -0.71386
 Alpha  occ. eigenvalues --   -0.70237  -0.69610  -0.69017  -0.68649  -0.67822
 Alpha  occ. eigenvalues --   -0.67410  -0.67322  -0.67092  -0.65395  -0.65129
 Alpha  occ. eigenvalues --   -0.64971  -0.64727  -0.64580  -0.64462  -0.64340
 Alpha  occ. eigenvalues --   -0.64017  -0.62306  -0.61888  -0.60663  -0.60183
 Alpha  occ. eigenvalues --   -0.59926  -0.59624  -0.59155  -0.58793  -0.58659
 Alpha  occ. eigenvalues --   -0.58202  -0.57673  -0.57428  -0.57239  -0.57016
 Alpha  occ. eigenvalues --   -0.56496  -0.56011  -0.55966  -0.55699  -0.55555
 Alpha  occ. eigenvalues --   -0.55489  -0.55214  -0.55005  -0.54596  -0.54191
 Alpha  occ. eigenvalues --   -0.53978  -0.53741  -0.53501  -0.53362  -0.53051
 Alpha  occ. eigenvalues --   -0.53028  -0.52993  -0.52898  -0.52722  -0.52577
 Alpha  occ. eigenvalues --   -0.52481  -0.52238  -0.52123  -0.51720  -0.51672
 Alpha  occ. eigenvalues --   -0.51524  -0.51302  -0.50965  -0.50812  -0.50353
 Alpha  occ. eigenvalues --   -0.50256  -0.50119  -0.49833  -0.49722  -0.49646
 Alpha  occ. eigenvalues --   -0.49356  -0.49339  -0.49189  -0.48993  -0.48935
 Alpha  occ. eigenvalues --   -0.48726  -0.48664  -0.48573  -0.48296  -0.48212
 Alpha  occ. eigenvalues --   -0.48131  -0.47858  -0.47468  -0.47436  -0.46973
 Alpha  occ. eigenvalues --   -0.46918  -0.46639  -0.46590  -0.46533  -0.46403
 Alpha  occ. eigenvalues --   -0.46296  -0.46080  -0.45919  -0.45835  -0.45550
 Alpha  occ. eigenvalues --   -0.45402  -0.45037  -0.44801  -0.44700  -0.44465
 Alpha  occ. eigenvalues --   -0.44320  -0.44218  -0.44179  -0.44129  -0.43958
 Alpha  occ. eigenvalues --   -0.43887  -0.43723  -0.43574  -0.43533  -0.43275
 Alpha  occ. eigenvalues --   -0.43178  -0.43116  -0.42913  -0.42692  -0.42584
 Alpha  occ. eigenvalues --   -0.42436  -0.42385  -0.42195  -0.41851  -0.41805
 Alpha  occ. eigenvalues --   -0.41660  -0.41440  -0.41367  -0.41265  -0.41106
 Alpha  occ. eigenvalues --   -0.41063  -0.40804  -0.40775  -0.40608  -0.40464
 Alpha  occ. eigenvalues --   -0.40333  -0.40268  -0.39796  -0.39607  -0.39264
 Alpha  occ. eigenvalues --   -0.38655  -0.38216  -0.37846  -0.37675  -0.37393
 Alpha  occ. eigenvalues --   -0.37322  -0.37101  -0.37014  -0.36730  -0.36378
 Alpha  occ. eigenvalues --   -0.36198  -0.35899  -0.34466  -0.34063  -0.33691
 Alpha  occ. eigenvalues --   -0.33372  -0.33322  -0.32949  -0.31617  -0.31202
 Alpha  occ. eigenvalues --   -0.31142  -0.30776  -0.30110  -0.29680  -0.29665
 Alpha  occ. eigenvalues --   -0.29533  -0.29157  -0.29010  -0.24261  -0.23844
 Alpha  occ. eigenvalues --   -0.21334  -0.20940
 Alpha virt. eigenvalues --   -0.08979  -0.08608  -0.01967  -0.01513  -0.00268
 Alpha virt. eigenvalues --    0.00137   0.01965   0.02061   0.02466   0.03448
 Alpha virt. eigenvalues --    0.04583   0.05096   0.05206   0.05640   0.05986

 Mulliken charges:
               1
     1  Mg   0.814260
     2  C   -0.000204
     3  C   -0.092939
     4  C   -0.048900
     5  C   -0.065872
     6  N   -0.256020
     7  C   -0.052011
     8  C   -0.014176
     9  C   -0.087158
    10  C    0.046740
    11  C    0.104750
    12  C    0.053258
    13  C   -0.072299
    14  H    0.038157
    15  N   -0.432628
    16  C    0.168934
    17  C   -0.177183
    18  C   -0.004525
    19  C    0.149345
    20  C    0.110036
    21  C    0.010584
    22  O   -0.250580
    23  C    0.062941
    24  N   -0.339725
    25  C    0.043104
    26  C   -0.028234
    27  C   -0.024887
    28  C    0.076477
    29  C    0.076385
    30  C    0.065922
    31  C   -0.048930
    32  N   -0.309127
    33  C    0.075462
    34  C   -0.178162
    35  C    0.009176
    36  C    0.083269
    37  C    0.126333
    38  C    0.047646
    39  O   -0.185541
    40  C   -0.006251
    41  C    0.212150
    42  O   -0.251873
    43  O   -0.305795
    44  C    0.156950
    45  H   -0.017201
    46  H   -0.018052
    47  H   -0.042704
    48  H    0.001559
    49  H   -0.003589
    50  H    0.025860
    51  H    0.016084
    52  H    0.017072
    53  H    0.010987
    54  H    0.046774
    55  H    0.017600
    56  H    0.017501
    57  H    0.006691
    58  H    0.027146
    59  H    0.039118
    60  H    0.038371
    61  H    0.034927
    62  H    0.030405
    63  H    0.014872
    64  H    0.010245
    65  H    0.022917
    66  H    0.013112
    67  H    0.005311
    68  H    0.003599
    69  H    0.003241
    70  H    0.008093
    71  H    0.023649
    72  H    0.039907
    73  H    0.047265
    74  H    0.008970
    75  H    0.047652
    76  H    0.035443
    77  H    0.042963
    78  H    0.045798
    79  H    0.056550
    80  Mg   0.837946
    81  C   -0.015188
    82  C   -0.087949
    83  C   -0.045931
    84  C   -0.065382
    85  N   -0.254423
    86  C   -0.048694
    87  C   -0.019693
    88  C   -0.091302
    89  C    0.045536
    90  C    0.114336
    91  C    0.088060
    92  C   -0.133099
    93  H    0.068679
    94  N   -0.423322
    95  C    0.162403
    96  C   -0.175029
    97  C   -0.008388
    98  C    0.151992
    99  C    0.099357
   100  C    0.015125
   101  O   -0.253721
   102  C    0.061481
   103  N   -0.350158
   104  C    0.037357
   105  C   -0.019650
   106  C   -0.034833
   107  C    0.089193
   108  C    0.073827
   109  C    0.034815
   110  C   -0.007615
   111  N   -0.324359
   112  C    0.078999
   113  C   -0.162984
   114  C    0.002721
   115  C    0.096596
   116  C    0.131309
   117  C    0.043620
   118  O   -0.186319
   119  C    0.000496
   120  C    0.210497
   121  O   -0.245368
   122  O   -0.309179
   123  C    0.145965
   124  H   -0.019417
   125  H   -0.016173
   126  H   -0.040673
   127  H    0.000494
   128  H   -0.002575
   129  H    0.021800
   130  H    0.014210
   131  H    0.016634
   132  H    0.009487
   133  H    0.040732
   134  H    0.032773
   135  H    0.029977
   136  H    0.009228
   137  H    0.025773
   138  H    0.038214
   139  H    0.038151
   140  H    0.035711
   141  H    0.033055
   142  H    0.013998
   143  H    0.012178
   144  H    0.024672
   145  H    0.011550
   146  H    0.005375
   147  H    0.005826
   148  H    0.003645
   149  H    0.010534
   150  H    0.017774
   151  H    0.030590
   152  H    0.046935
   153  H    0.008146
   154  H    0.046579
   155  H    0.033614
   156  H    0.039186
   157  H    0.051762
   158  H    0.065518
 Sum of Mulliken charges =  -0.00000

 Dipole moment (field-independent basis, Debye):
    X=             -2.4874    Y=              7.0307    Z=              1.5940  Tot=              7.6262
 Quadrupole moment (field-independent basis, Debye-Ang):
   XX=           -486.2408   YY=           -542.0255   ZZ=           -473.4184
   XY=            -26.8835   XZ=            -20.5868   YZ=              0.6696

 Normal termination of Gaussian 16 at Fri Sep 10 17:06:08 2021.
