 Gaussian 16, Revision A.03,
 Gaussian 16:  ES64L-G16RevA.03 25-Dec-2016

 -----------------------------------
 #p cam-b3lyp/Def2SVP td=(nstates=5)
 -----------------------------------

 --------------------------------
 TDDFT excited states in gaussian
 --------------------------------
 Symbolic Z-matrix:
 Charge =  0 Multiplicity = 1

                         Standard orientation:
 ---------------------------------------------------------------------
 Center     Atomic      Atomic             Coordinates (Angstroms)
 Number     Number       Type             X           Y           Z
 ---------------------------------------------------------------------
      1         12           0        4.100218   -1.222907    0.249247
      2          6           0        4.795233    1.802508   -1.532895
      3          6           0        5.057278    0.406335    3.090491
      4          6           0        3.929758   -4.000745    1.769504
      5          6           0        4.296200   -2.892311   -2.803677
      6          7           0        4.813685    0.842205    0.605511
      7          6           0        4.978321    1.921158   -0.153386
      8          6           0        5.290518    3.209965    0.664467
      9          6           0        5.895604    2.535287    1.976213
     10          6           0        5.187475    1.193709    1.908069
     11          6           0        7.400868    2.300510    1.901640
     12          6           0        4.000214    4.035856    0.988124
     13          6           0        4.245952    5.460365    1.493832
     14          1           0        3.318448    6.511614    1.104012
     15          7           0        3.970508   -1.620926    2.179948
     16          6           0        4.396303   -0.836330    3.198964
     17          6           0        4.075233   -1.571622    4.441115
     18          6           0        3.601030   -2.929945    4.056168
     19          6           0        3.842754   -2.913730    2.636068
     20          6           0        4.182295   -0.965877    5.806897
     21          6           0        3.031678   -4.066611    4.844813
     22          8           0        2.901703   -5.238950    4.351556
     23          6           0        2.707984   -3.789922    6.256092
     24          7           0        4.327290   -3.201057   -0.377648
     25          6           0        4.144322   -4.219021    0.470441
     26          6           0        4.079369   -5.529841   -0.255832
     27          6           0        4.013076   -5.171092   -1.810392
     28          6           0        4.141034   -3.631496   -1.702951
     29          6           0        5.247440   -6.493211   -0.003764
     30          6           0        2.828132   -5.758181   -2.617642
     31          6           0        1.531679   -5.131762   -2.155139
     32          7           0        4.300247   -0.655768   -1.836271
     33          6           0        4.383614   -1.516934   -2.939954
     34          6           0        4.619647   -0.675524   -4.127550
     35          6           0        4.674071    0.623714   -3.626686
     36          6           0        4.510272    0.593310   -2.212283
     37          6           0        4.811379   -1.145186   -5.456870
     38          6           0        4.857093    2.028356   -3.954316
     39          8           0        4.944930    2.670078   -5.002157
     40          6           0        5.064564    2.836347   -2.597875
     41          6           0        4.169673    4.044672   -2.647183
     42          8           0        2.927897    3.922315   -2.627504
     43          8           0        4.907234    5.151612   -2.470463
     44          6           0        4.075855    6.384855   -2.479122
     45          1           0        5.555153    0.738777    4.003478
     46          1           0        3.765159   -4.972508    2.239632
     47          1           0        4.283823   -3.335528   -3.801103
     48          1           0        6.030372    3.868839    0.209575
     49          1           0        5.606091    3.071111    2.879981
     50          1           0        7.789165    2.517787    0.906684
     51          1           0        7.543555    1.247314    2.144359
     52          1           0        7.919284    2.860388    2.680459
     53          1           0        3.511078    3.609812    1.864076
     54          1           0        3.336790    4.069752    0.123228
     55          1           0        5.275125    5.774106    1.316975
     56          1           0        4.145740    5.459501    2.579261
     57          1           0        4.714236   -0.015608    5.782979
     58          1           0        4.823166   -1.621148    6.396486
     59          1           0        3.210126   -0.870000    6.290662
     60          1           0        3.610056   -3.465506    6.775293
     61          1           0        2.229161   -4.691271    6.637074
     62          1           0        2.010678   -2.952838    6.300851
     63          1           0        3.184788   -6.086276    0.020813
     64          1           0        4.897197   -5.515169   -2.347621
     65          1           0        4.937439   -7.467996    0.373594
     66          1           0        5.940460   -6.009858    0.684264
     67          1           0        5.887909   -6.670864   -0.867278
     68          1           0        2.745827   -6.830662   -2.444564
     69          1           0        2.920190   -5.601802   -3.692501
     70          1           0        1.270463   -5.729105   -1.282339
     71          1           0        0.769435   -5.218787   -2.930136
     72          1           0        1.683658   -4.107169   -1.815143
     73          1           0        4.225231   -0.488691   -6.099842
     74          1           0        4.497074   -2.183626   -5.559135
     75          1           0        5.889416   -1.023048   -5.560665
     76          1           0        6.118511    3.109014   -2.553499
     77          1           0        4.484513    7.042068   -3.246783
     78          1           0        4.058674    6.754188   -1.453596
     79          1           0        3.049494    6.271826   -2.830045
     80         12           0       -4.809357   -0.033867   -0.203844
     81          6           0       -2.057596    2.120108    0.613056
     82          6           0       -6.861363    2.306326    1.191625
     83          6           0       -7.200742   -2.097980   -0.500649
     84          6           0       -2.509396   -2.637937   -0.477115
     85          7           0       -4.394550    1.920083    0.746049
     86          6           0       -3.316340    2.663295    0.944642
     87          6           0       -3.610108    4.098810    1.457069
     88          6           0       -5.044010    3.826319    2.126817
     89          6           0       -5.484415    2.631313    1.283802
     90          6           0       -4.956000    3.381190    3.577147
     91          6           0       -3.710589    5.141573    0.288932
     92          6           0       -3.687740    6.606481    0.730829
     93          1           0       -3.020184    7.581856   -0.126764
     94          7           0       -6.771615    0.262002   -0.180267
     95          6           0       -7.434538    1.276208    0.414037
     96          6           0       -8.861976    1.027761    0.159360
     97          6           0       -8.997454   -0.303207   -0.492462
     98          6           0       -7.633911   -0.784261   -0.395426
     99          6           0       -9.929649    2.040665    0.455181
    100          6           0      -10.164116   -1.028978   -1.091097
    101          8           0      -10.102092   -2.274302   -1.387962
    102          6           0      -11.410496   -0.262222   -1.232941
    103          7           0       -4.881935   -2.111208   -0.245096
    104          6           0       -6.044482   -2.758644   -0.438076
    105          6           0       -5.813387   -4.226825   -0.705321
    106          6           0       -4.233065   -4.385980   -0.891996
    107          6           0       -3.796134   -2.933824   -0.599173
    108          6           0       -6.296063   -5.185166    0.383247
    109          6           0       -3.743380   -5.054549   -2.205734
    110          6           0       -4.048252   -4.159335   -3.385153
    111          7           0       -2.657124   -0.218926   -0.162224
    112          6           0       -1.900883   -1.406612   -0.269881
    113          6           0       -0.483797   -1.040059   -0.070050
    114          6           0       -0.516443    0.342799    0.164722
    115          6           0       -1.860957    0.802036    0.134764
    116          6           0        0.616892   -1.942611   -0.070023
    117          6           0        0.279810    1.516689    0.441615
    118          8           0        1.485526    1.755760    0.494862
    119          6           0       -0.693534    2.698109    0.869672
    120          6           0       -0.297635    3.928151    0.099755
    121          8           0       -0.424119    3.967773   -1.136792
    122          8           0       -0.041698    4.926221    0.965041
    123          6           0        0.344604    6.170877    0.248500
    124          1           0       -7.568580    2.865406    1.804954
    125          1           0       -7.978166   -2.835082   -0.714600
    126          1           0       -1.722218   -3.376266   -0.644170
    127          1           0       -2.915197    4.466048    2.202731
    128          1           0       -5.716199    4.667163    1.976864
    129          1           0       -3.935351    3.207088    3.883923
    130          1           0       -5.531067    2.466618    3.639577
    131          1           0       -5.464525    4.101719    4.224123
    132          1           0       -4.715934    5.093040   -0.148867
    133          1           0       -2.942326    4.972073   -0.440235
    134          1           0       -3.356364    6.718315    1.770363
    135          1           0       -4.713198    6.983908    0.734341
    136          1           0       -9.548125    2.855785    1.082422
    137          1           0      -10.677696    1.543057    1.081811
    138          1           0      -10.417217    2.414653   -0.447638
    139          1           0      -11.725449    0.098837   -0.256779
    140          1           0      -12.101302   -0.922481   -1.760897
    141          1           0      -11.208669    0.623283   -1.845936
    142          1           0       -6.307966   -4.536340   -1.617839
    143          1           0       -3.790665   -5.012323   -0.103446
    144          1           0       -7.013675   -5.941181    0.012346
    145          1           0       -6.736635   -4.601764    1.180786
    146          1           0       -5.508502   -5.728651    0.902453
    147          1           0       -4.281953   -5.989574   -2.378403
    148          1           0       -2.684112   -5.288931   -2.202307
    149          1           0       -5.092427   -4.395605   -3.610887
    150          1           0       -3.399070   -4.398057   -4.225172
    151          1           0       -4.004004   -3.102172   -3.098643
    152          1           0        1.405043   -1.472472   -0.642975
    153          1           0        0.340044   -2.907271   -0.490230
    154          1           0        0.818153   -2.004712    1.002781
    155          1           0       -0.586609    2.836896    1.946181
    156          1           0        1.316327    6.479853    0.645961
    157          1           0       -0.501505    6.869984    0.386673
    158          1           0        0.564278    6.092309   -0.809807
 ---------------------------------------------------------------------

 SCF Done:  E(RCAM-B3LYP) =  -4069.81647135     A.U. after   18 cycles

 Excitation energies and oscillator strengths:

 Excited State   1:      Singlet-A      1.6621 eV  745.94 nm  f=0.4425  <S**2>=0.000
     309 -> 315        0.16460
     311 -> 313        0.66267
     312 -> 314       -0.17730
     309 <- 315        0.10032
 This state for optimization and/or second-order correction.
 Total Energy, E(TD-HF/TD-DFT) =  -4069.75538931
 Copying the excited state density for this state as the 1-particle RhoCI density.

 Excited State   2:      Singlet-A      1.6762 eV  739.67 nm  f=0.3747  <S**2>=0.000
     310 -> 316        0.16490
     311 -> 313        0.17826
     312 -> 314        0.66113

 Excited State   3:      Singlet-A      2.0609 eV  601.60 nm  f=0.0003  <S**2>=0.000
     312 -> 313        0.70203

 Excited State   4:      Singlet-A      2.1606 eV  573.83 nm  f=0.0032  <S**2>=0.000
     309 -> 313       -0.39842
     310 -> 314        0.51203
     311 -> 315        0.15823
     312 -> 316       -0.20089

 Excited State   5:      Singlet-A      2.1853 eV  567.35 nm  f=0.1657  <S**2>=0.000
     309 -> 313        0.50714
     310 -> 314        0.39031
     311 -> 315       -0.21475
     312 -> 316       -0.16939

 The electronic state is 1-A.
 Alpha  occ. eigenvalues --  -46.87740 -46.86768 -19.26187 -19.25536 -19.18804
 Alpha  occ. eigenvalues --  -19.18801 -19.18793 -19.18218 -19.18046 -19.17396
 Alpha  occ. eigenvalues --  -14.42577 -14.41427 -14.41355 -14.40583 -14.39444
 Alpha  occ. eigenvalues --  -14.38706 -14.38456 -14.37661 -10.38790 -10.38110
 Alpha  occ. eigenvalues --  -10.35475 -10.34865 -10.34623 -10.33597 -10.31546
 Alpha  occ. eigenvalues --  -10.31426 -10.31250 -10.31081 -10.30517 -10.30495
 Alpha  occ. eigenvalues --  -10.30403 -10.30172 -10.29992 -10.29893 -10.29684
 Alpha  occ. eigenvalues --  -10.29653 -10.29545 -10.29534 -10.29524 -10.29167
 Alpha  occ. eigenvalues --  -10.28830 -10.28769 -10.28651 -10.28511 -10.28479
 Alpha  occ. eigenvalues --  -10.28220 -10.28220 -10.27997 -10.27766 -10.27749
 Alpha  occ. eigenvalues --  -10.27586 -10.27562 -10.27555 -10.27513 -10.27457
 Alpha  occ. eigenvalues --  -10.27399 -10.27195 -10.27194 -10.27070 -10.26997
 Alpha  occ. eigenvalues --  -10.26982 -10.26860 -10.26837 -10.26799 -10.26672
 Alpha  occ. eigenvalues --  -10.26483 -10.26477 -10.26452 -10.26304 -10.26137
 Alpha  occ. eigenvalues --  -10.26116 -10.26030 -10.25979 -10.25956 -10.25472
 Alpha  occ. eigenvalues --  -10.25402 -10.25397 -10.25269 -10.25214 -10.25080
 Alpha  occ. eigenvalues --  -10.25006 -10.24797 -10.24779 -10.24708 -10.24029
 Alpha  occ. eigenvalues --  -10.23991  -3.16488  -3.15441  -1.91369  -1.90958
 Alpha  occ. eigenvalues --   -1.90797  -1.90324  -1.89909  -1.89761  -1.16418
 Alpha  occ. eigenvalues --   -1.15846  -1.09193  -1.07845  -1.07050  -1.06638
 Alpha  occ. eigenvalues --   -1.06616  -1.05688  -1.04582  -1.03753  -1.03565
 Alpha  occ. eigenvalues --   -1.03129  -1.02866  -1.02372  -1.02211  -1.01535
 Alpha  occ. eigenvalues --   -0.92095  -0.91095  -0.89547  -0.89220  -0.88982
 Alpha  occ. eigenvalues --   -0.88261  -0.88219  -0.88124  -0.87758  -0.87693
 Alpha  occ. eigenvalues --   -0.87223  -0.87102  -0.86794  -0.86560  -0.85067
 Alpha  occ. eigenvalues --   -0.84145  -0.83898  -0.83498  -0.82995  -0.82706
 Alpha  occ. eigenvalues --   -0.82405  -0.81903  -0.81641  -0.80873  -0.80496
 Alpha  occ. eigenvalues --   -0.79820  -0.78798  -0.78046  -0.77264  -0.76928
 Alpha  occ. eigenvalues --   -0.76615  -0.76196  -0.75910  -0.75171  -0.74844
 Alpha  occ. eigenvalues --   -0.74313  -0.72876  -0.72009  -0.71658  -0.70908
 Alpha  occ. eigenvalues --   -0.69775  -0.69556  -0.68909  -0.68092  -0.67710
 Alpha  occ. eigenvalues --   -0.67260  -0.66887  -0.66352  -0.65338  -0.64840
 Alpha  occ. eigenvalues --   -0.64680  -0.64438  -0.64238  -0.64082  -0.63918
 Alpha  occ. eigenvalues --   -0.63566  -0.62240  -0.61583  -0.60431  -0.59908
 Alpha  occ. eigenvalues --   -0.59746  -0.59088  -0.58865  -0.58514  -0.58208
 Alpha  occ. eigenvalues --   -0.57758  -0.57639  -0.57298  -0.56785  -0.56614
 Alpha  occ. eigenvalues --   -0.56360  -0.55882  -0.55575  -0.55570  -0.55309
 Alpha  occ. eigenvalues --   -0.55251  -0.54862  -0.54748  -0.54483  -0.53977
 Alpha  occ. eigenvalues --   -0.53880  -0.53384  -0.53204  -0.52965  -0.52883
 Alpha  occ. eigenvalues --   -0.52746  -0.52660  -0.52554  -0.52446  -0.52320
 Alpha  occ. eigenvalues --   -0.52231  -0.52064  -0.51911  -0.51738  -0.51420
 Alpha  occ. eigenvalues --   -0.51205  -0.50792  -0.50549  -0.50466  -0.50080
 Alpha  occ. eigenvalues --   -0.49989  -0.49981  -0.49617  -0.49528  -0.49403
 Alpha  occ. eigenvalues --   -0.49253  -0.49209  -0.48744  -0.48686  -0.48509
 Alpha  occ. eigenvalues --   -0.48458  -0.48437  -0.48311  -0.47950  -0.47808
 Alpha  occ. eigenvalues --   -0.47759  -0.47660  -0.47223  -0.47027  -0.46809
 Alpha  occ. eigenvalues --   -0.46633  -0.46592  -0.46426  -0.46300  -0.46088
 Alpha  occ. eigenvalues --   -0.45980  -0.45645  -0.45553  -0.45460  -0.45251
 Alpha  occ. eigenvalues --   -0.45099  -0.44848  -0.44584  -0.44561  -0.44314
 Alpha  occ. eigenvalues --   -0.44179  -0.44058  -0.43936  -0.43845  -0.43547
 Alpha  occ. eigenvalues --   -0.43542  -0.43459  -0.43314  -0.43244  -0.43013
 Alpha  occ. eigenvalues --   -0.42841  -0.42765  -0.42602  -0.42574  -0.42400
 Alpha  occ. eigenvalues --   -0.42109  -0.42020  -0.41941  -0.41821  -0.41519
 Alpha  occ. eigenvalues --   -0.41364  -0.41086  -0.40901  -0.40786  -0.40761
 Alpha  occ. eigenvalues --   -0.40711  -0.40542  -0.40361  -0.40255  -0.40210
 Alpha  occ. eigenvalues --   -0.40172  -0.39855  -0.39433  -0.39250  -0.39012
 Alpha  occ. eigenvalues --   -0.38381  -0.37859  -0.37694  -0.37301  -0.37278
 Alpha  occ. eigenvalues --   -0.36999  -0.36628  -0.36554  -0.36360  -0.36056
 Alpha  occ. eigenvalues --   -0.35927  -0.35376  -0.34360  -0.33589  -0.33388
 Alpha  occ. eigenvalues --   -0.33193  -0.32773  -0.32331  -0.31353  -0.31044
 Alpha  occ. eigenvalues --   -0.30750  -0.30477  -0.30163  -0.29475  -0.29367
 Alpha  occ. eigenvalues --   -0.29236  -0.28647  -0.28491  -0.24109  -0.23127
 Alpha  occ. eigenvalues --   -0.21218  -0.20287
 Alpha virt. eigenvalues --   -0.08917  -0.07930  -0.01758  -0.00941  -0.00154
 Alpha virt. eigenvalues --    0.00744   0.01952   0.02967   0.03238   0.04629
 Alpha virt. eigenvalues --    0.04896   0.05547   0.05924   0.06044   0.06329

 Mulliken charges:
               1
     1  Mg   0.764495
     2  C    0.013982
     3  C   -0.093303
     4  C   -0.051374
     5  C   -0.065302
     6  N   -0.247328
     7  C   -0.031226
     8  C   -0.023809
     9  C   -0.090714
    10  C    0.058264
    11  C    0.105806
    12  C    0.069432
    13  C   -0.072768
    14  H    0.027095
    15  N   -0.426459
    16  C    0.172508
    17  C   -0.179620
    18  C   -0.007302
    19  C    0.144734
    20  C    0.111328
    21  C    0.009473
    22  O   -0.253029
    23  C    0.063598
    24  N   -0.334463
    25  C    0.041741
    26  C   -0.027176
    27  C   -0.022712
    28  C    0.071950
    29  C    0.077054
    30  C    0.045537
    31  C   -0.029116
    32  N   -0.310522
    33  C    0.077716
    34  C   -0.172136
    35  C    0.007046
    36  C    0.084428
    37  C    0.127978
    38  C    0.049221
    39  O   -0.190421
    40  C   -0.012263
    41  C    0.209523
    42  O   -0.243495
    43  O   -0.306228
    44  C    0.157065
    45  H   -0.021488
    46  H   -0.021506
    47  H   -0.046722
    48  H   -0.003966
    49  H   -0.006774
    50  H    0.024093
    51  H    0.015480
    52  H    0.013430
    53  H    0.015973
    54  H    0.048065
    55  H    0.014652
    56  H    0.017182
    57  H    0.005177
    58  H    0.024418
    59  H    0.036608
    60  H    0.036890
    61  H    0.032950
    62  H    0.029953
    63  H    0.012346
    64  H    0.008729
    65  H    0.020940
    66  H    0.013463
    67  H    0.003449
    68  H    0.004613
    69  H    0.003675
    70  H    0.008355
    71  H    0.017196
    72  H    0.038148
    73  H    0.046659
    74  H    0.006798
    75  H    0.044387
    76  H    0.032533
    77  H    0.041117
    78  H    0.040565
    79  H    0.055598
    80  Mg   0.840471
    81  C   -0.018163
    82  C   -0.087831
    83  C   -0.045495
    84  C   -0.067076
    85  N   -0.254780
    86  C   -0.050232
    87  C   -0.015064
    88  C   -0.090600
    89  C    0.046488
    90  C    0.114504
    91  C    0.062541
    92  C   -0.077614
    93  H    0.035663
    94  N   -0.423612
    95  C    0.163802
    96  C   -0.174228
    97  C   -0.007307
    98  C    0.152711
    99  C    0.099274
   100  C    0.015996
   101  O   -0.252528
   102  C    0.060996
   103  N   -0.350125
   104  C    0.038405
   105  C   -0.020201
   106  C   -0.034655
   107  C    0.087807
   108  C    0.073361
   109  C    0.033032
   110  C   -0.007389
   111  N   -0.324491
   112  C    0.079846
   113  C   -0.150400
   114  C    0.003033
   115  C    0.100455
   116  C    0.073861
   117  C    0.064974
   118  O   -0.178984
   119  C    0.000338
   120  C    0.218115
   121  O   -0.237176
   122  O   -0.312211
   123  C    0.166092
   124  H   -0.019512
   125  H   -0.015082
   126  H   -0.037101
   127  H   -0.001441
   128  H   -0.004000
   129  H    0.021644
   130  H    0.014419
   131  H    0.016247
   132  H    0.013921
   133  H    0.040210
   134  H    0.019703
   135  H    0.019259
   136  H    0.009013
   137  H    0.026467
   138  H    0.040464
   139  H    0.038271
   140  H    0.036827
   141  H    0.034262
   142  H    0.014658
   143  H    0.014075
   144  H    0.025266
   145  H    0.011444
   146  H    0.006888
   147  H    0.006061
   148  H    0.005510
   149  H    0.010781
   150  H    0.017590
   151  H    0.030607
   152  H    0.088048
   153  H    0.017088
   154  H    0.079959
   155  H    0.033143
   156  H    0.016616
   157  H    0.045617
   158  H    0.059283
 Sum of Mulliken charges =  -0.00000

 Dipole moment (field-independent basis, Debye):
    X=             -2.8193    Y=              2.7565    Z=              5.9570  Tot=              7.1437
 Quadrupole moment (field-independent basis, Debye-Ang):
   XX=           -488.9889   YY=           -478.7754   ZZ=           -514.2054
   XY=            -27.2053   XZ=              6.5262   YZ=             43.1379

 Normal termination of Gaussian 16 at Thu Sep  9 23:09:57 2021.
