 Gaussian 16, Revision A.03,
 Gaussian 16:  ES64L-G16RevA.03 25-Dec-2016

 -----------------------------------
 #p cam-b3lyp/Def2SVP td=(nstates=5)
 -----------------------------------

 --------------------------------
 TDDFT excited states in gaussian
 --------------------------------
 Symbolic Z-matrix:
 Charge =  0 Multiplicity = 1

                         Standard orientation:
 ---------------------------------------------------------------------
 Center     Atomic      Atomic             Coordinates (Angstroms)
 Number     Number       Type             X           Y           Z
 ---------------------------------------------------------------------
      1         12           0        5.470930   -0.463299    0.517671
      2          6           0        5.704668    2.592337   -1.331835
      3          6           0        6.049382    1.371807    3.335621
      4          6           0        5.720829   -3.192759    2.112732
      5          6           0        6.042063   -2.148509   -2.478917
      6          7           0        5.815691    1.700537    0.833268
      7          6           0        5.820993    2.773264    0.048157
      8          6           0        5.885990    4.115528    0.836495
      9          6           0        6.553497    3.584310    2.183431
     10          6           0        6.083270    2.141241    2.134848
     11          6           0        8.078416    3.605160    2.157131
     12          6           0        4.465630    4.719394    1.100416
     13          6           0        4.452345    6.176667    1.571088
     14          1           0        3.374427    7.046680    1.125533
     15          7           0        5.348192   -0.831026    2.454824
     16          6           0        5.603353    0.038401    3.461936
     17          6           0        5.370743   -0.710485    4.715628
     18          6           0        5.143948   -2.138190    4.357415
     19          6           0        5.424831   -2.115521    2.944628
     20          6           0        5.330802   -0.062747    6.065662
     21          6           0        4.748628   -3.335359    5.162798
     22          8           0        4.833225   -4.524319    4.700423
     23          6           0        4.338075   -3.083451    6.556007
     24          7           0        6.046918   -2.389245   -0.045005
     25          6           0        6.010457   -3.402827    0.826951
     26          6           0        6.189830   -4.722866    0.137558
     27          6           0        6.114010   -4.417874   -1.428003
     28          6           0        5.978096   -2.876633   -1.361862
     29          6           0        7.494423   -5.469002    0.449534
     30          6           0        5.070932   -5.215690   -2.250133
     31          6           0        3.673569   -4.806082   -1.841850
     32          7           0        5.639504    0.079223   -1.577156
     33          6           0        5.901579   -0.781776   -2.652642
     34          6           0        6.030835    0.058638   -3.857244
     35          6           0        5.850246    1.360075   -3.393033
     36          6           0        5.648706    1.336437   -1.983382
     37          6           0        6.341153   -0.403719   -5.166581
     38          6           0        5.805169    2.767182   -3.756179
     39          8           0        5.817475    3.389179   -4.819411
     40          6           0        5.830493    3.630926   -2.418594
     41          6           0        4.747435    4.669394   -2.527577
     42          8           0        3.543858    4.339776   -2.538505
     43          8           0        5.282591    5.888831   -2.362879
     44          6           0        4.256624    6.963545   -2.430223
     45          1           0        6.454886    1.805311    4.251908
     46          1           0        5.706802   -4.166790    2.606192
     47          1           0        6.136216   -2.611277   -3.463007
     48          1           0        6.518861    4.878676    0.383168
     49          1           0        6.149345    4.085144    3.062947
     50          1           0        8.456344    3.860887    1.167335
     51          1           0        8.388103    2.597275    2.434179
     52          1           0        8.470256    4.263017    2.933314
     53          1           0        4.027213    4.238082    1.974596
     54          1           0        3.833954    4.620090    0.216985
     55          1           0        5.419338    6.655224    1.413557
     56          1           0        4.319022    6.184967    2.652918
     57          1           0        5.696095    0.962799    6.028780
     58          1           0        6.053415   -0.586142    6.691439
     59          1           0        4.341365   -0.120691    6.519521
     60          1           0        5.155774   -2.599109    7.090172
     61          1           0        4.005477   -4.043258    6.949706
     62          1           0        3.509027   -2.375195    6.557235
     63          1           0        5.393012   -5.415460    0.405549
     64          1           0        7.060088   -4.620638   -1.930494
     65          1           0        7.340611   -6.472772    0.846388
     66          1           0        8.074055   -4.859269    1.142025
     67          1           0        8.182928   -5.556722   -0.390515
     68          1           0        5.164407   -6.282213   -2.048297
     69          1           0        5.169767   -5.071872   -3.326143
     70          1           0        3.488585   -5.417805   -0.959576
     71          1           0        2.961958   -5.039053   -2.634659
     72          1           0        3.640367   -3.762672   -1.527716
     73          1           0        5.673960    0.128834   -5.844231
     74          1           0        6.209137   -1.482454   -5.247236
     75          1           0        7.386130   -0.103962   -5.244199
     76          1           0        6.821715    4.078501   -2.353194
     77          1           0        4.573461    7.661665   -3.205127
     78          1           0        4.144858    7.349198   -1.416722
     79          1           0        3.275583    6.670568   -2.805804
     80         12           0       -5.065759   -0.870212   -0.328992
     81          6           0       -7.685650    1.497058    0.312326
     82          6           0       -3.024589    1.787145   -0.966739
     83          6           0       -2.868550   -2.926352   -1.334960
     84          6           0       -7.542097   -3.284303   -0.759845
     85          7           0       -5.424435    1.312129   -0.297405
     86          6           0       -6.442856    2.096956    0.020767
     87          6           0       -6.089910    3.606221    0.105121
     88          6           0       -4.803756    3.606519   -0.856489
     89          6           0       -4.361960    2.155911   -0.674218
     90          6           0       -5.147482    3.820690   -2.321176
     91          6           0       -5.717507    4.052430    1.562600
     92          6           0       -5.662952    5.566567    1.777443
     93          1           0       -6.098869    6.103218    3.063694
     94          7           0       -3.109077   -0.642932   -0.570459
     95          6           0       -2.445754    0.510115   -0.797951
     96          6           0       -1.027303    0.140442   -0.922426
     97          6           0       -0.927034   -1.344348   -0.913973
     98          6           0       -2.330173   -1.703578   -0.961428
     99          6           0        0.078302    1.155346   -0.954424
    100          6           0        0.239127   -2.285256   -0.882904
    101          8           0        0.100955   -3.536929   -1.121740
    102          6           0        1.561277   -1.683353   -0.656808
    103          7           0       -5.189896   -2.770227   -1.163766
    104          6           0       -4.080010   -3.468135   -1.462095
    105          6           0       -4.410600   -4.904642   -1.790000
    106          6           0       -5.954017   -5.087151   -1.412975
    107          6           0       -6.286284   -3.637088   -0.997870
    108          6           0       -4.189063   -5.323185   -3.243322
    109          6           0       -6.307167   -6.236751   -0.429939
    110          6           0       -5.746253   -5.934184    0.940900
    111          7           0       -7.208279   -0.964643   -0.066774
    112          6           0       -8.052067   -2.066032   -0.329588
    113          6           0       -9.440771   -1.612941   -0.109070
    114          6           0       -9.309011   -0.262323    0.247239
    115          6           0       -7.936630    0.106085    0.229064
    116          6           0      -10.611790   -2.401659   -0.290045
    117          6           0      -10.019639    0.938322    0.624285
    118          8           0      -11.191052    1.208407    0.886154
    119          6           0       -9.010020    2.164282    0.560275
    120          6           0       -9.166750    2.961643    1.826030
    121          8           0       -8.856048    2.470022    2.925292
    122          8           0       -9.449383    4.238658    1.510210
    123          6           0       -9.603116    5.071634    2.732637
    124          1           0       -2.364668    2.535078   -1.407153
    125          1           0       -2.143346   -3.704404   -1.584349
    126          1           0       -8.363943   -4.003261   -0.778357
    127          1           0       -6.848212    4.272725   -0.287962
    128          1           0       -4.038377    4.286858   -0.492203
    129          1           0       -6.214234    3.819427   -2.489029
    130          1           0       -4.679440    3.004358   -2.855585
    131          1           0       -4.672406    4.734167   -2.690204
    132          1           0       -4.668106    3.796980    1.758155
    133          1           0       -6.382617    3.609638    2.278273
    134          1           0       -6.131573    6.117069    0.952636
    135          1           0       -4.617483    5.883326    1.751261
    136          1           0       -0.310596    2.169029   -1.111239
    137          1           0        0.673881    0.951225   -1.850802
    138          1           0        0.727659    1.098592   -0.078190
    139          1           0        1.762380   -0.950746   -1.434823
    140          1           0        2.254989   -2.522732   -0.578703
    141          1           0        1.538983   -1.136372    0.292361
    142          1           0       -3.819259   -5.584465   -1.188945
    143          1           0       -6.566553   -5.308484   -2.299335
    144          1           0       -3.501427   -6.183352   -3.349839
    145          1           0       -3.816400   -4.468257   -3.791720
    146          1           0       -5.093588   -5.574794   -3.794449
    147          1           0       -5.842370   -7.170339   -0.756335
    148          1           0       -7.373055   -6.420203   -0.344901
    149          1           0       -4.708120   -6.270700    0.862534
    150          1           0       -6.284528   -6.489695    1.706212
    151          1           0       -5.729435   -4.854504    1.129733
    152          1           0      -11.257432   -2.198634    0.554009
    153          1           0      -10.370981   -3.460259   -0.361790
    154          1           0      -10.974134   -1.997880   -1.239229
    155          1           0       -9.260546    2.749076   -0.325636
    156          1           0      -10.588188    5.544907    2.674959
    157          1           0       -8.722804    5.741332    2.750460
    158          1           0       -9.670883    4.557496    3.684225
 ---------------------------------------------------------------------

 SCF Done:  E(RCAM-B3LYP) =  -4069.81359739     A.U. after   18 cycles

 Excitation energies and oscillator strengths:

 Excited State   1:      Singlet-A      1.6629 eV  745.58 nm  f=0.3429  <S**2>=0.000
     309 -> 315        0.10822
     310 -> 316        0.13195
     311 -> 313       -0.43088
     312 -> 314        0.53462
 This state for optimization and/or second-order correction.
 Total Energy, E(TD-HF/TD-DFT) =  -4069.75248606
 Copying the excited state density for this state as the 1-particle RhoCI density.

 Excited State   2:      Singlet-A      1.6841 eV  736.21 nm  f=0.4518  <S**2>=0.000
     309 -> 315       -0.13794
     310 -> 316        0.10919
     311 -> 313        0.53371
     312 -> 314        0.43027

 Excited State   3:      Singlet-A      2.1845 eV  567.57 nm  f=0.0211  <S**2>=0.000
     309 -> 313       -0.28495
     310 -> 314        0.57731
     311 -> 315       -0.11823
     312 -> 316       -0.24306

 Excited State   4:      Singlet-A      2.1978 eV  564.13 nm  f=0.1569  <S**2>=0.000
     309 -> 313        0.57413
     310 -> 314        0.28144
     311 -> 315        0.25230
     312 -> 316       -0.12274

 Excited State   5:      Singlet-A      2.4160 eV  513.19 nm  f=0.0000  <S**2>=0.000
     312 -> 313        0.70661

 The electronic state is 1-A.
 Alpha  occ. eigenvalues --  -46.88069 -46.87476 -19.26695 -19.26245 -19.19478
 Alpha  occ. eigenvalues --  -19.19048 -19.18935 -19.18677 -19.18436 -19.17883
 Alpha  occ. eigenvalues --  -14.42693 -14.42311 -14.41631 -14.41172 -14.39633
 Alpha  occ. eigenvalues --  -14.39168 -14.38851 -14.38415 -10.39511 -10.38973
 Alpha  occ. eigenvalues --  -10.35564 -10.35349 -10.34665 -10.34064 -10.32090
 Alpha  occ. eigenvalues --  -10.31677 -10.31657 -10.31157 -10.31111 -10.30818
 Alpha  occ. eigenvalues --  -10.30807 -10.30716 -10.30339 -10.30241 -10.30153
 Alpha  occ. eigenvalues --  -10.30085 -10.29945 -10.29835 -10.29742 -10.29456
 Alpha  occ. eigenvalues --  -10.29225 -10.29194 -10.29046 -10.28905 -10.28616
 Alpha  occ. eigenvalues --  -10.28560 -10.28544 -10.28378 -10.28203 -10.28012
 Alpha  occ. eigenvalues --  -10.27944 -10.27935 -10.27796 -10.27784 -10.27648
 Alpha  occ. eigenvalues --  -10.27643 -10.27463 -10.27437 -10.27436 -10.27429
 Alpha  occ. eigenvalues --  -10.27373 -10.27305 -10.27265 -10.27243 -10.27094
 Alpha  occ. eigenvalues --  -10.26897 -10.26848 -10.26562 -10.26489 -10.26456
 Alpha  occ. eigenvalues --  -10.26415 -10.26179 -10.26021 -10.26013 -10.25864
 Alpha  occ. eigenvalues --  -10.25789 -10.25745 -10.25695 -10.25433 -10.25285
 Alpha  occ. eigenvalues --  -10.25072 -10.24968 -10.24680 -10.24610 -10.24517
 Alpha  occ. eigenvalues --  -10.24076  -3.16787  -3.16227  -1.91671  -1.91255
 Alpha  occ. eigenvalues --   -1.91109  -1.91098  -1.90697  -1.90534  -1.17047
 Alpha  occ. eigenvalues --   -1.16536  -1.08908  -1.08499  -1.07329  -1.07084
 Alpha  occ. eigenvalues --   -1.06896  -1.06831  -1.04825  -1.04306  -1.03953
 Alpha  occ. eigenvalues --   -1.03482  -1.03452  -1.02855  -1.02623  -1.01924
 Alpha  occ. eigenvalues --   -0.92224  -0.91807  -0.89588  -0.89446  -0.89327
 Alpha  occ. eigenvalues --   -0.88966  -0.88305  -0.88084  -0.88065  -0.87887
 Alpha  occ. eigenvalues --   -0.87614  -0.87487  -0.87447  -0.86876  -0.85233
 Alpha  occ. eigenvalues --   -0.84829  -0.83933  -0.83735  -0.83034  -0.82852
 Alpha  occ. eigenvalues --   -0.82781  -0.82499  -0.81859  -0.81453  -0.80819
 Alpha  occ. eigenvalues --   -0.80290  -0.78984  -0.78391  -0.77394  -0.77118
 Alpha  occ. eigenvalues --   -0.76938  -0.76747  -0.76158  -0.75634  -0.74957
 Alpha  occ. eigenvalues --   -0.74635  -0.72958  -0.72501  -0.71864  -0.71402
 Alpha  occ. eigenvalues --   -0.69785  -0.69608  -0.69097  -0.68655  -0.67852
 Alpha  occ. eigenvalues --   -0.67477  -0.67442  -0.67067  -0.65549  -0.65103
 Alpha  occ. eigenvalues --   -0.65086  -0.64811  -0.64596  -0.64499  -0.64291
 Alpha  occ. eigenvalues --   -0.64044  -0.62568  -0.62134  -0.60593  -0.60149
 Alpha  occ. eigenvalues --   -0.60057  -0.59610  -0.59182  -0.58817  -0.58704
 Alpha  occ. eigenvalues --   -0.58242  -0.57892  -0.57439  -0.57400  -0.57077
 Alpha  occ. eigenvalues --   -0.56532  -0.56285  -0.55993  -0.55730  -0.55715
 Alpha  occ. eigenvalues --   -0.55468  -0.55310  -0.55102  -0.54643  -0.54356
 Alpha  occ. eigenvalues --   -0.54171  -0.53741  -0.53461  -0.53450  -0.53163
 Alpha  occ. eigenvalues --   -0.53078  -0.52990  -0.52939  -0.52744  -0.52473
 Alpha  occ. eigenvalues --   -0.52286  -0.52259  -0.52104  -0.51871  -0.51721
 Alpha  occ. eigenvalues --   -0.51508  -0.51373  -0.51037  -0.50695  -0.50288
 Alpha  occ. eigenvalues --   -0.50152  -0.49995  -0.49759  -0.49714  -0.49686
 Alpha  occ. eigenvalues --   -0.49443  -0.49366  -0.49310  -0.49009  -0.48937
 Alpha  occ. eigenvalues --   -0.48855  -0.48630  -0.48535  -0.48388  -0.48231
 Alpha  occ. eigenvalues --   -0.48179  -0.47859  -0.47480  -0.47393  -0.46989
 Alpha  occ. eigenvalues --   -0.46868  -0.46796  -0.46554  -0.46524  -0.46437
 Alpha  occ. eigenvalues --   -0.46269  -0.46080  -0.46040  -0.45910  -0.45672
 Alpha  occ. eigenvalues --   -0.45246  -0.45052  -0.44821  -0.44704  -0.44460
 Alpha  occ. eigenvalues --   -0.44349  -0.44346  -0.44243  -0.44159  -0.43932
 Alpha  occ. eigenvalues --   -0.43890  -0.43810  -0.43697  -0.43428  -0.43404
 Alpha  occ. eigenvalues --   -0.43209  -0.43194  -0.43028  -0.42790  -0.42720
 Alpha  occ. eigenvalues --   -0.42627  -0.42371  -0.42003  -0.41891  -0.41811
 Alpha  occ. eigenvalues --   -0.41673  -0.41502  -0.41338  -0.41300  -0.41045
 Alpha  occ. eigenvalues --   -0.40967  -0.40807  -0.40616  -0.40550  -0.40536
 Alpha  occ. eigenvalues --   -0.40474  -0.40334  -0.40101  -0.39285  -0.39225
 Alpha  occ. eigenvalues --   -0.38522  -0.38200  -0.38036  -0.37536  -0.37505
 Alpha  occ. eigenvalues --   -0.37386  -0.37100  -0.37042  -0.37014  -0.36651
 Alpha  occ. eigenvalues --   -0.36353  -0.36065  -0.34512  -0.34189  -0.34073
 Alpha  occ. eigenvalues --   -0.33735  -0.33407  -0.32992  -0.31469  -0.31245
 Alpha  occ. eigenvalues --   -0.31186  -0.30797  -0.30302  -0.29793  -0.29663
 Alpha  occ. eigenvalues --   -0.29559  -0.29122  -0.29020  -0.24306  -0.23850
 Alpha  occ. eigenvalues --   -0.21332  -0.20921
 Alpha virt. eigenvalues --   -0.08983  -0.08594  -0.01948  -0.01517  -0.00254
 Alpha virt. eigenvalues --    0.00132   0.01972   0.02361   0.02787   0.03382
 Alpha virt. eigenvalues --    0.04471   0.04690   0.04905   0.05288   0.05835

 Mulliken charges:
               1
     1  Mg   0.819292
     2  C   -0.004265
     3  C   -0.094064
     4  C   -0.045001
     5  C   -0.059195
     6  N   -0.256051
     7  C   -0.054451
     8  C   -0.013275
     9  C   -0.086808
    10  C    0.045915
    11  C    0.104655
    12  C    0.053146
    13  C   -0.071590
    14  H    0.034463
    15  N   -0.432666
    16  C    0.168232
    17  C   -0.177388
    18  C   -0.003434
    19  C    0.148101
    20  C    0.110137
    21  C    0.013070
    22  O   -0.247745
    23  C    0.062263
    24  N   -0.338938
    25  C    0.040665
    26  C   -0.028169
    27  C   -0.024089
    28  C    0.073643
    29  C    0.076149
    30  C    0.039891
    31  C   -0.010724
    32  N   -0.309316
    33  C    0.075002
    34  C   -0.169780
    35  C    0.007462
    36  C    0.079582
    37  C    0.127598
    38  C    0.044933
    39  O   -0.188605
    40  C   -0.005366
    41  C    0.213888
    42  O   -0.261647
    43  O   -0.303718
    44  C    0.157850
    45  H   -0.017261
    46  H   -0.015621
    47  H   -0.041033
    48  H    0.001222
    49  H   -0.003946
    50  H    0.025696
    51  H    0.017121
    52  H    0.017195
    53  H    0.010548
    54  H    0.040979
    55  H    0.019069
    56  H    0.018814
    57  H    0.005858
    58  H    0.027606
    59  H    0.040101
    60  H    0.037329
    61  H    0.036890
    62  H    0.031668
    63  H    0.019104
    64  H    0.008819
    65  H    0.023940
    66  H    0.011838
    67  H    0.004972
    68  H    0.005690
    69  H    0.001878
    70  H    0.012417
    71  H    0.025745
    72  H    0.030425
    73  H    0.046855
    74  H    0.010482
    75  H    0.046390
    76  H    0.035944
    77  H    0.044042
    78  H    0.046733
    79  H    0.051698
    80  Mg   0.837379
    81  C   -0.016789
    82  C   -0.087681
    83  C   -0.045629
    84  C   -0.065103
    85  N   -0.254407
    86  C   -0.050404
    87  C   -0.015102
    88  C   -0.090191
    89  C    0.044924
    90  C    0.114194
    91  C    0.062623
    92  C   -0.077386
    93  H    0.033480
    94  N   -0.423653
    95  C    0.161885
    96  C   -0.174629
    97  C   -0.003586
    98  C    0.152475
    99  C    0.097831
   100  C    0.019461
   101  O   -0.253504
   102  C    0.021343
   103  N   -0.350174
   104  C    0.037873
   105  C   -0.019923
   106  C   -0.034596
   107  C    0.088656
   108  C    0.073742
   109  C    0.034879
   110  C   -0.007578
   111  N   -0.323909
   112  C    0.077908
   113  C   -0.163716
   114  C    0.002055
   115  C    0.095709
   116  C    0.131602
   117  C    0.041941
   118  O   -0.188815
   119  C    0.001029
   120  C    0.211176
   121  O   -0.251423
   122  O   -0.305529
   123  C    0.152231
   124  H   -0.015508
   125  H   -0.016267
   126  H   -0.041085
   127  H   -0.000982
   128  H   -0.003888
   129  H    0.021841
   130  H    0.015515
   131  H    0.017094
   132  H    0.013665
   133  H    0.037186
   134  H    0.020904
   135  H    0.019375
   136  H    0.014976
   137  H    0.037635
   138  H    0.038615
   139  H    0.055848
   140  H    0.051962
   141  H    0.036839
   142  H    0.014065
   143  H    0.012091
   144  H    0.024217
   145  H    0.012011
   146  H    0.005546
   147  H    0.005743
   148  H    0.003381
   149  H    0.010904
   150  H    0.017508
   151  H    0.030269
   152  H    0.045401
   153  H    0.008079
   154  H    0.046554
   155  H    0.034883
   156  H    0.043608
   157  H    0.049314
   158  H    0.053174
 Sum of Mulliken charges =  -0.00000

 Dipole moment (field-independent basis, Debye):
    X=              5.2449    Y=              2.7339    Z=              2.1688  Tot=              6.2997
 Quadrupole moment (field-independent basis, Debye-Ang):
   XX=           -551.7700   YY=           -469.9063   ZZ=           -512.7067
   XY=             14.3964   XZ=             41.6807   YZ=             37.4099

 Normal termination of Gaussian 16 at Fri Sep 10 08:58:49 2021.
