 Gaussian 16, Revision A.03,
 Gaussian 16:  ES64L-G16RevA.03 25-Dec-2016

 -----------------------------------
 #p cam-b3lyp/Def2SVP td=(nstates=5)
 -----------------------------------

 --------------------------------
 TDDFT excited states in gaussian
 --------------------------------
 Symbolic Z-matrix:
 Charge =  0 Multiplicity = 1

                         Standard orientation:
 ---------------------------------------------------------------------
 Center     Atomic      Atomic             Coordinates (Angstroms)
 Number     Number       Type             X           Y           Z
 ---------------------------------------------------------------------
      1         12           0        4.119372   -1.613396    0.107724
      2          6           0        5.429776    1.395751   -1.320593
      3          6           0        5.548210   -0.659809    3.055971
      4          6           0        3.365649   -4.465924    1.270310
      5          6           0        3.792287   -2.837135   -3.138988
      6          7           0        5.311041    0.165140    0.671090
      7          6           0        5.692435    1.274503    0.045772
      8          6           0        6.331511    2.330811    0.996124
      9          6           0        6.815324    1.358897    2.163731
     10          6           0        5.810314    0.235935    1.977093
     11          6           0        8.219240    0.802086    1.950464
     12          6           0        5.285208    3.373572    1.515382
     13          6           0        5.878633    4.619648    2.179080
     14          1           0        5.208028    5.897809    1.994848
     15          7           0        3.979921   -2.239293    1.976321
     16          6           0        4.619482   -1.722977    3.053199
     17          6           0        4.186663   -2.533686    4.211688
     18          6           0        3.391839   -3.681206    3.692508
     19          6           0        3.571715   -3.520510    2.272227
     20          6           0        4.489067   -2.166328    5.632023
     21          6           0        2.605060   -4.758684    4.369376
     22          8           0        2.183684   -5.789703    3.741668
     23          6           0        2.413848   -4.617272    5.824190
     24          7           0        3.850414   -3.483125   -0.780763
     25          6           0        3.469194   -4.542105   -0.058118
     26          6           0        3.068886   -5.688530   -0.938686
     27          6           0        3.024311   -5.109003   -2.425937
     28          6           0        3.513848   -3.669283   -2.132971
     29          6           0        3.988048   -6.917114   -0.897047
     30          6           0        1.702451   -5.292773   -3.212913
     31          6           0        0.609167   -4.460403   -2.581258
     32          7           0        4.360357   -0.818649   -1.897606
     33          6           0        4.193885   -1.512204   -3.105059
     34          6           0        4.571234   -0.587630   -4.189881
     35          6           0        4.949284    0.581737   -3.532992
     36          6           0        4.841533    0.390514   -2.125826
     37          6           0        4.592439   -0.896662   -5.578580
     38          6           0        5.442691    1.940139   -3.691583
     39          8           0        5.635081    2.686166   -4.652792
     40          6           0        5.889631    2.480985   -2.262052
     41          6           0        5.301590    3.855227   -2.091832
     42          8           0        4.067627    4.015869   -1.997519
     43          8           0        6.284685    4.730103   -1.829808
     44          6           0        5.765850    6.108251   -1.620830
     45          1           0        6.147433   -0.580680    3.965153
     46          1           0        2.997474   -5.431352    1.623627
     47          1           0        3.635165   -3.121139   -4.181152
     48          1           0        7.185717    2.862209    0.576157
     49          1           0        6.697062    1.813729    3.147024
     50          1           0        8.606173    1.063528    0.965654
     51          1           0        8.121038   -0.279444    2.046088
     52          1           0        8.886168    1.114639    2.754389
     53          1           0        4.746488    2.950517    2.363241
     54          1           0        4.613034    3.678251    0.712463
     55          1           0        6.944456    4.713743    1.969135
     56          1           0        5.825967    4.488781    3.259960
     57          1           0        5.227439   -1.367629    5.690605
     58          1           0        4.982332   -3.026024    6.085146
     59          1           0        3.587295   -1.921743    6.193554
     60          1           0        3.387496   -4.582040    6.313391
     61          1           0        1.753292   -5.431102    6.121170
     62          1           0        1.934600   -3.658826    6.025810
     63          1           0        2.081037   -6.061063   -0.670731
     64          1           0        3.780188   -5.565326   -3.065541
     65          1           0        3.474105   -7.839458   -0.625294
     66          1           0        4.802878   -6.705096   -0.205388
     67          1           0        4.532788   -7.111925   -1.820478
     68          1           0        1.378322   -6.332116   -3.172251
     69          1           0        1.784081   -5.011664   -4.262945
     70          1           0        0.251544   -5.099746   -1.774922
     71          1           0       -0.183611   -4.262526   -3.303449
     72          1           0        1.010954   -3.555197   -2.125566
     73          1           0        4.150405   -0.040672   -6.088340
     74          1           0        4.039571   -1.811889   -5.789056
     75          1           0        5.663839   -1.008581   -5.744204
     76          1           0        6.979036    2.498749   -2.260190
     77          1           0        6.285057    6.757097   -2.326278
     78          1           0        5.878112    6.323791   -0.558123
     79          1           0        4.727980    6.281230   -1.907611
     80         12           0       -4.280656    1.607856    0.456353
     81          6           0       -5.347348   -1.624010   -0.682187
     82          6           0       -3.240024    2.222803   -2.733242
     83          6           0       -2.926914    4.273955    1.517834
     84          6           0       -4.345432    0.333146    3.699294
     85          7           0       -4.340963    0.379982   -1.382371
     86          6           0       -4.825557   -0.808870   -1.708202
     87          6           0       -4.819793   -1.110482   -3.230884
     88          6           0       -3.641110   -0.111839   -3.669382
     89          6           0       -3.764026    0.918411   -2.548588
     90          6           0       -2.259681   -0.740208   -3.591143
     91          6           0       -6.178120   -0.733555   -3.920016
     92          6           0       -6.354660   -1.283554   -5.337090
     93          1           0       -7.689657   -1.694640   -5.762847
     94          7           0       -3.684823    3.225313   -0.527212
     95          6           0       -3.321999    3.300974   -1.824868
     96          6           0       -2.948547    4.704834   -2.056996
     97          6           0       -2.963022    5.416346   -0.749998
     98          6           0       -3.176579    4.303638    0.153527
     99          6           0       -2.700044    5.264802   -3.427443
    100          6           0       -2.797606    6.857769   -0.374302
    101          8           0       -2.608322    7.219486    0.840670
    102          6           0       -2.770411    7.824839   -1.481335
    103          7           0       -3.513456    2.158928    2.308403
    104          6           0       -3.030380    3.396434    2.516117
    105          6           0       -2.791402    3.649171    3.985611
    106          6           0       -3.444893    2.404163    4.747504
    107          6           0       -3.889531    1.566498    3.528492
    108          6           0       -1.329070    3.792714    4.406735
    109          6           0       -4.494359    2.723892    5.847078
    110          6           0       -5.735679    3.315819    5.219269
    111          7           0       -4.928396   -0.228086    1.393261
    112          6           0       -4.840969   -0.564242    2.762002
    113          6           0       -5.302090   -1.961175    2.897544
    114          6           0       -5.606436   -2.351425    1.584688
    115          6           0       -5.333764   -1.280430    0.691324
    116          6           0       -5.349328   -2.707835    4.108491
    117          6           0       -6.086320   -3.429374    0.750163
    118          8           0       -6.551722   -4.548891    0.959469
    119          6           0       -5.820280   -3.048526   -0.769899
    120          6           0       -7.080245   -3.322021   -1.544625
    121          8           0       -8.112878   -2.664966   -1.324306
    122          8           0       -6.799996   -4.158413   -2.560646
    123          6           0       -8.016228   -4.450955   -3.365028
    124          1           0       -2.675091    2.431093   -3.642278
    125          1           0       -2.562989    5.208511    1.951011
    126          1           0       -4.487971   -0.104603    4.689603
    127          1           0       -4.559806   -2.129523   -3.491126
    128          1           0       -3.849422    0.346160   -4.632815
    129          1           0       -2.288011   -1.720580   -3.139246
    130          1           0       -1.662735   -0.064742   -2.992429
    131          1           0       -1.795731   -0.755202   -4.581530
    132          1           0       -6.184375    0.342939   -4.134157
    133          1           0       -7.009653   -1.030527   -3.310942
    134          1           0       -5.619561   -2.063136   -5.571217
    135          1           0       -6.134226   -0.484721   -6.049329
    136          1           0       -2.599729    4.468488   -4.175250
    137          1           0       -1.714036    5.741354   -3.404176
    138          1           0       -3.444880    6.007875   -3.720251
    139          1           0       -1.956928    7.575711   -2.158571
    140          1           0       -2.735222    8.808571   -1.009215
    141          1           0       -3.698804    7.726236   -2.054903
    142          1           0       -3.286372    4.557247    4.307332
    143          1           0       -2.687993    1.808631    5.278806
    144          1           0       -1.113784    4.750541    4.916916
    145          1           0       -0.708265    3.682236    3.527560
    146          1           0       -0.955217    3.001561    5.054437
    147          1           0       -4.104464    3.478308    6.534823
    148          1           0       -4.774188    1.860381    6.441251
    149          1           0       -5.475955    4.372832    5.108136
    150          1           0       -6.594884    3.187266    5.874472
    151          1           0       -5.900606    2.909511    4.214608
    152          1           0       -6.292989   -3.236976    4.111383
    153          1           0       -5.252485   -2.061341    4.978220
    154          1           0       -4.475071   -3.350677    3.975480
    155          1           0       -4.984999   -3.656984   -1.118710
    156          1           0       -8.130305   -5.539145   -3.387481
    157          1           0       -7.863209   -3.940418   -4.334400
    158          1           0       -8.972627   -4.146423   -2.956368
 ---------------------------------------------------------------------

 SCF Done:  E(RCAM-B3LYP) =  -4069.81212684     A.U. after   19 cycles

 Excitation energies and oscillator strengths:

 Excited State   1:      Singlet-A      1.6541 eV  749.56 nm  f=0.0914  <S**2>=0.000
     309 -> 315        0.11517
     310 -> 316        0.12255
     311 -> 313        0.46816
     312 -> 314        0.50296
 This state for optimization and/or second-order correction.
 Total Energy, E(TD-HF/TD-DFT) =  -4069.75133992
 Copying the excited state density for this state as the 1-particle RhoCI density.

 Excited State   2:      Singlet-A      1.6975 eV  730.38 nm  f=0.5926  <S**2>=0.000
     309 -> 315        0.13172
     310 -> 316       -0.12220
     311 -> 313        0.50097
     312 -> 314       -0.46649

 Excited State   3:      Singlet-A      2.1851 eV  567.40 nm  f=0.0366  <S**2>=0.000
     309 -> 313        0.33809
     310 -> 314        0.54783
     311 -> 315       -0.14146
     312 -> 316       -0.23069

 Excited State   4:      Singlet-A      2.1948 eV  564.89 nm  f=0.1485  <S**2>=0.000
     309 -> 313        0.54464
     310 -> 314       -0.33482
     311 -> 315       -0.23854
     312 -> 316        0.14728

 Excited State   5:      Singlet-A      2.3424 eV  529.31 nm  f=0.0000  <S**2>=0.000
     312 -> 313        0.70708

 The electronic state is 1-A.
 Alpha  occ. eigenvalues --  -46.87910 -46.87437 -19.26412 -19.26208 -19.19165
 Alpha  occ. eigenvalues --  -19.19003 -19.18889 -19.18476 -19.18323 -19.17832
 Alpha  occ. eigenvalues --  -14.42558 -14.42269 -14.41563 -14.41151 -14.39513
 Alpha  occ. eigenvalues --  -14.39114 -14.38714 -14.38377 -10.39221 -10.38930
 Alpha  occ. eigenvalues --  -10.35521 -10.35150 -10.34541 -10.34014 -10.31791
 Alpha  occ. eigenvalues --  -10.31640 -10.31527 -10.31079 -10.31004 -10.30779
 Alpha  occ. eigenvalues --  -10.30702 -10.30629 -10.30313 -10.30184 -10.30126
 Alpha  occ. eigenvalues --  -10.30041 -10.29928 -10.29757 -10.29715 -10.29367
 Alpha  occ. eigenvalues --  -10.29187 -10.29167 -10.28825 -10.28555 -10.28511
 Alpha  occ. eigenvalues --  -10.28503 -10.28481 -10.28203 -10.28161 -10.27923
 Alpha  occ. eigenvalues --  -10.27906 -10.27839 -10.27755 -10.27702 -10.27619
 Alpha  occ. eigenvalues --  -10.27586 -10.27542 -10.27517 -10.27410 -10.27407
 Alpha  occ. eigenvalues --  -10.27289 -10.27271 -10.27262 -10.27214 -10.27072
 Alpha  occ. eigenvalues --  -10.26853 -10.26752 -10.26509 -10.26474 -10.26339
 Alpha  occ. eigenvalues --  -10.26318 -10.26150 -10.26147 -10.26063 -10.26044
 Alpha  occ. eigenvalues --  -10.25759 -10.25732 -10.25654 -10.25504 -10.25349
 Alpha  occ. eigenvalues --  -10.24968 -10.24894 -10.24889 -10.24646 -10.24634
 Alpha  occ. eigenvalues --  -10.24478  -3.16653  -3.16187  -1.91534  -1.91121
 Alpha  occ. eigenvalues --   -1.91069  -1.90963  -1.90658  -1.90494  -1.16764
 Alpha  occ. eigenvalues --   -1.16498  -1.08784  -1.08447  -1.07286  -1.06788
 Alpha  occ. eigenvalues --   -1.06786  -1.06728  -1.04690  -1.04264  -1.03872
 Alpha  occ. eigenvalues --   -1.03441  -1.03354  -1.02822  -1.02529  -1.01889
 Alpha  occ. eigenvalues --   -0.92095  -0.91768  -0.89647  -0.89324  -0.89273
 Alpha  occ. eigenvalues --   -0.88931  -0.88402  -0.88073  -0.88021  -0.87778
 Alpha  occ. eigenvalues --   -0.87574  -0.87459  -0.87379  -0.86838  -0.85070
 Alpha  occ. eigenvalues --   -0.84787  -0.84062  -0.83746  -0.83063  -0.82743
 Alpha  occ. eigenvalues --   -0.82700  -0.82430  -0.81706  -0.81414  -0.80709
 Alpha  occ. eigenvalues --   -0.80236  -0.78916  -0.78376  -0.77334  -0.77034
 Alpha  occ. eigenvalues --   -0.76933  -0.76723  -0.76032  -0.75620  -0.75007
 Alpha  occ. eigenvalues --   -0.74653  -0.72900  -0.72479  -0.71778  -0.71383
 Alpha  occ. eigenvalues --   -0.70043  -0.69633  -0.68969  -0.68613  -0.67753
 Alpha  occ. eigenvalues --   -0.67390  -0.67294  -0.66985  -0.65384  -0.65065
 Alpha  occ. eigenvalues --   -0.64973  -0.64730  -0.64569  -0.64461  -0.64389
 Alpha  occ. eigenvalues --   -0.64040  -0.62422  -0.62106  -0.60548  -0.60104
 Alpha  occ. eigenvalues --   -0.59903  -0.59573  -0.59104  -0.58788  -0.58623
 Alpha  occ. eigenvalues --   -0.58221  -0.57719  -0.57426  -0.57361  -0.57043
 Alpha  occ. eigenvalues --   -0.56435  -0.56091  -0.55976  -0.55703  -0.55626
 Alpha  occ. eigenvalues --   -0.55466  -0.55229  -0.55100  -0.54653  -0.54345
 Alpha  occ. eigenvalues --   -0.53980  -0.53698  -0.53416  -0.53319  -0.53035
 Alpha  occ. eigenvalues --   -0.53024  -0.52924  -0.52847  -0.52704  -0.52584
 Alpha  occ. eigenvalues --   -0.52397  -0.52278  -0.52086  -0.51707  -0.51678
 Alpha  occ. eigenvalues --   -0.51433  -0.51322  -0.51006  -0.50667  -0.50209
 Alpha  occ. eigenvalues --   -0.50151  -0.50012  -0.49761  -0.49676  -0.49609
 Alpha  occ. eigenvalues --   -0.49337  -0.49258  -0.49196  -0.48967  -0.48896
 Alpha  occ. eigenvalues --   -0.48712  -0.48575  -0.48540  -0.48356  -0.48224
 Alpha  occ. eigenvalues --   -0.48098  -0.47800  -0.47403  -0.47375  -0.46917
 Alpha  occ. eigenvalues --   -0.46887  -0.46641  -0.46515  -0.46482  -0.46344
 Alpha  occ. eigenvalues --   -0.46289  -0.46049  -0.45959  -0.45910  -0.45641
 Alpha  occ. eigenvalues --   -0.45311  -0.45058  -0.44713  -0.44603  -0.44323
 Alpha  occ. eigenvalues --   -0.44268  -0.44263  -0.44188  -0.44125  -0.43928
 Alpha  occ. eigenvalues --   -0.43880  -0.43701  -0.43625  -0.43483  -0.43387
 Alpha  occ. eigenvalues --   -0.43189  -0.43144  -0.42822  -0.42787  -0.42760
 Alpha  occ. eigenvalues --   -0.42712  -0.42377  -0.42135  -0.41824  -0.41801
 Alpha  occ. eigenvalues --   -0.41620  -0.41465  -0.41265  -0.41242  -0.40966
 Alpha  occ. eigenvalues --   -0.40897  -0.40786  -0.40684  -0.40526  -0.40479
 Alpha  occ. eigenvalues --   -0.40335  -0.40292  -0.40029  -0.39580  -0.39306
 Alpha  occ. eigenvalues --   -0.38572  -0.38206  -0.37822  -0.37462  -0.37433
 Alpha  occ. eigenvalues --   -0.37355  -0.37090  -0.36977  -0.36842  -0.36621
 Alpha  occ. eigenvalues --   -0.36311  -0.36049  -0.34405  -0.34039  -0.33912
 Alpha  occ. eigenvalues --   -0.33691  -0.33308  -0.32953  -0.31419  -0.31146
 Alpha  occ. eigenvalues --   -0.31040  -0.30754  -0.30183  -0.29743  -0.29567
 Alpha  occ. eigenvalues --   -0.29455  -0.29072  -0.28973  -0.24196  -0.23812
 Alpha  occ. eigenvalues --   -0.21247  -0.20887
 Alpha virt. eigenvalues --   -0.08893  -0.08551  -0.01859  -0.01466  -0.00159
 Alpha virt. eigenvalues --    0.00223   0.02062   0.02411   0.02840   0.03490
 Alpha virt. eigenvalues --    0.04625   0.04946   0.04961   0.05333   0.06123

 Mulliken charges:
               1
     1  Mg   0.838964
     2  C   -0.002812
     3  C   -0.094141
     4  C   -0.045444
     5  C   -0.064533
     6  N   -0.256881
     7  C   -0.052290
     8  C   -0.014089
     9  C   -0.087061
    10  C    0.046705
    11  C    0.104751
    12  C    0.053435
    13  C   -0.072507
    14  H    0.037937
    15  N   -0.433302
    16  C    0.168835
    17  C   -0.177059
    18  C   -0.003547
    19  C    0.149127
    20  C    0.110162
    21  C    0.012716
    22  O   -0.248319
    23  C    0.062353
    24  N   -0.341132
    25  C    0.041292
    26  C   -0.028633
    27  C   -0.023917
    28  C    0.074653
    29  C    0.075939
    30  C    0.035345
    31  C   -0.007433
    32  N   -0.310122
    33  C    0.079756
    34  C   -0.171415
    35  C    0.007840
    36  C    0.082392
    37  C    0.127709
    38  C    0.045077
    39  O   -0.189498
    40  C   -0.004932
    41  C    0.212608
    42  O   -0.257870
    43  O   -0.304569
    44  C    0.157983
    45  H   -0.017252
    46  H   -0.015970
    47  H   -0.042279
    48  H    0.000926
    49  H   -0.003746
    50  H    0.025512
    51  H    0.016444
    52  H    0.016977
    53  H    0.011233
    54  H    0.044464
    55  H    0.017597
    56  H    0.018019
    57  H    0.006078
    58  H    0.027356
    59  H    0.039344
    60  H    0.037410
    61  H    0.036619
    62  H    0.030876
    63  H    0.017666
    64  H    0.009629
    65  H    0.024158
    66  H    0.012651
    67  H    0.004790
    68  H    0.007546
    69  H    0.003502
    70  H    0.011458
    71  H    0.016939
    72  H    0.029160
    73  H    0.045654
    74  H    0.008384
    75  H    0.046499
    76  H    0.035410
    77  H    0.042728
    78  H    0.047399
    79  H    0.052919
    80  Mg   0.837651
    81  C   -0.016691
    82  C   -0.086121
    83  C   -0.044618
    84  C   -0.065551
    85  N   -0.254492
    86  C   -0.050182
    87  C   -0.014856
    88  C   -0.091296
    89  C    0.044914
    90  C    0.112539
    91  C    0.062706
    92  C   -0.077498
    93  H    0.034170
    94  N   -0.424122
    95  C    0.162568
    96  C   -0.170305
    97  C   -0.007210
    98  C    0.153176
    99  C    0.097830
   100  C    0.016451
   101  O   -0.254306
   102  C    0.060749
   103  N   -0.349970
   104  C    0.037515
   105  C   -0.019697
   106  C   -0.034338
   107  C    0.088577
   108  C    0.073937
   109  C    0.035017
   110  C   -0.007503
   111  N   -0.323933
   112  C    0.077933
   113  C   -0.163469
   114  C    0.002333
   115  C    0.095665
   116  C    0.131240
   117  C    0.042356
   118  O   -0.188645
   119  C    0.000858
   120  C    0.211164
   121  O   -0.251171
   122  O   -0.305817
   123  C    0.152158
   124  H   -0.016100
   125  H   -0.016189
   126  H   -0.041840
   127  H   -0.001838
   128  H   -0.004200
   129  H    0.022720
   130  H    0.017963
   131  H    0.016190
   132  H    0.014035
   133  H    0.037359
   134  H    0.020013
   135  H    0.019819
   136  H    0.010013
   137  H    0.031462
   138  H    0.038606
   139  H    0.040469
   140  H    0.035171
   141  H    0.033397
   142  H    0.013971
   143  H    0.010471
   144  H    0.023918
   145  H    0.013208
   146  H    0.003159
   147  H    0.005068
   148  H    0.003004
   149  H    0.010690
   150  H    0.017455
   151  H    0.030848
   152  H    0.045392
   153  H    0.007232
   154  H    0.047703
   155  H    0.034787
   156  H    0.043385
   157  H    0.049328
   158  H    0.053439
 Sum of Mulliken charges =  -0.00000

 Dipole moment (field-independent basis, Debye):
    X=              4.9440    Y=              1.1430    Z=              0.8120  Tot=              5.1390
 Quadrupole moment (field-independent basis, Debye-Ang):
   XX=           -526.0662   YY=           -531.9820   ZZ=           -461.9505
   XY=            -17.0935   XZ=             47.0608   YZ=             24.3323

 Normal termination of Gaussian 16 at Fri Sep  3 19:43:05 2021.
