 Gaussian 16, Revision A.03,
 Gaussian 16:  ES64L-G16RevA.03 25-Dec-2016

 -----------------------------------
 #p cam-b3lyp/Def2SVP td=(nstates=5)
 -----------------------------------

 --------------------------------
 TDDFT excited states in gaussian
 --------------------------------
 Symbolic Z-matrix:
 Charge =  0 Multiplicity = 1

                         Standard orientation:
 ---------------------------------------------------------------------
 Center     Atomic      Atomic             Coordinates (Angstroms)
 Number     Number       Type             X           Y           Z
 ---------------------------------------------------------------------
      1         12           0       -7.928006   -0.584215    0.175734
      2          6           0       -8.034824    2.975827    0.531969
      3          6           0       -8.845782   -0.136855   -3.080126
      4          6           0       -8.282477   -3.727972   -0.042819
      5          6           0       -8.137457   -0.790152    3.648396
      6          7           0       -8.354815    1.237325   -1.007681
      7          6           0       -8.301561    2.544024   -0.769201
      8          6           0       -8.481410    3.413531   -2.049430
      9          6           0       -9.275906    2.368328   -2.954043
     10          6           0       -8.769623    1.077352   -2.335187
     11          6           0      -10.789431    2.436967   -2.777886
     12          6           0       -7.111694    3.807451   -2.697840
     13          6           0       -7.182601    4.916200   -3.751881
     14          1           0       -6.083987    5.865859   -3.844308
     15          7           0       -8.003599   -1.757703   -1.411736
     16          6           0       -8.384728   -1.404174   -2.662754
     17          6           0       -8.269460   -2.627803   -3.485023
     18          6           0       -7.972563   -3.764679   -2.569896
     19          6           0       -8.101931   -3.125219   -1.285477
     20          6           0       -8.388569   -2.629989   -4.978194
     21          6           0       -7.637374   -5.202114   -2.813949
     22          8           0       -7.644501   -6.070916   -1.876023
     23          6           0       -7.383434   -5.588979   -4.213554
     24          7           0       -8.395719   -2.061180    1.574825
     25          6           0       -8.428623   -3.352993    1.229689
     26          6           0       -8.502740   -4.239170    2.437637
     27          6           0       -8.267858   -3.288168    3.698660
     28          6           0       -8.175769   -1.931637    2.957301
     29          6           0       -9.815353   -5.013642    2.619978
     30          6           0       -7.124863   -3.677177    4.669564
     31          6           0       -5.788838   -3.520226    3.978550
     32          7           0       -7.885275    0.816210    1.833452
     33          6           0       -8.011221    0.512936    3.196843
     34          6           0       -8.031112    1.795158    3.924566
     35          6           0       -7.931385    2.762082    2.926089
     36          6           0       -7.880531    2.125109    1.653308
     37          6           0       -8.189428    1.953558    5.329656
     38          6           0       -7.880770    4.186001    2.636692
     39          8           0       -7.794355    5.207252    3.320119
     40          6           0       -8.068473    4.385468    1.067996
     41          6           0       -7.004505    5.340983    0.600802
     42          8           0       -5.799237    5.018384    0.625805
     43          8           0       -7.582468    6.381815   -0.018205
     44          6           0       -6.580529    7.353391   -0.532318
     45          1           0       -9.356516   -0.132945   -4.045049
     46          1           0       -8.298319   -4.819641   -0.063954
     47          1           0       -8.115504   -0.778456    4.739649
     48          1           0       -9.080076    4.313424   -1.907247
     49          1           0       -8.979463    2.428405   -4.001055
     50          1           0      -11.065728    3.105633   -1.962738
     51          1           0      -11.103236    1.416702   -2.556346
     52          1           0      -11.276908    2.703353   -3.716066
     53          1           0       -6.757697    2.984094   -3.318186
     54          1           0       -6.387433    4.084709   -1.931094
     55          1           0       -8.138240    5.439989   -3.715719
     56          1           0       -7.165412    4.451718   -4.737864
     57          1           0       -8.771700   -1.680816   -5.350786
     58          1           0       -9.161268   -3.354382   -5.234907
     59          1           0       -7.451978   -2.903741   -5.464187
     60          1           0       -8.264424   -5.363353   -4.814802
     61          1           0       -7.072316   -6.632655   -4.185334
     62          1           0       -6.575985   -4.972307   -4.609394
     63          1           0       -7.723023   -4.999354    2.413385
     64          1           0       -9.150086   -3.229335    4.336536
     65          1           0       -9.681266   -6.093784    2.683374
     66          1           0      -10.479472   -4.749626    1.797462
     67          1           0      -10.408299   -4.711440    3.482826
     68          1           0       -7.214369   -4.723148    4.960905
     69          1           0       -7.111940   -3.079033    5.580776
     70          1           0       -5.684582   -4.458194    3.434326
     71          1           0       -4.991643   -3.404668    4.713626
     72          1           0       -5.813625   -2.717053    3.241811
     73          1           0       -7.466512    2.710069    5.634703
     74          1           0       -8.024433    1.013259    5.855219
     75          1           0       -9.226919    2.283607    5.380028
     76          1           0       -9.071201    4.785392    0.920623
     77          1           0       -6.829297    8.326017   -0.107647
     78          1           0       -6.586304    7.259033   -1.618352
     79          1           0       -5.558515    7.227368   -0.173230
     80         12           0        7.946089   -0.983130   -0.093421
     81          6           0        8.463123    2.553400    0.230193
     82          6           0        6.482052   -0.342332   -3.106821
     83          6           0        7.074163   -4.031814   -0.206114
     84          6           0        8.390001   -1.223154    3.354917
     85          7           0        7.579580    0.902963   -1.189129
     86          6           0        7.875099    2.179592   -0.996157
     87          6           0        7.593939    3.096489   -2.216736
     88          6           0        6.474846    2.199207   -2.938796
     89          6           0        6.885283    0.825735   -2.411750
     90          6           0        5.064085    2.493729   -2.456778
     91          6           0        8.857444    3.282298   -3.128355
     92          6           0        8.745291    4.405327   -4.161783
     93          1           0        9.943092    5.175258   -4.485747
     94          7           0        7.378582   -2.100532   -1.632215
     95          6           0        6.823572   -1.674606   -2.786274
     96          6           0        6.571219   -2.885695   -3.582359
     97          6           0        6.870634   -4.073438   -2.737169
     98          6           0        7.104596   -3.434325   -1.457770
     99          6           0        6.168930   -2.840100   -5.027870
    100          6           0        6.923493   -5.542556   -3.028862
    101          8           0        6.970610   -6.414133   -2.090263
    102          6           0        6.824230   -5.934268   -4.442445
    103          7           0        7.548189   -2.391337    1.383384
    104          6           0        7.240545   -3.660565    1.063459
    105          6           0        7.267796   -4.552176    2.281937
    106          6           0        7.896615   -3.661592    3.451999
    107          6           0        8.048168   -2.322627    2.697284
    108          6           0        5.915486   -5.103585    2.733141
    109          6           0        9.136372   -4.239807    4.187753
    110          6           0       10.317992   -4.290810    3.246180
    111          7           0        8.533566    0.357059    1.496184
    112          6           0        8.630045    0.057170    2.872719
    113          6           0        8.953763    1.317955    3.571317
    114          6           0        9.000859    2.275866    2.547265
    115          6           0        8.706009    1.659625    1.301146
    116          6           0        9.112996    1.472750    4.977306
    117          6           0        9.222487    3.670209    2.238453
    118          8           0        9.592050    4.653662    2.878758
    119          6           0        8.759823    3.935948    0.741214
    120          6           0        9.843112    4.719973    0.052515
    121          8           0       10.962340    4.214326   -0.143051
    122          8           0        9.315887    5.850172   -0.452514
    123          6           0       10.349469    6.656482   -1.154931
    124          1           0        5.805023   -0.233871   -3.954609
    125          1           0        6.886817   -5.108081   -0.201842
    126          1           0        8.640802   -1.232865    4.417785
    127          1           0        7.187553    4.069913   -1.969597
    128          1           0        6.574807    2.238022   -4.020406
    129          1           0        5.058457    3.177013   -1.620579
    130          1           0        4.646604    1.538212   -2.167407
    131          1           0        4.449135    2.852234   -3.287230
    132          1           0        8.945307    2.417882   -3.799040
    133          1           0        9.738657    3.425152   -2.533658
    134          1           0        7.902631    5.075450   -3.952470
    135          1           0        8.501305    3.962430   -5.130460
    136          1           0        5.865388   -1.829943   -5.329260
    137          1           0        5.256381   -3.438207   -5.124835
    138          1           0        6.933092   -3.251279   -5.690928
    139          1           0        5.891052   -5.559641   -4.856318
    140          1           0        6.970971   -7.015993   -4.456933
    141          1           0        7.633093   -5.446879   -4.998155
    142          1           0        7.902634   -5.413968    2.116393
    143          1           0        7.174546   -3.485334    4.262791
    144          1           0        5.888789   -6.208586    2.781345
    145          1           0        5.154084   -4.733858    2.059271
    146          1           0        5.566826   -4.739176    3.697946
    147          1           0        8.944767   -5.268932    4.501354
    148          1           0        9.412822   -3.679114    5.074428
    149          1           0       10.159209   -5.226254    2.701373
    150          1           0       11.251858   -4.312707    3.804262
    151          1           0       10.275737   -3.473411    2.516986
    152          1           0        9.982491    2.099372    5.125044
    153          1           0        9.226398    0.510817    5.472885
    154          1           0        8.164652    1.954946    5.229081
    155          1           0        7.818982    4.486170    0.781827
    156          1           0       10.340667    7.652332   -0.701193
    157          1           0       10.099578    6.590812   -2.230571
    158          1           0       11.386001    6.371072   -1.018521
 ---------------------------------------------------------------------

 SCF Done:  E(RCAM-B3LYP) =  -4069.81170401     A.U. after   19 cycles

 Excitation energies and oscillator strengths:

 Excited State   1:      Singlet-A      1.6699 eV  742.46 nm  f=0.0291  <S**2>=0.000
     309 -> 315       -0.10339
     310 -> 316        0.13801
     311 -> 313       -0.41000
     312 -> 314        0.55045
 This state for optimization and/or second-order correction.
 Total Energy, E(TD-HF/TD-DFT) =  -4069.75033592
 Copying the excited state density for this state as the 1-particle RhoCI density.

 Excited State   2:      Singlet-A      1.6850 eV  735.81 nm  f=0.7291  <S**2>=0.000
     309 -> 315        0.14193
     310 -> 316        0.10508
     311 -> 313        0.54963
     312 -> 314        0.40946

 Excited State   3:      Singlet-A      2.1853 eV  567.36 nm  f=0.0581  <S**2>=0.000
     309 -> 313       -0.13775
     310 -> 314        0.62787
     312 -> 316       -0.26617

 Excited State   4:      Singlet-A      2.1929 eV  565.38 nm  f=0.1352  <S**2>=0.000
     309 -> 313        0.62583
     310 -> 314        0.13665
     311 -> 315       -0.27214

 Excited State   5:      Singlet-A      2.7590 eV  449.38 nm  f=0.0000  <S**2>=0.000
     312 -> 313        0.70710

 The electronic state is 1-A.
 Alpha  occ. eigenvalues --  -46.87858 -46.87590 -19.26350 -19.26283 -19.19095
 Alpha  occ. eigenvalues --  -19.19087 -19.18874 -19.18660 -19.18225 -19.17977
 Alpha  occ. eigenvalues --  -14.42513 -14.42427 -14.41508 -14.41289 -14.39464
 Alpha  occ. eigenvalues --  -14.39284 -14.38647 -14.38529 -10.39146 -10.39023
 Alpha  occ. eigenvalues --  -10.35508 -10.35339 -10.34445 -10.34154 -10.31747
 Alpha  occ. eigenvalues --  -10.31696 -10.31468 -10.31236 -10.30975 -10.30955
 Alpha  occ. eigenvalues --  -10.30630 -10.30565 -10.30328 -10.30291 -10.30265
 Alpha  occ. eigenvalues --  -10.30075 -10.29975 -10.29823 -10.29690 -10.29370
 Alpha  occ. eigenvalues --  -10.29335 -10.29315 -10.28823 -10.28648 -10.28636
 Alpha  occ. eigenvalues --  -10.28605 -10.28427 -10.28336 -10.28187 -10.28064
 Alpha  occ. eigenvalues --  -10.27932 -10.27852 -10.27790 -10.27645 -10.27600
 Alpha  occ. eigenvalues --  -10.27554 -10.27548 -10.27496 -10.27465 -10.27453
 Alpha  occ. eigenvalues --  -10.27424 -10.27413 -10.27402 -10.27309 -10.27218
 Alpha  occ. eigenvalues --  -10.26974 -10.26795 -10.26635 -10.26476 -10.26377
 Alpha  occ. eigenvalues --  -10.26297 -10.26227 -10.26081 -10.26077 -10.25924
 Alpha  occ. eigenvalues --  -10.25889 -10.25866 -10.25774 -10.25477 -10.25325
 Alpha  occ. eigenvalues --  -10.24891 -10.24845 -10.24802 -10.24731 -10.24678
 Alpha  occ. eigenvalues --  -10.24621  -3.16601  -3.16340  -1.91483  -1.91222
 Alpha  occ. eigenvalues --   -1.91069  -1.90911  -1.90811  -1.90648  -1.16699
 Alpha  occ. eigenvalues --   -1.16577  -1.08682  -1.08584  -1.07275  -1.06913
 Alpha  occ. eigenvalues --   -1.06880  -1.06709  -1.04644  -1.04425  -1.03820
 Alpha  occ. eigenvalues --   -1.03594  -1.03293  -1.02970  -1.02471  -1.02042
 Alpha  occ. eigenvalues --   -0.92033  -0.91916  -0.89573  -0.89428  -0.89259
 Alpha  occ. eigenvalues --   -0.89078  -0.88339  -0.88154  -0.87926  -0.87737
 Alpha  occ. eigenvalues --   -0.87722  -0.87616  -0.87338  -0.87064  -0.85052
 Alpha  occ. eigenvalues --   -0.84932  -0.83987  -0.83812  -0.83028  -0.82879
 Alpha  occ. eigenvalues --   -0.82715  -0.82588  -0.81648  -0.81529  -0.80659
 Alpha  occ. eigenvalues --   -0.80377  -0.78859  -0.78574  -0.77280  -0.77078
 Alpha  occ. eigenvalues --   -0.76999  -0.76831  -0.75987  -0.75767  -0.74951
 Alpha  occ. eigenvalues --   -0.74735  -0.72833  -0.72630  -0.71731  -0.71509
 Alpha  occ. eigenvalues --   -0.69956  -0.69695  -0.68940  -0.68761  -0.67702
 Alpha  occ. eigenvalues --   -0.67536  -0.67294  -0.67141  -0.65355  -0.65203
 Alpha  occ. eigenvalues --   -0.64914  -0.64702  -0.64683  -0.64587  -0.64324
 Alpha  occ. eigenvalues --   -0.64138  -0.62359  -0.62212  -0.60502  -0.60279
 Alpha  occ. eigenvalues --   -0.59871  -0.59725  -0.59046  -0.58924  -0.58563
 Alpha  occ. eigenvalues --   -0.58358  -0.57645  -0.57483  -0.57366  -0.57171
 Alpha  occ. eigenvalues --   -0.56370  -0.56138  -0.56045  -0.55822  -0.55582
 Alpha  occ. eigenvalues --   -0.55393  -0.55391  -0.55181  -0.54580  -0.54422
 Alpha  occ. eigenvalues --   -0.53966  -0.53842  -0.53359  -0.53288  -0.53164
 Alpha  occ. eigenvalues --   -0.53077  -0.52977  -0.52837  -0.52823  -0.52613
 Alpha  occ. eigenvalues --   -0.52487  -0.52342  -0.51967  -0.51811  -0.51687
 Alpha  occ. eigenvalues --   -0.51596  -0.51255  -0.51133  -0.50639  -0.50425
 Alpha  occ. eigenvalues --   -0.50085  -0.49981  -0.49914  -0.49804  -0.49580
 Alpha  occ. eigenvalues --   -0.49425  -0.49276  -0.49161  -0.49135  -0.49031
 Alpha  occ. eigenvalues --   -0.48654  -0.48516  -0.48504  -0.48489  -0.48309
 Alpha  occ. eigenvalues --   -0.48280  -0.47757  -0.47531  -0.47357  -0.47056
 Alpha  occ. eigenvalues --   -0.46856  -0.46642  -0.46626  -0.46487  -0.46418
 Alpha  occ. eigenvalues --   -0.46218  -0.46205  -0.46017  -0.45880  -0.45752
 Alpha  occ. eigenvalues --   -0.45253  -0.45141  -0.44637  -0.44571  -0.44446
 Alpha  occ. eigenvalues --   -0.44410  -0.44202  -0.44154  -0.44081  -0.44057
 Alpha  occ. eigenvalues --   -0.44017  -0.43878  -0.43555  -0.43487  -0.43449
 Alpha  occ. eigenvalues --   -0.43317  -0.43086  -0.42864  -0.42831  -0.42760
 Alpha  occ. eigenvalues --   -0.42709  -0.42491  -0.42067  -0.41901  -0.41763
 Alpha  occ. eigenvalues --   -0.41603  -0.41599  -0.41394  -0.41202  -0.40935
 Alpha  occ. eigenvalues --   -0.40917  -0.40888  -0.40665  -0.40635  -0.40626
 Alpha  occ. eigenvalues --   -0.40427  -0.40315  -0.40168  -0.39490  -0.39365
 Alpha  occ. eigenvalues --   -0.38524  -0.38284  -0.37825  -0.37593  -0.37376
 Alpha  occ. eigenvalues --   -0.37334  -0.37199  -0.37132  -0.36775  -0.36705
 Alpha  occ. eigenvalues --   -0.36253  -0.36150  -0.34346  -0.34184  -0.33837
 Alpha  occ. eigenvalues --   -0.33796  -0.33247  -0.33107  -0.31403  -0.31218
 Alpha  occ. eigenvalues --   -0.31096  -0.30904  -0.30084  -0.29881  -0.29510
 Alpha  occ. eigenvalues --   -0.29380  -0.29263  -0.29141  -0.24141  -0.23965
 Alpha  occ. eigenvalues --   -0.21188  -0.21048
 Alpha virt. eigenvalues --   -0.08834  -0.08724  -0.01809  -0.01616  -0.00120
 Alpha virt. eigenvalues --    0.00034   0.02144   0.02278   0.03050   0.03289
 Alpha virt. eigenvalues --    0.04651   0.04799   0.05033   0.05233   0.06097

 Mulliken charges:
               1
     1  Mg   0.838590
     2  C   -0.003071
     3  C   -0.094349
     4  C   -0.045798
     5  C   -0.063868
     6  N   -0.256780
     7  C   -0.052536
     8  C   -0.013970
     9  C   -0.086973
    10  C    0.046233
    11  C    0.104802
    12  C    0.053559
    13  C   -0.071634
    14  H    0.035673
    15  N   -0.433147
    16  C    0.168325
    17  C   -0.177303
    18  C   -0.004020
    19  C    0.148674
    20  C    0.110207
    21  C    0.012268
    22  O   -0.249412
    23  C    0.062526
    24  N   -0.341135
    25  C    0.041222
    26  C   -0.028207
    27  C   -0.024011
    28  C    0.074855
    29  C    0.076122
    30  C    0.035101
    31  C   -0.004524
    32  N   -0.310497
    33  C    0.080425
    34  C   -0.169585
    35  C    0.008427
    36  C    0.082969
    37  C    0.127287
    38  C    0.046182
    39  O   -0.188202
    40  C   -0.005356
    41  C    0.212947
    42  O   -0.257288
    43  O   -0.304735
    44  C    0.157681
    45  H   -0.017646
    46  H   -0.016699
    47  H   -0.041319
    48  H    0.001045
    49  H   -0.004243
    50  H    0.025571
    51  H    0.016548
    52  H    0.016662
    53  H    0.010854
    54  H    0.043994
    55  H    0.018129
    56  H    0.017743
    57  H    0.005764
    58  H    0.026937
    59  H    0.039141
    60  H    0.037372
    61  H    0.035800
    62  H    0.031119
    63  H    0.016662
    64  H    0.009579
    65  H    0.023347
    66  H    0.012546
    67  H    0.004850
    68  H    0.006516
    69  H    0.004808
    70  H    0.008891
    71  H    0.018193
    72  H    0.028823
    73  H    0.047732
    74  H    0.009216
    75  H    0.046133
    76  H    0.035253
    77  H    0.043183
    78  H    0.046212
    79  H    0.053613
    80  Mg   0.838026
    81  C   -0.016778
    82  C   -0.087754
    83  C   -0.045480
    84  C   -0.064750
    85  N   -0.254577
    86  C   -0.049615
    87  C   -0.015120
    88  C   -0.090586
    89  C    0.045855
    90  C    0.114377
    91  C    0.062554
    92  C   -0.077755
    93  H    0.034636
    94  N   -0.423499
    95  C    0.162917
    96  C   -0.174699
    97  C   -0.007888
    98  C    0.152136
    99  C    0.099453
   100  C    0.015511
   101  O   -0.253221
   102  C    0.061246
   103  N   -0.350028
   104  C    0.037580
   105  C   -0.019857
   106  C   -0.034810
   107  C    0.088968
   108  C    0.073619
   109  C    0.034727
   110  C   -0.007632
   111  N   -0.324154
   112  C    0.078571
   113  C   -0.162995
   114  C    0.002389
   115  C    0.096208
   116  C    0.131440
   117  C    0.042542
   118  O   -0.187747
   119  C    0.000842
   120  C    0.211203
   121  O   -0.251181
   122  O   -0.305482
   123  C    0.152089
   124  H   -0.019851
   125  H   -0.015637
   126  H   -0.040437
   127  H   -0.000416
   128  H   -0.004701
   129  H    0.023117
   130  H    0.014764
   131  H    0.016118
   132  H    0.013759
   133  H    0.037620
   134  H    0.020898
   135  H    0.019354
   136  H    0.008547
   137  H    0.025874
   138  H    0.039508
   139  H    0.038082
   140  H    0.036243
   141  H    0.033756
   142  H    0.014247
   143  H    0.012565
   144  H    0.024987
   145  H    0.011918
   146  H    0.005756
   147  H    0.006170
   148  H    0.003641
   149  H    0.010853
   150  H    0.017807
   151  H    0.030116
   152  H    0.045912
   153  H    0.008411
   154  H    0.047428
   155  H    0.035548
   156  H    0.043944
   157  H    0.049374
   158  H    0.053445
 Sum of Mulliken charges =  -0.00000

 Dipole moment (field-independent basis, Debye):
    X=             -5.0598    Y=             -1.6082    Z=             -7.1783  Tot=              8.9284
 Quadrupole moment (field-independent basis, Debye-Ang):
   XX=           -532.7790   YY=           -545.3088   ZZ=           -451.8740
   XY=             -9.8611   XZ=              6.9214   YZ=            -51.4205

 Normal termination of Gaussian 16 at Sat Sep 11 20:57:58 2021.
