 Gaussian 16, Revision A.03,
 Gaussian 16:  ES64L-G16RevA.03 25-Dec-2016

 -----------------------------------
 #p cam-b3lyp/Def2SVP td=(nstates=5)
 -----------------------------------

 --------------------------------
 TDDFT excited states in gaussian
 --------------------------------
 Symbolic Z-matrix:
 Charge =  0 Multiplicity = 1

                         Standard orientation:
 ---------------------------------------------------------------------
 Center     Atomic      Atomic             Coordinates (Angstroms)
 Number     Number       Type             X           Y           Z
 ---------------------------------------------------------------------
      1         12           0       -5.391191   -0.223184    0.296651
      2          6           0       -5.182410    3.237247    1.187743
      3          6           0       -6.373099    0.789527   -2.810331
      4          6           0       -6.019353   -3.258105   -0.375129
      5          6           0       -5.504152   -0.941933    3.704920
      6          7           0       -5.699473    1.786330   -0.579399
      7          6           0       -5.527256    3.032613   -0.150111
      8          6           0       -5.673939    4.099647   -1.275854
      9          6           0       -6.583717    3.271874   -2.290297
     10          6           0       -6.169452    1.865228   -1.895767
     11          6           0       -8.079330    3.432518   -2.037640
     12          6           0       -4.297485    4.478441   -1.918988
     13          6           0       -4.307911    5.737798   -2.790347
     14          1           0       -3.135924    6.600232   -2.788698
     15          7           0       -5.618259   -1.129623   -1.443940
     16          6           0       -6.008424   -0.559335   -2.609199
     17          6           0       -6.024767   -1.647640   -3.610201
     18          6           0       -5.796220   -2.931326   -2.890470
     19          6           0       -5.828665   -2.488166   -1.520092
     20          6           0       -6.192227   -1.411375   -5.079856
     21          6           0       -5.592944   -4.336338   -3.362436
     22          8           0       -5.643552   -5.335356   -2.566211
     23          6           0       -5.418663   -4.522912   -4.814283
     24          7           0       -5.937286   -1.855417    1.477849
     25          6           0       -6.091446   -3.072298    0.944539
     26          6           0       -6.201445   -4.124523    2.007865
     27          6           0       -5.845361   -3.399804    3.385450
     28          6           0       -5.662154   -1.957262    2.852741
     29          6           0       -7.568671   -4.811215    2.130985
     30          6           0       -4.708665   -4.022515    4.234315
     31          6           0       -3.387355   -3.867927    3.515052
     32          7           0       -5.175208    0.898619    2.142174
     33          6           0       -5.282053    0.400819    3.448869
     34          6           0       -5.168817    1.553772    4.360980
     35          6           0       -5.019604    2.651379    3.515499
     36          6           0       -5.064753    2.215112    2.160536
     37          6           0       -5.267176    1.506886    5.779628
     38          6           0       -4.857223    4.094280    3.441154
     39          8           0       -4.661820    4.988541    4.265538
     40          6           0       -5.078258    4.546192    1.930278
     41          6           0       -3.952486    5.474611    1.564239
     42          8           0       -2.778941    5.057424    1.486056
     43          8           0       -4.459465    6.640579    1.135246
     44          6           0       -3.395623    7.596932    0.728080
     45          1           0       -6.912814    0.981855   -3.739664
     46          1           0       -6.128897   -4.328883   -0.559169
     47          1           0       -5.445730   -1.099493    4.783445
     48          1           0       -6.188743    5.011708   -0.973292
     49          1           0       -6.317510    3.468091   -3.328736
     50          1           0       -8.270895    3.988060   -1.119709
     51          1           0       -8.471596    2.418492   -1.957826
     52          1           0       -8.572634    3.877436   -2.902207
     53          1           0       -4.035385    3.734497   -2.671259
     54          1           0       -3.527619    4.576512   -1.152820
     55          1           0       -5.213722    6.323975   -2.632830
     56          1           0       -4.362530    5.430124   -3.834643
     57          1           0       -6.504971   -0.388930   -5.288042
     58          1           0       -7.031830   -2.024236   -5.407234
     59          1           0       -5.298725   -1.680779   -5.643246
     60          1           0       -6.296331   -4.138598   -5.334427
     61          1           0       -5.196912   -5.579921   -4.957144
     62          1           0       -4.574906   -3.918844   -5.149130
     63          1           0       -5.490590   -4.931418    1.834570
     64          1           0       -6.698102   -3.369694    4.064125
     65          1           0       -7.525175   -5.895495    2.025388
     66          1           0       -8.234312   -4.372358    1.388276
     67          1           0       -8.105255   -4.598834    3.055317
     68          1           0       -4.877486   -5.090356    4.369076
     69          1           0       -4.615100   -3.574108    5.223470
     70          1           0       -3.381246   -4.716625    2.832039
     71          1           0       -2.559679   -3.930056    4.222373
     72          1           0       -3.367567   -2.961872    2.909116
     73          1           0       -4.472833    2.147920    6.161813
     74          1           0       -5.165915    0.487026    6.150080
     75          1           0       -6.270552    1.906545    5.925792
     76          1           0       -6.047504    5.042244    1.890062
     77          1           0       -3.546583    8.509563    1.304750
     78          1           0       -3.444813    7.670987   -0.358429
     79          1           0       -2.376918    7.336673    1.017640
     80         12           0        5.118194   -1.296769   -0.402845
     81          6           0        6.782894    1.845890    0.078371
     82          6           0        3.045445    0.305576   -2.587066
     83          6           0        3.354488   -3.932235   -0.508041
     84          6           0        6.540619   -2.351839    2.598692
     85          7           0        5.026514    0.805498   -1.084278
     86          6           0        5.749213    1.896501   -0.879955
     87          6           0        5.393088    3.087390   -1.809743
     88          6           0        3.882038    2.673605   -2.162419
     89          6           0        3.990971    1.162490   -1.969173
     90          6           0        2.863931    3.209897   -1.169851
     91          6           0        6.291547    3.131414   -3.095374
     92          6           0        6.210464    4.435302   -3.892275
     93          1           0        7.418913    4.925882   -4.549124
     94          7           0        3.772281   -1.889011   -1.735632
     95          6           0        3.039627   -1.106260   -2.555266
     96          6           0        2.183630   -2.021135   -3.326262
     97          6           0        2.352295   -3.394628   -2.778726
     98          6           0        3.168245   -3.115743   -1.614025
     99          6           0        1.376672   -1.575967   -4.511184
    100          6           0        1.850261   -4.735422   -3.221927
    101          8           0        1.920997   -5.765570   -2.462572
    102          6           0        1.189003   -4.786923   -4.534009
    103          7           0        4.795327   -2.832622    0.960694
    104          6           0        4.023580   -3.887208    0.644175
    105          6           0        4.159539   -4.989331    1.667534
    106          6           0        5.372315   -4.550403    2.613087
    107          6           0        5.683310   -3.167293    2.000169
    108          6           0        2.921182   -5.260645    2.521486
    109          6           0        6.537459   -5.564020    2.779507
    110          6           0        7.279498   -5.716721    1.471283
    111          7           0        6.567382   -0.509660    0.992990
    112          6           0        6.999527   -1.103129    2.199280
    113          6           0        7.903779   -0.139184    2.859249
    114          6           0        7.916983    0.966343    1.995453
    115          6           0        7.064225    0.717618    0.886204
    116          6           0        8.542740   -0.325147    4.117527
    117          6           0        8.450111    2.291451    1.775099
    118          8           0        9.290685    2.993860    2.335281
    119          6           0        7.640966    2.970653    0.587510
    120          6           0        8.634965    3.579304   -0.363298
    121          8           0        9.417769    2.858113   -1.006499
    122          8           0        8.352898    4.885660   -0.519002
    123          6           0        9.304935    5.530838   -1.461979
    124          1           0        2.202572    0.755840   -3.112148
    125          1           0        2.853766   -4.902352   -0.548480
    126          1           0        7.101081   -2.645241    3.488903
    127          1           0        5.410350    4.058862   -1.330464
    128          1           0        3.638738    2.909376   -3.195177
    129          1           0        3.337755    3.683298   -0.322792
    130          1           0        2.285551    2.353097   -0.849804
    131          1           0        2.159840    3.877010   -1.675365
    132          1           0        5.887881    2.431663   -3.838440
    133          1           0        7.314638    2.919278   -2.852659
    134          1           0        5.730787    5.238830   -3.320250
    135          1           0        5.545555    4.279845   -4.745355
    136          1           0        1.322543   -0.482050   -4.572946
    137          1           0        0.342814   -1.889263   -4.329900
    138          1           0        1.721815   -2.020777   -5.446972
    139          1           0        0.337778   -4.110257   -4.536221
    140          1           0        0.979768   -5.843106   -4.714552
    141          1           0        1.887507   -4.416462   -5.292596
    142          1           0        4.407529   -5.930263    1.191880
    143          1           0        5.039011   -4.368879    3.645460
    144          1           0        2.569402   -6.307810    2.459899
    145          1           0        2.139353   -4.578250    2.215508
    146          1           0        3.029782   -5.028112    3.579468
    147          1           0        6.146200   -6.552709    3.031636
    148          1           0        7.241882   -5.288505    3.557238
    149          1           0        6.673035   -6.447099    0.927370
    150          1           0        8.286870   -6.090260    1.643606
    151          1           0        7.263065   -4.782450    0.898114
    152          1           0        9.563095    0.015481    4.001930
    153          1           0        8.503487   -1.365541    4.433452
    154          1           0        7.923595    0.318855    4.747749
    155          1           0        6.982341    3.720846    1.026838
    156          1           0        9.751062    6.379714   -0.934662
    157          1           0        8.717798    5.755447   -2.372235
    158          1           0       10.187937    4.969798   -1.744799
 ---------------------------------------------------------------------

 SCF Done:  E(RCAM-B3LYP) =  -4069.81148791     A.U. after   19 cycles

 Excitation energies and oscillator strengths:

 Excited State   1:      Singlet-A      1.6554 eV  748.95 nm  f=0.0869  <S**2>=0.000
     309 -> 315       -0.11327
     310 -> 316        0.12523
     311 -> 313       -0.45926
     312 -> 314        0.51125
 This state for optimization and/or second-order correction.
 Total Energy, E(TD-HF/TD-DFT) =  -4069.75065146
 Copying the excited state density for this state as the 1-particle RhoCI density.

 Excited State   2:      Singlet-A      1.6957 eV  731.18 nm  f=0.6510  <S**2>=0.000
     309 -> 315        0.13420
     310 -> 316        0.11910
     311 -> 313        0.50926
     312 -> 314        0.45757

 Excited State   3:      Singlet-A      2.1821 eV  568.19 nm  f=0.0217  <S**2>=0.000
     309 -> 313       -0.27694
     310 -> 314        0.58189
     311 -> 315        0.11526
     312 -> 316       -0.24340

 Excited State   4:      Singlet-A      2.1945 eV  564.98 nm  f=0.1593  <S**2>=0.000
     309 -> 313        0.57795
     310 -> 314        0.27369
     311 -> 315       -0.25349
     312 -> 316       -0.12035

 Excited State   5:      Singlet-A      2.4493 eV  506.21 nm  f=0.0000  <S**2>=0.000
     312 -> 313        0.70693

 The electronic state is 1-A.
 Alpha  occ. eigenvalues --  -46.87966 -46.87502 -19.26504 -19.26218 -19.19245
 Alpha  occ. eigenvalues --  -19.19028 -19.18956 -19.18587 -19.18336 -19.17900
 Alpha  occ. eigenvalues --  -14.42630 -14.42328 -14.41605 -14.41207 -14.39574
 Alpha  occ. eigenvalues --  -14.39199 -14.38754 -14.38443 -10.39299 -10.38954
 Alpha  occ. eigenvalues --  -10.35592 -10.35270 -10.34559 -10.34076 -10.31908
 Alpha  occ. eigenvalues --  -10.31643 -10.31588 -10.31133 -10.31103 -10.30862
 Alpha  occ. eigenvalues --  -10.30744 -10.30663 -10.30356 -10.30246 -10.30209
 Alpha  occ. eigenvalues --  -10.30057 -10.29998 -10.29796 -10.29743 -10.29422
 Alpha  occ. eigenvalues --  -10.29289 -10.29263 -10.28983 -10.28858 -10.28550
 Alpha  occ. eigenvalues --  -10.28542 -10.28532 -10.28330 -10.28250 -10.27961
 Alpha  occ. eigenvalues --  -10.27911 -10.27906 -10.27853 -10.27756 -10.27701
 Alpha  occ. eigenvalues --  -10.27598 -10.27580 -10.27536 -10.27504 -10.27419
 Alpha  occ. eigenvalues --  -10.27394 -10.27343 -10.27333 -10.27324 -10.27249
 Alpha  occ. eigenvalues --  -10.27014 -10.26888 -10.26592 -10.26557 -10.26419
 Alpha  occ. eigenvalues --  -10.26347 -10.26248 -10.26173 -10.26033 -10.25976
 Alpha  occ. eigenvalues --  -10.25788 -10.25706 -10.25651 -10.25512 -10.25278
 Alpha  occ. eigenvalues --  -10.25000 -10.24935 -10.24723 -10.24721 -10.24631
 Alpha  occ. eigenvalues --  -10.24538  -3.16709  -3.16252  -1.91591  -1.91178
 Alpha  occ. eigenvalues --   -1.91134  -1.91020  -1.90722  -1.90560  -1.16853
 Alpha  occ. eigenvalues --   -1.16511  -1.08796  -1.08507  -1.07353  -1.06864
 Alpha  occ. eigenvalues --   -1.06837  -1.06812  -1.04763  -1.04328  -1.03921
 Alpha  occ. eigenvalues --   -1.03507  -1.03398  -1.02888  -1.02574  -1.01957
 Alpha  occ. eigenvalues --   -0.92148  -0.91828  -0.89648  -0.89407  -0.89357
 Alpha  occ. eigenvalues --   -0.88950  -0.88406  -0.88087  -0.88030  -0.87857
 Alpha  occ. eigenvalues --   -0.87645  -0.87529  -0.87454  -0.87010  -0.85193
 Alpha  occ. eigenvalues --   -0.84828  -0.84048  -0.83749  -0.83126  -0.82841
 Alpha  occ. eigenvalues --   -0.82830  -0.82494  -0.81775  -0.81455  -0.80778
 Alpha  occ. eigenvalues --   -0.80300  -0.78973  -0.78509  -0.77393  -0.77120
 Alpha  occ. eigenvalues --   -0.76995  -0.76743  -0.76113  -0.75660  -0.75027
 Alpha  occ. eigenvalues --   -0.74666  -0.72935  -0.72548  -0.71835  -0.71412
 Alpha  occ. eigenvalues --   -0.70003  -0.69633  -0.69072  -0.68665  -0.67812
 Alpha  occ. eigenvalues --   -0.67460  -0.67447  -0.67067  -0.65494  -0.65106
 Alpha  occ. eigenvalues --   -0.65026  -0.64795  -0.64620  -0.64501  -0.64399
 Alpha  occ. eigenvalues --   -0.64067  -0.62484  -0.62140  -0.60603  -0.60218
 Alpha  occ. eigenvalues --   -0.60006  -0.59616  -0.59150  -0.58842  -0.58669
 Alpha  occ. eigenvalues --   -0.58280  -0.57770  -0.57459  -0.57404  -0.57103
 Alpha  occ. eigenvalues --   -0.56482  -0.56186  -0.56065  -0.55751  -0.55694
 Alpha  occ. eigenvalues --   -0.55478  -0.55319  -0.55113  -0.54677  -0.54357
 Alpha  occ. eigenvalues --   -0.54116  -0.53724  -0.53465  -0.53420  -0.53099
 Alpha  occ. eigenvalues --   -0.53092  -0.52996  -0.52953  -0.52758  -0.52540
 Alpha  occ. eigenvalues --   -0.52530  -0.52284  -0.52065  -0.51833  -0.51738
 Alpha  occ. eigenvalues --   -0.51510  -0.51360  -0.51055  -0.50762  -0.50385
 Alpha  occ. eigenvalues --   -0.50170  -0.50083  -0.49827  -0.49735  -0.49705
 Alpha  occ. eigenvalues --   -0.49396  -0.49336  -0.49288  -0.49048  -0.48913
 Alpha  occ. eigenvalues --   -0.48775  -0.48612  -0.48589  -0.48396  -0.48246
 Alpha  occ. eigenvalues --   -0.48209  -0.47871  -0.47464  -0.47453  -0.46994
 Alpha  occ. eigenvalues --   -0.46959  -0.46769  -0.46562  -0.46520  -0.46383
 Alpha  occ. eigenvalues --   -0.46315  -0.46137  -0.45997  -0.45947  -0.45671
 Alpha  occ. eigenvalues --   -0.45325  -0.45072  -0.44754  -0.44683  -0.44369
 Alpha  occ. eigenvalues --   -0.44315  -0.44303  -0.44272  -0.44194  -0.43955
 Alpha  occ. eigenvalues --   -0.43944  -0.43807  -0.43674  -0.43562  -0.43413
 Alpha  occ. eigenvalues --   -0.43227  -0.43191  -0.42893  -0.42794  -0.42773
 Alpha  occ. eigenvalues --   -0.42752  -0.42425  -0.42156  -0.41873  -0.41828
 Alpha  occ. eigenvalues --   -0.41735  -0.41513  -0.41310  -0.41305  -0.41059
 Alpha  occ. eigenvalues --   -0.40998  -0.40810  -0.40695  -0.40590  -0.40544
 Alpha  occ. eigenvalues --   -0.40491  -0.40346  -0.40084  -0.39529  -0.39305
 Alpha  occ. eigenvalues --   -0.38605  -0.38211  -0.37991  -0.37511  -0.37472
 Alpha  occ. eigenvalues --   -0.37459  -0.37122  -0.37038  -0.36905  -0.36639
 Alpha  occ. eigenvalues --   -0.36361  -0.36073  -0.34454  -0.34098  -0.33985
 Alpha  occ. eigenvalues --   -0.33725  -0.33355  -0.33022  -0.31484  -0.31201
 Alpha  occ. eigenvalues --   -0.31144  -0.30815  -0.30197  -0.29804  -0.29620
 Alpha  occ. eigenvalues --   -0.29488  -0.29188  -0.29060  -0.24249  -0.23877
 Alpha  occ. eigenvalues --   -0.21295  -0.20963
 Alpha virt. eigenvalues --   -0.08943  -0.08643  -0.01911  -0.01531  -0.00230
 Alpha virt. eigenvalues --    0.00116   0.02041   0.02357   0.02918   0.03366
 Alpha virt. eigenvalues --    0.04518   0.04883   0.04898   0.05304   0.05919

 Mulliken charges:
               1
     1  Mg   0.838305
     2  C   -0.003568
     3  C   -0.095389
     4  C   -0.044874
     5  C   -0.063528
     6  N   -0.256746
     7  C   -0.052851
     8  C   -0.013826
     9  C   -0.086799
    10  C    0.045812
    11  C    0.104753
    12  C    0.053871
    13  C   -0.071398
    14  H    0.034501
    15  N   -0.433099
    16  C    0.167852
    17  C   -0.178399
    18  C   -0.004365
    19  C    0.148774
    20  C    0.110400
    21  C    0.012312
    22  O   -0.247759
    23  C    0.063035
    24  N   -0.341160
    25  C    0.041214
    26  C   -0.028440
    27  C   -0.024105
    28  C    0.075125
    29  C    0.075980
    30  C    0.034936
    31  C   -0.004665
    32  N   -0.310524
    33  C    0.080573
    34  C   -0.169326
    35  C    0.008497
    36  C    0.083015
    37  C    0.127256
    38  C    0.046218
    39  O   -0.187978
    40  C   -0.005356
    41  C    0.213085
    42  O   -0.258041
    43  O   -0.304499
    44  C    0.157652
    45  H   -0.017670
    46  H   -0.015842
    47  H   -0.040951
    48  H    0.001338
    49  H   -0.004717
    50  H    0.025754
    51  H    0.016862
    52  H    0.016793
    53  H    0.009358
    54  H    0.043178
    55  H    0.019021
    56  H    0.017549
    57  H    0.005650
    58  H    0.027511
    59  H    0.037424
    60  H    0.037559
    61  H    0.037011
    62  H    0.028478
    63  H    0.017846
    64  H    0.009647
    65  H    0.023889
    66  H    0.012385
    67  H    0.004890
    68  H    0.006876
    69  H    0.004540
    70  H    0.010572
    71  H    0.017872
    72  H    0.028727
    73  H    0.047881
    74  H    0.009479
    75  H    0.046324
    76  H    0.035454
    77  H    0.043734
    78  H    0.045926
    79  H    0.053169
    80  Mg   0.838417
    81  C   -0.016778
    82  C   -0.087559
    83  C   -0.045457
    84  C   -0.064784
    85  N   -0.254702
    86  C   -0.048917
    87  C   -0.015187
    88  C   -0.090825
    89  C    0.046292
    90  C    0.114722
    91  C    0.062653
    92  C   -0.077400
    93  H    0.034019
    94  N   -0.423523
    95  C    0.163032
    96  C   -0.174695
    97  C   -0.007847
    98  C    0.152045
    99  C    0.099563
   100  C    0.016089
   101  O   -0.252495
   102  C    0.061507
   103  N   -0.349885
   104  C    0.037538
   105  C   -0.019796
   106  C   -0.034829
   107  C    0.089026
   108  C    0.073670
   109  C    0.034797
   110  C   -0.007600
   111  N   -0.324169
   112  C    0.078695
   113  C   -0.163043
   114  C    0.002476
   115  C    0.096325
   116  C    0.131405
   117  C    0.042517
   118  O   -0.188010
   119  C    0.000830
   120  C    0.211104
   121  O   -0.251389
   122  O   -0.305338
   123  C    0.152210
   124  H   -0.019731
   125  H   -0.015491
   126  H   -0.040713
   127  H   -0.000230
   128  H   -0.005804
   129  H    0.023943
   130  H    0.016995
   131  H    0.016966
   132  H    0.013372
   133  H    0.037372
   134  H    0.020997
   135  H    0.018878
   136  H    0.008120
   137  H    0.024888
   138  H    0.038618
   139  H    0.036748
   140  H    0.036693
   141  H    0.033113
   142  H    0.014165
   143  H    0.012343
   144  H    0.024726
   145  H    0.012306
   146  H    0.005104
   147  H    0.005906
   148  H    0.003503
   149  H    0.010813
   150  H    0.017618
   151  H    0.030244
   152  H    0.045697
   153  H    0.008184
   154  H    0.047533
   155  H    0.036123
   156  H    0.043773
   157  H    0.049272
   158  H    0.053261
 Sum of Mulliken charges =  -0.00000

 Dipole moment (field-independent basis, Debye):
    X=             -6.2777    Y=              0.5453    Z=             -5.7175  Tot=              8.5087
 Quadrupole moment (field-independent basis, Debye-Ang):
   XX=           -544.2505   YY=           -518.3926   ZZ=           -473.4818
   XY=            -17.5080   XZ=             11.6482   YZ=            -58.6055

 Normal termination of Gaussian 16 at Fri Sep 10 23:26:31 2021.
