 Gaussian 16, Revision A.03,
 Gaussian 16:  ES64L-G16RevA.03 25-Dec-2016

 -----------------------------------
 #p cam-b3lyp/Def2SVP td=(nstates=5)
 -----------------------------------

 --------------------------------
 TDDFT excited states in gaussian
 --------------------------------
 Symbolic Z-matrix:
 Charge =  0 Multiplicity = 1

                         Standard orientation:
 ---------------------------------------------------------------------
 Center     Atomic      Atomic             Coordinates (Angstroms)
 Number     Number       Type             X           Y           Z
 ---------------------------------------------------------------------
      1         12           0        6.286090   -1.097400    0.398162
      2          6           0        6.772119    2.139112   -1.051313
      3          6           0        7.085058    0.295074    3.409098
      4          6           0        6.307499   -4.022621    1.622599
      5          6           0        6.642285   -2.422919   -2.805240
      6          7           0        6.838065    0.966645    0.977549
      7          6           0        6.929834    2.127518    0.336360
      8          6           0        7.134759    3.344236    1.287664
      9          6           0        7.773697    2.583817    2.534869
     10          6           0        7.169304    1.208022    2.316184
     11          6           0        9.293115    2.469474    2.465619
     12          6           0        5.782348    4.034953    1.669270
     13          6           0        5.914403    5.413684    2.322736
     14          1           0        4.915023    6.428481    2.024783
     15          7           0        6.164412   -1.701548    2.275141
     16          6           0        6.518207   -0.997414    3.377099
     17          6           0        6.239033   -1.878936    4.531076
     18          6           0        5.872805   -3.221333    4.000096
     19          6           0        6.128995   -3.040491    2.594023
     20          6           0        6.284468   -1.411556    5.953483
     21          6           0        5.381490   -4.472325    4.657181
     22          8           0        5.345753   -5.593693    4.044132
     23          6           0        5.021640   -4.367755    6.082880
     24          7           0        6.668511   -2.977940   -0.423398
     25          6           0        6.552846   -4.088897    0.312386
     26          6           0        6.595047   -5.318724   -0.545334
     27          6           0        6.519904   -4.806883   -2.056004
     28          6           0        6.530461   -3.281453   -1.789128
     29          6           0        7.829277   -6.214388   -0.370765
     30          6           0        5.391864   -5.392912   -2.941732
     31          6           0        4.046720   -4.914872   -2.442566
     32          7           0        6.466951   -0.304303   -1.614132
     33          6           0        6.627579   -1.038141   -2.798342
     34          6           0        6.813350   -0.063266   -3.888836
     35          6           0        6.764124    1.177624   -3.256687
     36          6           0        6.586765    0.989035   -1.856233
     37          6           0        7.055188   -0.377444   -5.255306
     38          6           0        6.844754    2.618271   -3.435269
     39          8           0        6.896165    3.369702   -4.410052
     40          6           0        6.975204    3.294619   -1.999524
     41          6           0        5.992600    4.432382   -1.942114
     42          8           0        4.763399    4.217562   -1.958941
     43          8           0        6.642733    5.566368   -1.638891
     44          6           0        5.721114    6.729316   -1.537281
     45          1           0        7.545952    0.566994    4.360716
     46          1           0        6.211036   -5.047286    1.987559
     47          1           0        6.674788   -2.760238   -3.842839
     48          1           0        7.828165    4.099316    0.916899
     49          1           0        7.434296    3.000460    3.482992
     50          1           0        9.675426    2.816543    1.505774
     51          1           0        9.511796    1.410192    2.601981
     52          1           0        9.758933    2.982385    3.307469
     53          1           0        5.316564    3.485700    2.487455
     54          1           0        5.128277    4.109241    0.799788
     55          1           0        6.919037    5.818953    2.198737
     56          1           0        5.802022    5.293121    3.400249
     57          1           0        6.743675   -0.427345    6.037171
     58          1           0        6.965960   -2.075355    6.485130
     59          1           0        5.302325   -1.438088    6.425736
     60          1           0        5.890707   -4.033287    6.649804
     61          1           0        4.607597   -5.336483    6.360342
     62          1           0        4.262883   -3.593417    6.199653
     63          1           0        5.741716   -5.965140   -0.344339
     64          1           0        7.433538   -5.027490   -2.608524
     65          1           0        7.589132   -7.243153   -0.101176
     66          1           0        8.475997   -5.755131    0.376315
     67          1           0        8.491214   -6.254089   -1.235449
     68          1           0        5.388460   -6.480680   -2.880933
     69          1           0        5.484297   -5.119788   -3.992974
     70          1           0        3.821116   -5.616932   -1.640664
     71          1           0        3.302173   -4.977105   -3.236914
     72          1           0        4.117278   -3.922573   -1.996642
     73          1           0        6.428785    0.297124   -5.838870
     74          1           0        6.821073   -1.420030   -5.469331
     75          1           0        8.122112   -0.166188   -5.325309
     76          1           0        8.005077    3.638076   -1.907218
     77          1           0        6.088017    7.490735   -2.225653
     78          1           0        5.664372    6.988265   -0.479864
     79          1           0        4.710278    6.577960   -1.917600
     80         12           0       -6.903042   -0.263341   -0.333614
     81          6           0       -4.407683    2.307789   -0.129814
     82          6           0       -8.670169    1.473610    2.010497
     83          6           0       -8.896968   -2.725111   -0.156582
     84          6           0       -4.472397   -2.316497   -1.755668
     85          7           0       -6.488514    1.632961    0.726800
     86          6           0       -5.537823    2.553877    0.677450
     87          6           0       -5.851123    3.845358    1.479618
     88          6           0       -6.898363    3.228435    2.529162
     89          6           0       -7.416294    2.056704    1.697619
     90          6           0       -6.239438    2.671838    3.780306
     91          6           0       -6.514886    4.954928    0.590637
     92          6           0       -6.565045    6.345155    1.228216
     93          1           0       -6.400082    7.512476    0.366446
     94          7           0       -8.752816   -0.369211    0.377516
     95          6           0       -9.313238    0.429801    1.309606
     96          6           0      -10.682588   -0.073054    1.499835
     97          6           0      -10.830795   -1.334900    0.724926
     98          6           0       -9.463075   -1.540883    0.292516
     99          6           0      -11.721371    0.672667    2.286126
    100          6           0      -12.006242   -2.217822    0.433399
    101          8           0      -11.860718   -3.391007   -0.061849
    102          6           0      -13.325614   -1.705531    0.831282
    103          7           0       -6.663628   -2.299383   -0.679352
    104          6           0       -7.705044   -3.144301   -0.581906
    105          6           0       -7.358546   -4.503869   -1.140407
    106          6           0       -5.939887   -4.325250   -1.856713
    107          6           0       -5.657940   -2.850316   -1.495501
    108          6           0       -7.274356   -5.639949   -0.121293
    109          6           0       -5.845280   -4.752333   -3.347123
    110          6           0       -6.678981   -3.826387   -4.203249
    111          7           0       -4.872076   -0.017767   -1.028534
    112          6           0       -4.027901   -1.014321   -1.565511
    113          6           0       -2.705611   -0.393070   -1.784620
    114          6           0       -2.867021    0.926084   -1.334893
    115          6           0       -4.190258    1.108112   -0.849705
    116          6           0       -1.549579   -1.053191   -2.288565
    117          6           0       -2.215800    2.203026   -1.150442
    118          8           0       -1.120468    2.671912   -1.457247
    119          6           0       -3.147097    3.119129   -0.244995
    120          6           0       -3.241620    4.472007   -0.895628
    121          8           0       -3.798428    4.604865   -1.999676
    122          8           0       -2.855817    5.412694   -0.014356
    123          6           0       -2.942729    6.772736   -0.609803
    124          1           0       -9.194526    1.818168    2.902252
    125          1           0       -9.576191   -3.578486   -0.218966
    126          1           0       -3.689921   -2.862972   -2.286485
    127          1           0       -5.004412    4.270236    2.005298
    128          1           0       -7.701721    3.928495    2.743426
    129          1           0       -5.162240    2.676359    3.704349
    130          1           0       -6.607371    1.659138    3.880859
    131          1           0       -6.593411    3.210253    4.664125
    132          1           0       -7.589528    4.749041    0.504061
    133          1           0       -6.034978    5.013628   -0.366905
    134          1           0       -5.911519    6.419962    2.105853
    135          1           0       -7.569226    6.507940    1.627143
    136          1           0      -11.274845    1.483064    2.875416
    137          1           0      -12.115517   -0.022556    3.035235
    138          1           0      -12.546239    1.027154    1.664339
    139          1           0      -13.329776   -1.510750    1.901096
    140          1           0      -14.046869   -2.436329    0.460332
    141          1           0      -13.491091   -0.742537    0.335413
    142          1           0       -8.087700   -4.816299   -1.877850
    143          1           0       -5.157852   -4.923779   -1.366803
    144          1           0       -7.950463   -6.484650   -0.352443
    145          1           0       -7.491553   -5.236212    0.858688
    146          1           0       -6.280827   -6.062689    0.018023
    147          1           0       -6.258831   -5.754968   -3.480748
    148          1           0       -4.829543   -4.769549   -3.727857
    149          1           0       -7.686082   -4.243591   -4.109506
    150          1           0       -6.337264   -3.848254   -5.236096
    151          1           0       -6.700904   -2.814436   -3.782381
    152          1           0       -1.095305   -0.381919   -3.005186
    153          1           0       -1.803676   -2.008490   -2.743102
    154          1           0       -0.977679   -1.177204   -1.365082
    155          1           0       -2.692069    3.171786    0.744833
    156          1           0       -1.953532    7.229760   -0.508288
    157          1           0       -3.783717    7.271998   -0.092858
    158          1           0       -3.099044    6.842300   -1.679929
 ---------------------------------------------------------------------

 SCF Done:  E(RCAM-B3LYP) =  -4069.81042598     A.U. after   19 cycles

 Excitation energies and oscillator strengths:

 Excited State   1:      Singlet-A      1.6690 eV  742.87 nm  f=0.2476  <S**2>=0.000
     309 -> 315        0.13418
     310 -> 316       -0.10799
     311 -> 313        0.53525
     312 -> 314       -0.42964
 This state for optimization and/or second-order correction.
 Total Energy, E(TD-HF/TD-DFT) =  -4069.74909151
 Copying the excited state density for this state as the 1-particle RhoCI density.

 Excited State   2:      Singlet-A      1.6864 eV  735.19 nm  f=0.5298  <S**2>=0.000
     309 -> 315        0.11006
     310 -> 316        0.13758
     311 -> 313        0.42913
     312 -> 314        0.53439

 Excited State   3:      Singlet-A      2.1850 eV  567.43 nm  f=0.0112  <S**2>=0.000
     309 -> 313        0.54717
     310 -> 314       -0.33803
     311 -> 315       -0.23184
     312 -> 316        0.14283

 Excited State   4:      Singlet-A      2.1925 eV  565.50 nm  f=0.1746  <S**2>=0.000
     309 -> 313        0.33607
     310 -> 314        0.54466
     311 -> 315       -0.14606
     312 -> 316       -0.23748

 Excited State   5:      Singlet-A      2.6363 eV  470.30 nm  f=0.0000  <S**2>=0.000
     312 -> 313        0.70653

 The electronic state is 1-A.
 Alpha  occ. eigenvalues --  -46.87550 -46.87521 -19.26157 -19.25884 -19.18955
 Alpha  occ. eigenvalues --  -19.18632 -19.18589 -19.18559 -19.17879 -19.17777
 Alpha  occ. eigenvalues --  -14.42366 -14.42205 -14.41222 -14.41221 -14.39211
 Alpha  occ. eigenvalues --  -14.39166 -14.38447 -14.38329 -10.38891 -10.38641
 Alpha  occ. eigenvalues --  -10.35270 -10.35269 -10.34093 -10.33963 -10.31582
 Alpha  occ. eigenvalues --  -10.31304 -10.31162 -10.31147 -10.30897 -10.30660
 Alpha  occ. eigenvalues --  -10.30316 -10.30269 -10.30244 -10.30201 -10.30021
 Alpha  occ. eigenvalues --  -10.30008 -10.29746 -10.29694 -10.29393 -10.29303
 Alpha  occ. eigenvalues --  -10.29245 -10.29033 -10.28610 -10.28566 -10.28477
 Alpha  occ. eigenvalues --  -10.28255 -10.28254 -10.28111 -10.28035 -10.27869
 Alpha  occ. eigenvalues --  -10.27833 -10.27551 -10.27537 -10.27493 -10.27403
 Alpha  occ. eigenvalues --  -10.27354 -10.27353 -10.27342 -10.27340 -10.27317
 Alpha  occ. eigenvalues --  -10.27296 -10.27286 -10.27257 -10.27146 -10.26854
 Alpha  occ. eigenvalues --  -10.26843 -10.26584 -10.26377 -10.26314 -10.26267
 Alpha  occ. eigenvalues --  -10.26064 -10.26032 -10.26017 -10.25948 -10.25799
 Alpha  occ. eigenvalues --  -10.25797 -10.25626 -10.25605 -10.25291 -10.25289
 Alpha  occ. eigenvalues --  -10.24700 -10.24623 -10.24591 -10.24578 -10.24561
 Alpha  occ. eigenvalues --  -10.24547  -3.16292  -3.16271  -1.91173  -1.91153
 Alpha  occ. eigenvalues --   -1.90760  -1.90742  -1.90602  -1.90578  -1.16447
 Alpha  occ. eigenvalues --   -1.16225  -1.08381  -1.08323  -1.07037  -1.06844
 Alpha  occ. eigenvalues --   -1.06737  -1.06196  -1.04359  -1.04332  -1.03530
 Alpha  occ. eigenvalues --   -1.03523  -1.02994  -1.02895  -1.02172  -1.01965
 Alpha  occ. eigenvalues --   -0.91824  -0.91704  -0.89360  -0.89324  -0.89040
 Alpha  occ. eigenvalues --   -0.88929  -0.88096  -0.88094  -0.87625  -0.87615
 Alpha  occ. eigenvalues --   -0.87549  -0.87432  -0.87066  -0.86988  -0.84878
 Alpha  occ. eigenvalues --   -0.84729  -0.83753  -0.83748  -0.82811  -0.82789
 Alpha  occ. eigenvalues --   -0.82527  -0.82403  -0.81432  -0.81292  -0.80337
 Alpha  occ. eigenvalues --   -0.80293  -0.78576  -0.78489  -0.77016  -0.77000
 Alpha  occ. eigenvalues --   -0.76766  -0.76680  -0.75699  -0.75661  -0.74695
 Alpha  occ. eigenvalues --   -0.74672  -0.72548  -0.72542  -0.71446  -0.71439
 Alpha  occ. eigenvalues --   -0.69746  -0.69639  -0.68700  -0.68629  -0.67451
 Alpha  occ. eigenvalues --   -0.67402  -0.67079  -0.66963  -0.65140  -0.65023
 Alpha  occ. eigenvalues --   -0.64628  -0.64603  -0.64511  -0.64369  -0.64070
 Alpha  occ. eigenvalues --   -0.64064  -0.62112  -0.61985  -0.60236  -0.60205
 Alpha  occ. eigenvalues --   -0.59669  -0.59551  -0.58846  -0.58747  -0.58271
 Alpha  occ. eigenvalues --   -0.58257  -0.57363  -0.57283  -0.57088  -0.57061
 Alpha  occ. eigenvalues --   -0.56074  -0.56052  -0.55728  -0.55656  -0.55307
 Alpha  occ. eigenvalues --   -0.55297  -0.55109  -0.55100  -0.54336  -0.54249
 Alpha  occ. eigenvalues --   -0.53795  -0.53631  -0.53085  -0.53080  -0.53001
 Alpha  occ. eigenvalues --   -0.52977  -0.52754  -0.52638  -0.52552  -0.52540
 Alpha  occ. eigenvalues --   -0.52275  -0.52260  -0.51686  -0.51662  -0.51532
 Alpha  occ. eigenvalues --   -0.51359  -0.51027  -0.50946  -0.50395  -0.50360
 Alpha  occ. eigenvalues --   -0.49860  -0.49859  -0.49739  -0.49708  -0.49360
 Alpha  occ. eigenvalues --   -0.49275  -0.49056  -0.48957  -0.48942  -0.48847
 Alpha  occ. eigenvalues --   -0.48400  -0.48331  -0.48256  -0.48235  -0.48203
 Alpha  occ. eigenvalues --   -0.48171  -0.47466  -0.47457  -0.47071  -0.46986
 Alpha  occ. eigenvalues --   -0.46574  -0.46573  -0.46434  -0.46294  -0.46131
 Alpha  occ. eigenvalues --   -0.46127  -0.45932  -0.45906  -0.45647  -0.45544
 Alpha  occ. eigenvalues --   -0.45080  -0.45008  -0.44378  -0.44320  -0.44313
 Alpha  occ. eigenvalues --   -0.44300  -0.43985  -0.43942  -0.43941  -0.43850
 Alpha  occ. eigenvalues --   -0.43778  -0.43758  -0.43399  -0.43243  -0.43212
 Alpha  occ. eigenvalues --   -0.43156  -0.42785  -0.42774  -0.42721  -0.42504
 Alpha  occ. eigenvalues --   -0.42428  -0.42311  -0.41836  -0.41793  -0.41487
 Alpha  occ. eigenvalues --   -0.41453  -0.41338  -0.41286  -0.40909  -0.40853
 Alpha  occ. eigenvalues --   -0.40649  -0.40625  -0.40605  -0.40584  -0.40365
 Alpha  occ. eigenvalues --   -0.40365  -0.40120  -0.39956  -0.39309  -0.39290
 Alpha  occ. eigenvalues --   -0.38275  -0.38231  -0.37537  -0.37480  -0.37137
 Alpha  occ. eigenvalues --   -0.37113  -0.37067  -0.36996  -0.36593  -0.36388
 Alpha  occ. eigenvalues --   -0.36071  -0.35884  -0.34106  -0.34040  -0.33667
 Alpha  occ. eigenvalues --   -0.33352  -0.33029  -0.32920  -0.31161  -0.31149
 Alpha  occ. eigenvalues --   -0.30832  -0.30790  -0.29733  -0.29680  -0.29220
 Alpha  occ. eigenvalues --   -0.29179  -0.29065  -0.29033  -0.23894  -0.23834
 Alpha  occ. eigenvalues --   -0.20974  -0.20892
 Alpha virt. eigenvalues --   -0.08640  -0.08537  -0.01549  -0.01522   0.00113
 Alpha virt. eigenvalues --    0.00167   0.02403   0.02460   0.03362   0.03424
 Alpha virt. eigenvalues --    0.04851   0.04964   0.05370   0.05505   0.06288

 Mulliken charges:
               1
     1  Mg   0.840093
     2  C   -0.001044
     3  C   -0.094081
     4  C   -0.046417
     5  C   -0.064525
     6  N   -0.256629
     7  C   -0.051833
     8  C   -0.014334
     9  C   -0.087015
    10  C    0.046495
    11  C    0.104990
    12  C    0.053385
    13  C   -0.071408
    14  H    0.036406
    15  N   -0.432909
    16  C    0.168340
    17  C   -0.177521
    18  C   -0.004519
    19  C    0.148563
    20  C    0.110376
    21  C    0.011832
    22  O   -0.250473
    23  C    0.062655
    24  N   -0.341131
    25  C    0.040962
    26  C   -0.027921
    27  C   -0.023964
    28  C    0.074981
    29  C    0.076364
    30  C    0.035340
    31  C   -0.004477
    32  N   -0.310888
    33  C    0.081226
    34  C   -0.169220
    35  C    0.008774
    36  C    0.084589
    37  C    0.127028
    38  C    0.047818
    39  O   -0.187794
    40  C   -0.005987
    41  C    0.211638
    42  O   -0.251727
    43  O   -0.305919
    44  C    0.157512
    45  H   -0.018221
    46  H   -0.017653
    47  H   -0.041952
    48  H    0.000650
    49  H   -0.004449
    50  H    0.025304
    51  H    0.016072
    52  H    0.016002
    53  H    0.011272
    54  H    0.047461
    55  H    0.016986
    56  H    0.016941
    57  H    0.005605
    58  H    0.026160
    59  H    0.038875
    60  H    0.037147
    61  H    0.034866
    62  H    0.031237
    63  H    0.015784
    64  H    0.009213
    65  H    0.022584
    66  H    0.012560
    67  H    0.004402
    68  H    0.005682
    69  H    0.004727
    70  H    0.008007
    71  H    0.016848
    72  H    0.030136
    73  H    0.048584
    74  H    0.008590
    75  H    0.045547
    76  H    0.034324
    77  H    0.041782
    78  H    0.045345
    79  H    0.055938
    80  Mg   0.837453
    81  C   -0.016731
    82  C   -0.087956
    83  C   -0.045673
    84  C   -0.065071
    85  N   -0.254376
    86  C   -0.050029
    87  C   -0.014903
    88  C   -0.090433
    89  C    0.045450
    90  C    0.114535
    91  C    0.062632
    92  C   -0.077611
    93  H    0.034838
    94  N   -0.423379
    95  C    0.162584
    96  C   -0.175003
    97  C   -0.008111
    98  C    0.151886
    99  C    0.099526
   100  C    0.015328
   101  O   -0.253562
   102  C    0.061292
   103  N   -0.350095
   104  C    0.037293
   105  C   -0.019686
   106  C   -0.034858
   107  C    0.089137
   108  C    0.073743
   109  C    0.034794
   110  C   -0.007617
   111  N   -0.324325
   112  C    0.078686
   113  C   -0.163208
   114  C    0.003356
   115  C    0.096130
   116  C    0.131817
   117  C    0.042050
   118  O   -0.181860
   119  C    0.000571
   120  C    0.212473
   121  O   -0.250859
   122  O   -0.305947
   123  C    0.152174
   124  H   -0.020237
   125  H   -0.015925
   126  H   -0.040392
   127  H   -0.000982
   128  H   -0.004655
   129  H    0.022030
   130  H    0.014315
   131  H    0.015602
   132  H    0.013853
   133  H    0.038063
   134  H    0.020287
   135  H    0.019272
   136  H    0.008374
   137  H    0.025644
   138  H    0.039427
   139  H    0.038016
   140  H    0.036043
   141  H    0.033788
   142  H    0.014177
   143  H    0.012394
   144  H    0.024827
   145  H    0.011490
   146  H    0.005590
   147  H    0.005962
   148  H    0.003552
   149  H    0.010777
   150  H    0.017842
   151  H    0.030360
   152  H    0.048636
   153  H    0.007681
   154  H    0.046757
   155  H    0.034522
   156  H    0.043825
   157  H    0.048466
   158  H    0.054169
 Sum of Mulliken charges =  -0.00000

 Dipole moment (field-independent basis, Debye):
    X=             -0.6650    Y=              0.9976    Z=              7.3892  Tot=              7.4858
 Quadrupole moment (field-independent basis, Debye-Ang):
   XX=           -474.8776   YY=           -493.5651   ZZ=           -496.8861
   XY=            -28.6004   XZ=              1.7531   YZ=             54.9180

 Normal termination of Gaussian 16 at Sat Sep 11 12:11:33 2021.
