 Gaussian 16, Revision A.03,
 Gaussian 16:  ES64L-G16RevA.03 25-Dec-2016

 -----------------------------------
 #p cam-b3lyp/Def2SVP td=(nstates=5)
 -----------------------------------

 --------------------------------
 TDDFT excited states in gaussian
 --------------------------------
 Symbolic Z-matrix:
 Charge =  0 Multiplicity = 1

                         Standard orientation:
 ---------------------------------------------------------------------
 Center     Atomic      Atomic             Coordinates (Angstroms)
 Number     Number       Type             X           Y           Z
 ---------------------------------------------------------------------
      1         12           0       -5.144628    0.520576   -0.855336
      2          6           0       -5.645541   -2.447463    1.081684
      3          6           0       -6.485813    2.268539    1.750218
      4          6           0       -5.133306    3.089483   -2.714694
      5          6           0       -4.918533   -1.528674   -3.665161
      6          7           0       -5.927812   -0.120529    1.113484
      7          6           0       -6.007921   -1.280435    1.757978
      8          6           0       -6.442110   -1.131264    3.246803
      9          6           0       -7.202713    0.266516    3.148361
     10          6           0       -6.472599    0.856812    1.954875
     11          6           0       -8.682027    0.132097    2.801856
     12          6           0       -5.216726   -1.049526    4.218135
     13          6           0       -5.546429   -1.231005    5.702626
     14          1           0       -4.591298   -1.926185    6.552213
     15          7           0       -5.261082    2.437632   -0.392534
     16          6           0       -5.826804    2.969875    0.717405
     17          6           0       -5.659283    4.434242    0.598051
     18          6           0       -5.119706    4.721306   -0.760089
     19          6           0       -5.175155    3.412965   -1.360547
     20          6           0       -5.951480    5.389535    1.714199
     21          6           0       -4.641388    5.977626   -1.416596
     22          8           0       -4.431683    6.049761   -2.675721
     23          6           0       -4.507720    7.162174   -0.549404
     24          7           0       -5.260017    0.776907   -2.923817
     25          6           0       -5.174190    1.992873   -3.474313
     26          6           0       -4.996704    1.907742   -4.961320
     27          6           0       -4.734217    0.366855   -5.287694
     28          6           0       -4.897072   -0.208052   -3.858978
     29          6           0       -6.173707    2.414989   -5.805935
     30          6           0       -3.446185    0.024944   -6.077940
     31          6           0       -2.229882    0.317108   -5.228032
     32          7           0       -5.080205   -1.615434   -1.235274
     33          6           0       -5.007188   -2.247706   -2.484904
     34          6           0       -5.099004   -3.698929   -2.240791
     35          6           0       -5.236611   -3.809978   -0.858555
     36          6           0       -5.257476   -2.509376   -0.278648
     37          6           0       -5.109724   -4.712861   -3.238919
     38          6           0       -5.395621   -4.723884    0.260976
     39          8           0       -5.355804   -5.947947    0.393552
     40          6           0       -5.789048   -3.874476    1.549211
     41          6           0       -4.912724   -4.334729    2.682142
     42          8           0       -3.682397   -4.126510    2.664581
     43          8           0       -5.682759   -4.730721    3.707216
     44          6           0       -4.875038   -5.172203    4.875477
     45          1           0       -7.102753    2.890567    2.401684
     46          1           0       -5.017264    3.944478   -3.383989
     47          1           0       -4.770377   -2.233292   -4.485537
     48          1           0       -7.125975   -1.903133    3.600317
     49          1           0       -7.040730    0.881188    4.033607
     50          1           0       -8.940885   -0.896830    2.552411
     51          1           0       -8.839936    0.783521    1.942087
     52          1           0       -9.305162    0.534359    3.601022
     53          1           0       -4.839448   -0.027069    4.235527
     54          1           0       -4.447147   -1.766299    3.929501
     55          1           0       -6.548301   -1.638282    5.841504
     56          1           0       -5.588034   -0.245337    6.166229
     57          1           0       -6.489358    4.903248    2.527069
     58          1           0       -6.654049    6.126934    1.326451
     59          1           0       -5.051848    5.891081    2.071194
     60          1           0       -5.474133    7.389189   -0.098785
     61          1           0       -4.069577    7.942117   -1.171152
     62          1           0       -3.834187    6.922772    0.273997
     63          1           0       -4.137756    2.493158   -5.286778
     64          1           0       -5.536060   -0.066937   -5.885646
     65          1           0       -5.901418    3.204213   -6.507140
     66          1           0       -6.957063    2.748978   -5.126160
     67          1           0       -6.693993    1.644484   -6.374303
     68          1           0       -3.371711    0.647163   -6.969144
     69          1           0       -3.400096   -1.016700   -6.395909
     70          1           0       -2.075709    1.384452   -5.382425
     71          1           0       -1.372273   -0.256368   -5.581365
     72          1           0       -2.439383    0.168030   -4.168611
     73          1           0       -4.454493   -5.504790   -2.876303
     74          1           0       -4.769965   -4.326436   -4.199566
     75          1           0       -6.166787   -4.978238   -3.245834
     76          1           0       -6.843627   -4.068434    1.742514
     77          1           0       -5.189902   -6.187166    5.118260
     78          1           0       -4.996482   -4.407541    5.642907
     79          1           0       -3.810282   -5.324565    4.695423
     80         12           0        5.299672    0.615414    0.897404
     81          6           0        5.591788   -1.525229   -1.968147
     82          6           0        4.148380   -2.095106    2.618506
     83          6           0        4.606372    2.562855    3.304528
     84          6           0        5.369237    3.325160   -1.293057
     85          7           0        4.959146   -1.485106    0.293982
     86          6           0        5.164180   -2.197014   -0.803972
     87          6           0        4.972945   -3.726867   -0.623638
     88          6           0        3.989589   -3.698323    0.645637
     89          6           0        4.410133   -2.360479    1.250608
     90          6           0        2.520499   -3.610536    0.266924
     91          6           0        6.318542   -4.462377   -0.291344
     92          6           0        6.263428   -5.987302   -0.406859
     93          1           0        7.447907   -6.692024   -0.889406
     94          7           0        4.966066    0.220676    2.813505
     95          6           0        4.521343   -0.939710    3.339825
     96          6           0        4.422804   -0.712147    4.789886
     97          6           0        4.688077    0.727487    5.057860
     98          6           0        4.744532    1.241566    3.704120
     99          6           0        4.181952   -1.820692    5.773014
    100          6           0        4.849816    1.513928    6.323387
    101          8           0        4.837782    2.795606    6.325863
    102          6           0        4.929028    0.739785    7.570744
    103          7           0        4.814200    2.635189    0.982048
    104          6           0        4.610865    3.248506    2.161214
    105          6           0        4.549032    4.747893    1.992686
    106          6           0        4.996350    5.029386    0.483289
    107          6           0        5.160658    3.574219   -0.007514
    108          6           0        3.185632    5.390283    2.247379
    109          6           0        6.175123    6.018455    0.271415
    110          6           0        7.455179    5.418035    0.806519
    111          7           0        5.635787    0.897007   -1.218205
    112          6           0        5.594119    2.113556   -1.934000
    113          6           0        5.771733    1.784119   -3.363117
    114          6           0        5.882251    0.385585   -3.382139
    115          6           0        5.760474   -0.122470   -2.060569
    116          6           0        5.765280    2.716380   -4.438749
    117          6           0        6.063615   -0.777289   -4.220917
    118          8           0        6.307714   -0.958963   -5.413036
    119          6           0        5.757078   -2.076015   -3.357364
    120          6           0        6.867742   -3.062813   -3.592259
    121          8           0        8.026689   -2.810877   -3.218135
    122          8           0        6.341565   -4.224729   -4.020592
    123          6           0        7.403264   -5.239011   -4.256938
    124          1           0        3.565100   -2.821196    3.185496
    125          1           0        4.476265    3.288202    4.111009
    126          1           0        5.500438    4.122004   -2.028252
    127          1           0        4.491233   -4.225693   -1.456050
    128          1           0        4.207052   -4.512413    1.332171
    129          1           0        2.386169   -3.462229   -0.794248
    130          1           0        2.123989   -2.768979    0.819738
    131          1           0        1.983822   -4.490845    0.632121
    132          1           0        6.525559   -4.362623    0.781939
    133          1           0        7.119458   -4.082922   -0.895630
    134          1           0        5.368824   -6.328061   -0.942124
    135          1           0        6.152207   -6.407453    0.595695
    136          1           0        3.861393   -2.741543    5.270349
    137          1           0        3.318393   -1.527804    6.379938
    138          1           0        5.035582   -1.991818    6.432325
    139          1           0        4.029363    0.138961    7.680630
    140          1           0        5.132861    1.470565    8.355784
    141          1           0        5.768073    0.039152    7.494979
    142          1           0        5.242543    5.241266    2.662549
    143          1           0        4.180355    5.470221   -0.108030
    144          1           0        3.211586    6.174768    3.027098
    145          1           0        2.485606    4.610276    2.515879
    146          1           0        2.713244    5.833465    1.372369
    147          1           0        6.003923    6.938205    0.836135
    148          1           0        6.321519    6.300050   -0.766015
    149          1           0        7.407128    5.646828    1.875365
    150          1           0        8.321027    5.884992    0.341448
    151          1           0        7.451585    4.326787    0.702525
    152          1           0        6.578965    2.439334   -5.095749
    153          1           0        5.873015    3.737929   -4.080138
    154          1           0        4.770896    2.529447   -4.852897
    155          1           0        4.790075   -2.463496   -3.680383
    156          1           0        7.291964   -5.583310   -5.289780
    157          1           0        7.278332   -5.993977   -3.458086
    158          1           0        8.431682   -4.897264   -4.257589
 ---------------------------------------------------------------------

 SCF Done:  E(RCAM-B3LYP) =  -4069.81236331     A.U. after   19 cycles

 Excitation energies and oscillator strengths:

 Excited State   1:      Singlet-A      1.6732 eV  740.98 nm  f=0.3483  <S**2>=0.000
     310 -> 316        0.17102
     312 -> 314        0.68155
     310 <- 316        0.10317
 This state for optimization and/or second-order correction.
 Total Energy, E(TD-HF/TD-DFT) =  -4069.75087276
 Copying the excited state density for this state as the 1-particle RhoCI density.

 Excited State   2:      Singlet-A      1.6779 eV  738.94 nm  f=0.3532  <S**2>=0.000
     309 -> 315        0.17400
     311 -> 313        0.68116
     309 <- 315        0.10444

 Excited State   3:      Singlet-A      2.1847 eV  567.52 nm  f=0.0999  <S**2>=0.000
     310 -> 314        0.63900
     312 -> 316       -0.26935

 Excited State   4:      Singlet-A      2.1929 eV  565.40 nm  f=0.0980  <S**2>=0.000
     309 -> 313        0.63694
     311 -> 315       -0.27653

 Excited State   5:      Singlet-A      2.4758 eV  500.78 nm  f=0.0000  <S**2>=0.000
     312 -> 313        0.70709

 The electronic state is 1-A.
 Alpha  occ. eigenvalues --  -46.87896 -46.87480 -19.26515 -19.26185 -19.19259
 Alpha  occ. eigenvalues --  -19.18999 -19.18905 -19.18600 -19.18316 -19.17897
 Alpha  occ. eigenvalues --  -14.42552 -14.42291 -14.41540 -14.41189 -14.39501
 Alpha  occ. eigenvalues --  -14.39175 -14.38694 -14.38425 -10.39307 -10.38927
 Alpha  occ. eigenvalues --  -10.35537 -10.35280 -10.34539 -10.34072 -10.31935
 Alpha  occ. eigenvalues --  -10.31598 -10.31516 -10.31080 -10.31017 -10.30814
 Alpha  occ. eigenvalues --  -10.30678 -10.30609 -10.30282 -10.30239 -10.30176
 Alpha  occ. eigenvalues --  -10.30012 -10.29979 -10.29746 -10.29735 -10.29347
 Alpha  occ. eigenvalues --  -10.29261 -10.29241 -10.28876 -10.28700 -10.28475
 Alpha  occ. eigenvalues --  -10.28440 -10.28407 -10.28228 -10.28224 -10.27900
 Alpha  occ. eigenvalues --  -10.27829 -10.27825 -10.27795 -10.27685 -10.27557
 Alpha  occ. eigenvalues --  -10.27542 -10.27517 -10.27499 -10.27442 -10.27402
 Alpha  occ. eigenvalues --  -10.27316 -10.27308 -10.27299 -10.27287 -10.27279
 Alpha  occ. eigenvalues --  -10.26879 -10.26856 -10.26492 -10.26450 -10.26334
 Alpha  occ. eigenvalues --  -10.26326 -10.26187 -10.26105 -10.26041 -10.25955
 Alpha  occ. eigenvalues --  -10.25766 -10.25710 -10.25501 -10.25477 -10.25350
 Alpha  occ. eigenvalues --  -10.24948 -10.24881 -10.24703 -10.24678 -10.24638
 Alpha  occ. eigenvalues --  -10.24532  -3.16639  -3.16230  -1.91521  -1.91112
 Alpha  occ. eigenvalues --   -1.91107  -1.90949  -1.90701  -1.90538  -1.16863
 Alpha  occ. eigenvalues --   -1.16479  -1.08783  -1.08505  -1.07305  -1.06877
 Alpha  occ. eigenvalues --   -1.06856  -1.06784  -1.04686  -1.04290  -1.03855
 Alpha  occ. eigenvalues --   -1.03482  -1.03334  -1.02871  -1.02510  -1.01938
 Alpha  occ. eigenvalues --   -0.92094  -0.91806  -0.89590  -0.89349  -0.89305
 Alpha  occ. eigenvalues --   -0.88856  -0.88352  -0.88091  -0.87980  -0.87775
 Alpha  occ. eigenvalues --   -0.87628  -0.87482  -0.87366  -0.86967  -0.85099
 Alpha  occ. eigenvalues --   -0.84759  -0.84002  -0.83759  -0.83046  -0.82806
 Alpha  occ. eigenvalues --   -0.82765  -0.82438  -0.81741  -0.81423  -0.80720
 Alpha  occ. eigenvalues --   -0.80268  -0.78894  -0.78469  -0.77314  -0.77057
 Alpha  occ. eigenvalues --   -0.76953  -0.76690  -0.76051  -0.75596  -0.74977
 Alpha  occ. eigenvalues --   -0.74667  -0.72873  -0.72520  -0.71774  -0.71382
 Alpha  occ. eigenvalues --   -0.69949  -0.69634  -0.68987  -0.68602  -0.67751
 Alpha  occ. eigenvalues --   -0.67436  -0.67341  -0.66998  -0.65409  -0.65044
 Alpha  occ. eigenvalues --   -0.64975  -0.64732  -0.64591  -0.64460  -0.64344
 Alpha  occ. eigenvalues --   -0.64059  -0.62460  -0.62114  -0.60529  -0.60192
 Alpha  occ. eigenvalues --   -0.59918  -0.59547  -0.59092  -0.58818  -0.58614
 Alpha  occ. eigenvalues --   -0.58256  -0.57745  -0.57407  -0.57386  -0.57092
 Alpha  occ. eigenvalues --   -0.56424  -0.56153  -0.56028  -0.55708  -0.55628
 Alpha  occ. eigenvalues --   -0.55443  -0.55285  -0.55110  -0.54647  -0.54347
 Alpha  occ. eigenvalues --   -0.54016  -0.53637  -0.53398  -0.53340  -0.53068
 Alpha  occ. eigenvalues --   -0.53053  -0.52957  -0.52856  -0.52714  -0.52478
 Alpha  occ. eigenvalues --   -0.52476  -0.52284  -0.52031  -0.51740  -0.51733
 Alpha  occ. eigenvalues --   -0.51441  -0.51310  -0.51029  -0.50652  -0.50329
 Alpha  occ. eigenvalues --   -0.50094  -0.50010  -0.49804  -0.49705  -0.49629
 Alpha  occ. eigenvalues --   -0.49336  -0.49289  -0.49216  -0.49010  -0.48849
 Alpha  occ. eigenvalues --   -0.48729  -0.48564  -0.48538  -0.48349  -0.48252
 Alpha  occ. eigenvalues --   -0.48186  -0.47798  -0.47404  -0.47396  -0.46955
 Alpha  occ. eigenvalues --   -0.46891  -0.46679  -0.46527  -0.46463  -0.46305
 Alpha  occ. eigenvalues --   -0.46270  -0.46108  -0.45962  -0.45939  -0.45645
 Alpha  occ. eigenvalues --   -0.45273  -0.45081  -0.44711  -0.44600  -0.44350
 Alpha  occ. eigenvalues --   -0.44256  -0.44246  -0.44190  -0.44137  -0.43937
 Alpha  occ. eigenvalues --   -0.43887  -0.43768  -0.43644  -0.43485  -0.43382
 Alpha  occ. eigenvalues --   -0.43183  -0.43135  -0.42890  -0.42766  -0.42727
 Alpha  occ. eigenvalues --   -0.42721  -0.42417  -0.42095  -0.41816  -0.41801
 Alpha  occ. eigenvalues --   -0.41647  -0.41492  -0.41244  -0.41244  -0.40970
 Alpha  occ. eigenvalues --   -0.40918  -0.40772  -0.40641  -0.40568  -0.40491
 Alpha  occ. eigenvalues --   -0.40365  -0.40312  -0.39996  -0.39475  -0.39306
 Alpha  occ. eigenvalues --   -0.38540  -0.38203  -0.37880  -0.37433  -0.37397
 Alpha  occ. eigenvalues --   -0.37386  -0.37102  -0.36978  -0.36896  -0.36615
 Alpha  occ. eigenvalues --   -0.36314  -0.36053  -0.34391  -0.34073  -0.33988
 Alpha  occ. eigenvalues --   -0.33698  -0.33295  -0.32998  -0.31435  -0.31158
 Alpha  occ. eigenvalues --   -0.31140  -0.30791  -0.30179  -0.29800  -0.29552
 Alpha  occ. eigenvalues --   -0.29434  -0.29167  -0.29046  -0.24183  -0.23854
 Alpha  occ. eigenvalues --   -0.21226  -0.20936
 Alpha virt. eigenvalues --   -0.08876  -0.08619  -0.01844  -0.01513  -0.00161
 Alpha virt. eigenvalues --    0.00140   0.02080   0.02363   0.03011   0.03393
 Alpha virt. eigenvalues --    0.04607   0.04886   0.04951   0.05331   0.06032

 Mulliken charges:
               1
     1  Mg   0.838765
     2  C   -0.003560
     3  C   -0.093985
     4  C   -0.045701
     5  C   -0.063714
     6  N   -0.256862
     7  C   -0.052539
     8  C   -0.014094
     9  C   -0.087065
    10  C    0.046365
    11  C    0.104737
    12  C    0.053464
    13  C   -0.071526
    14  H    0.034669
    15  N   -0.433206
    16  C    0.168622
    17  C   -0.176900
    18  C   -0.003822
    19  C    0.148824
    20  C    0.110069
    21  C    0.012248
    22  O   -0.249356
    23  C    0.062433
    24  N   -0.341192
    25  C    0.041458
    26  C   -0.028267
    27  C   -0.024064
    28  C    0.074866
    29  C    0.076080
    30  C    0.035025
    31  C   -0.004749
    32  N   -0.310268
    33  C    0.080070
    34  C   -0.170115
    35  C    0.007936
    36  C    0.082581
    37  C    0.127467
    38  C    0.045337
    39  O   -0.189303
    40  C   -0.005086
    41  C    0.213006
    42  O   -0.258961
    43  O   -0.304206
    44  C    0.158207
    45  H   -0.017349
    46  H   -0.016497
    47  H   -0.041132
    48  H    0.000832
    49  H   -0.003814
    50  H    0.025463
    51  H    0.016681
    52  H    0.016903
    53  H    0.011747
    54  H    0.042951
    55  H    0.018159
    56  H    0.018639
    57  H    0.006095
    58  H    0.027071
    59  H    0.040004
    60  H    0.037624
    61  H    0.035663
    62  H    0.031482
    63  H    0.016899
    64  H    0.009639
    65  H    0.023569
    66  H    0.012421
    67  H    0.005019
    68  H    0.007069
    69  H    0.004992
    70  H    0.008909
    71  H    0.019643
    72  H    0.028072
    73  H    0.046660
    74  H    0.009600
    75  H    0.046222
    76  H    0.035430
    77  H    0.043110
    78  H    0.046762
    79  H    0.051772
    80  Mg   0.837917
    81  C   -0.016874
    82  C   -0.086993
    83  C   -0.046110
    84  C   -0.065023
    85  N   -0.254802
    86  C   -0.049220
    87  C   -0.015244
    88  C   -0.090355
    89  C    0.045420
    90  C    0.113806
    91  C    0.062408
    92  C   -0.077726
    93  H    0.033735
    94  N   -0.423605
    95  C    0.162715
    96  C   -0.173934
    97  C   -0.008515
    98  C    0.152559
    99  C    0.099285
   100  C    0.015200
   101  O   -0.254125
   102  C    0.061349
   103  N   -0.350090
   104  C    0.037608
   105  C   -0.019704
   106  C   -0.034904
   107  C    0.088859
   108  C    0.073938
   109  C    0.034905
   110  C   -0.007568
   111  N   -0.324013
   112  C    0.078322
   113  C   -0.163428
   114  C    0.002071
   115  C    0.096164
   116  C    0.131586
   117  C    0.041948
   118  O   -0.188666
   119  C    0.001144
   120  C    0.211265
   121  O   -0.251255
   122  O   -0.305462
   123  C    0.152172
   124  H   -0.016827
   125  H   -0.016577
   126  H   -0.040810
   127  H   -0.000293
   128  H   -0.004158
   129  H    0.021576
   130  H    0.016371
   131  H    0.021901
   132  H    0.013561
   133  H    0.036940
   134  H    0.021729
   135  H    0.019900
   136  H    0.010082
   137  H    0.025957
   138  H    0.039168
   139  H    0.038042
   140  H    0.035576
   141  H    0.033997
   142  H    0.013938
   143  H    0.012518
   144  H    0.023931
   145  H    0.011216
   146  H    0.005342
   147  H    0.005572
   148  H    0.003659
   149  H    0.010567
   150  H    0.017628
   151  H    0.030456
   152  H    0.045543
   153  H    0.008313
   154  H    0.046688
   155  H    0.035106
   156  H    0.043452
   157  H    0.049953
   158  H    0.053222
 Sum of Mulliken charges =  -0.00000

 Dipole moment (field-independent basis, Debye):
    X=             -5.0840    Y=              1.1080    Z=              4.8569  Tot=              7.1178
 Quadrupole moment (field-independent basis, Debye-Ang):
   XX=           -519.1841   YY=           -502.1867   ZZ=           -497.6614
   XY=            -26.9781   XZ=              3.0145   YZ=             -4.5863

 Normal termination of Gaussian 16 at Sat Sep  4 06:45:54 2021.
