 Gaussian 16, Revision A.03,
 Gaussian 16:  ES64L-G16RevA.03 25-Dec-2016

 -----------------------------------
 #p cam-b3lyp/Def2SVP td=(nstates=5)
 -----------------------------------

 --------------------------------
 TDDFT excited states in gaussian
 --------------------------------
 Symbolic Z-matrix:
 Charge =  0 Multiplicity = 1

                         Standard orientation:
 ---------------------------------------------------------------------
 Center     Atomic      Atomic             Coordinates (Angstroms)
 Number     Number       Type             X           Y           Z
 ---------------------------------------------------------------------
      1         12           0        6.209145    0.827522    0.344231
      2          6           0        6.638063   -2.298846   -1.345169
      3          6           0        7.117144    2.356089   -2.568171
      4          6           0        6.278700    3.571265    1.932832
      5          6           0        6.448356   -0.929302    3.344566
      6          7           0        6.779976    0.022734   -1.637464
      7          6           0        6.846845   -1.192646   -2.171835
      8          6           0        7.085450   -1.178367   -3.711393
      9          6           0        7.770721    0.254850   -3.846637
     10          6           0        7.160096    0.931625   -2.632126
     11          6           0        9.286670    0.223417   -3.681071
     12          6           0        5.747316   -1.252275   -4.521125
     13          6           0        5.901952   -1.570796   -6.011087
     14          1           0        4.891220   -2.392015   -6.660215
     15          7           0        6.157376    2.689956   -0.312661
     16          6           0        6.550832    3.129833   -1.532082
     17          6           0        6.315304    4.589697   -1.534266
     18          6           0        5.931133    4.990687   -0.152342
     19          6           0        6.135121    3.755015    0.559614
     20          6           0        6.412670    5.437021   -2.765652
     21          6           0        5.465669    6.285228    0.435568
     22          8           0        5.408510    6.477258    1.698275
     23          6           0        5.158521    7.366890   -0.517695
     24          7           0        6.562955    1.300592    2.346394
     25          6           0        6.475642    2.561731    2.783302
     26          6           0        6.487459    2.622425    4.282007
     27          6           0        6.356141    1.113157    4.786603
     28          6           0        6.374957    0.401960    3.411061
     29          6           0        7.728209    3.266353    4.915968
     30          6           0        5.196816    0.797025    5.764583
     31          6           0        3.870499    0.945130    5.053214
     32          7           0        6.314872   -1.258684    0.933818
     33          6           0        6.432485   -1.761436    2.237689
     34          6           0        6.576918   -3.224496    2.125154
     35          6           0        6.549753   -3.471120    0.753920
     36          6           0        6.424344   -2.237592    0.053224
     37          6           0        6.768535   -4.128650    3.206922
     38          6           0        6.622259   -4.487474   -0.283203
     39          8           0        6.636919   -5.719229   -0.290731
     40          6           0        6.804857   -3.758554   -1.687184
     41          6           0        5.823865   -4.372000   -2.648770
     42          8           0        4.595102   -4.218533   -2.493999
     43          8           0        6.483566   -4.836553   -3.720931
     44          6           0        5.565120   -5.431907   -4.727989
     45          1           0        7.612530    2.934733   -3.350287
     46          1           0        6.196816    4.484609    2.525736
     47          1           0        6.442928   -1.551556    4.241351
     48          1           0        7.763935   -1.951070   -4.073347
     49          1           0        7.466078    0.767117   -4.759050
     50          1           0        9.632974   -0.761656   -3.368619
     51          1           0        9.511323    0.966412   -2.915576
     52          1           0        9.782681    0.568744   -4.588540
     53          1           0        5.312582   -0.255032   -4.588738
     54          1           0        5.061557   -1.969312   -4.068445
     55          1           0        6.900913   -1.944819   -6.237123
     56          1           0        5.829499   -0.637288   -6.569221
     57          1           0        6.873635    4.894191   -3.589905
     58          1           0        7.113984    6.241254   -2.544119
     59          1           0        5.448634    5.858201   -3.051265
     60          1           0        6.047554    7.589417   -1.108163
     61          1           0        4.755989    8.186295    0.076774
     62          1           0        4.403787    7.013902   -1.221062
     63          1           0        5.642786    3.199105    4.656698
     64          1           0        7.249010    0.779744    5.316032
     65          1           0        7.499228    4.110616    5.566731
     66          1           0        8.401560    3.563338    4.112420
     67          1           0        8.357856    2.582671    5.484774
     68          1           0        5.196778    1.503805    6.593684
     69          1           0        5.250146   -0.207316    6.184949
     70          1           0        3.675338    2.014698    5.122256
     71          1           0        3.097236    0.373197    5.567186
     72          1           0        3.956426    0.697218    3.995082
     73          1           0        6.120346   -4.982351    3.009400
     74          1           0        6.527764   -3.660923    4.161314
     75          1           0        7.831934   -4.344169    3.104017
     76          1           0        7.837079   -3.923853   -1.994295
     77          1           0        5.905609   -6.451321   -4.909913
     78          1           0        5.547137   -4.745733   -5.574893
     79          1           0        4.541107   -5.612556   -4.399201
     80         12           0       -6.985501    0.145009   -0.162627
     81          6           0       -4.367860   -1.975998    1.073641
     82          6           0       -4.846252    2.770426    0.244050
     83          6           0       -9.405565    2.089792   -0.817232
     84          6           0       -9.228071   -2.410387    0.603237
     85          7           0       -4.901957    0.255938    0.571402
     86          6           0       -3.988205   -0.622756    0.955207
     87          6           0       -2.567159   -0.029338    1.150221
     88          6           0       -2.979826    1.498686    1.421708
     89          6           0       -4.309911    1.529613    0.671651
     90          6           0       -3.250631    1.797720    2.886831
     91          6           0       -1.680916   -0.164875   -0.137498
     92          6           0       -0.190806    0.110748    0.075419
     93          1           0        0.777602   -0.667653   -0.691889
     94          7           0       -6.987394    2.045182   -0.735242
     95          6           0       -6.027322    2.965318   -0.505230
     96          6           0       -6.513216    4.214127   -1.112305
     97          6           0       -7.910845    3.997747   -1.575473
     98          6           0       -8.168293    2.680077   -1.030005
     99          6           0       -5.646906    5.428669   -1.279107
    100          6           0       -8.863085    4.842885   -2.366155
    101          8           0      -10.109259    4.554893   -2.449491
    102          6           0       -8.311934    6.068420   -2.962648
    103          7           0       -9.042693   -0.033109    0.079413
    104          6           0       -9.874390    0.938011   -0.336693
    105          6           0      -11.311044    0.473450   -0.312019
    106          6           0      -11.249501   -1.097966   -0.021414
    107          6           0       -9.725399   -1.260705    0.168431
    108          6           0      -12.210447    1.147468    0.723918
    109          6           0      -11.972022   -2.029530   -1.032760
    110          6           0      -11.262766   -1.991377   -2.367269
    111          7           0       -6.839230   -1.903252    0.509163
    112          6           0       -7.904273   -2.786223    0.792214
    113          6           0       -7.309648   -4.028253    1.327199
    114          6           0       -5.930436   -3.771098    1.339936
    115          6           0       -5.684473   -2.453923    0.866625
    116          6           0       -8.031213   -5.173342    1.767904
    117          6           0       -4.627493   -4.310573    1.656166
    118          8           0       -4.205480   -5.410407    2.011145
    119          6           0       -3.567355   -3.126955    1.616870
    120          6           0       -2.380220   -3.592974    0.819330
    121          8           0       -2.491168   -3.837554   -0.394947
    122          8           0       -1.269104   -3.464673    1.567214
    123          6           0       -0.063402   -3.904012    0.815496
    124          1           0       -4.338189    3.686811    0.545712
    125          1           0      -10.269690    2.679515   -1.131861
    126          1           0       -9.853050   -3.289657    0.773402
    127          1           0       -2.022721   -0.423999    1.999700
    128          1           0       -2.270317    2.185975    0.968286
    129          1           0       -3.235753    0.902272    3.490228
    130          1           0       -4.229500    2.258091    2.917057
    131          1           0       -2.550430    2.554081    3.252867
    132          1           0       -1.926195    0.651843   -0.828552
    133          1           0       -1.809128   -1.129677   -0.588433
    134          1           0        0.078991    0.119468    1.138466
    135          1           0        0.026297    1.126295   -0.264530
    136          1           0       -4.721918    5.346264   -0.695130
    137          1           0       -6.182242    6.268393   -0.822895
    138          1           0       -5.448194    5.663623   -2.326948
    139          1           0       -7.901110    6.698931   -2.177707
    140          1           0       -9.120731    6.491044   -3.561916
    141          1           0       -7.476041    5.794242   -3.615889
    142          1           0      -11.786250    0.634986   -1.271801
    143          1           0      -11.715155   -1.352720    0.941972
    144          1           0      -13.100767    1.631539    0.279987
    145          1           0      -11.618873    1.868854    1.271803
    146          1           0      -12.571220    0.494589    1.516877
    147          1           0      -12.990396   -1.676206   -1.212315
    148          1           0      -12.042699   -3.058897   -0.697491
    149          1           0      -11.675984   -1.095793   -2.840824
    150          1           0      -11.488649   -2.884227   -2.946787
    151          1           0      -10.186663   -1.828446   -2.236519
    152          1           0       -7.511164   -6.038167    1.377880
    153          1           0       -9.065527   -5.145274    1.431489
    154          1           0       -7.948445   -5.051036    2.851168
    155          1           0       -3.300922   -2.891438    2.647942
    156          1           0        0.428553   -4.671484    1.421010
    157          1           0        0.511116   -2.981935    0.607036
    158          1           0       -0.219583   -4.436828   -0.115178
 ---------------------------------------------------------------------

 SCF Done:  E(RCAM-B3LYP) =  -4069.81233308     A.U. after   19 cycles

 Excitation energies and oscillator strengths:

 Excited State   1:      Singlet-A      1.6633 eV  745.43 nm  f=0.0053  <S**2>=0.000
     309 -> 315       -0.11486
     310 -> 316        0.12581
     311 -> 313       -0.46122
     312 -> 314        0.50888
 This state for optimization and/or second-order correction.
 Total Energy, E(TD-HF/TD-DFT) =  -4069.75120957
 Copying the excited state density for this state as the 1-particle RhoCI density.

 Excited State   2:      Singlet-A      1.6901 eV  733.57 nm  f=0.7306  <S**2>=0.000
     309 -> 315        0.13179
     310 -> 316        0.11876
     311 -> 313        0.50751
     312 -> 314        0.46008

 Excited State   3:      Singlet-A      2.1845 eV  567.56 nm  f=0.1072  <S**2>=0.000
     310 -> 314        0.64141
     312 -> 316       -0.27134

 Excited State   4:      Singlet-A      2.1922 eV  565.58 nm  f=0.0954  <S**2>=0.000
     309 -> 313        0.63949
     311 -> 315       -0.27706

 Excited State   5:      Singlet-A      2.5762 eV  481.27 nm  f=0.0000  <S**2>=0.000
     312 -> 313        0.70677

 The electronic state is 1-A.
 Alpha  occ. eigenvalues --  -46.88024 -46.87494 -19.26407 -19.25805 -19.19188
 Alpha  occ. eigenvalues --  -19.19065 -19.18711 -19.18588 -19.18360 -19.17825
 Alpha  occ. eigenvalues --  -14.42662 -14.42324 -14.41671 -14.41196 -14.39630
 Alpha  occ. eigenvalues --  -14.39189 -14.38813 -14.38429 -10.39246 -10.38655
 Alpha  occ. eigenvalues --  -10.35699 -10.35269 -10.34578 -10.33992 -10.31740
 Alpha  occ. eigenvalues --  -10.31605 -10.31119 -10.31115 -10.30974 -10.30835
 Alpha  occ. eigenvalues --  -10.30784 -10.30733 -10.30430 -10.30232 -10.30183
 Alpha  occ. eigenvalues --  -10.30141 -10.29999 -10.29853 -10.29733 -10.29477
 Alpha  occ. eigenvalues --  -10.29287 -10.29237 -10.28911 -10.28634 -10.28585
 Alpha  occ. eigenvalues --  -10.28479 -10.28305 -10.28282 -10.28225 -10.28008
 Alpha  occ. eigenvalues --  -10.27935 -10.27929 -10.27833 -10.27811 -10.27721
 Alpha  occ. eigenvalues --  -10.27697 -10.27671 -10.27613 -10.27501 -10.27395
 Alpha  occ. eigenvalues --  -10.27348 -10.27337 -10.27307 -10.27292 -10.27250
 Alpha  occ. eigenvalues --  -10.26850 -10.26766 -10.26674 -10.26421 -10.26404
 Alpha  occ. eigenvalues --  -10.26382 -10.26325 -10.26236 -10.26029 -10.26017
 Alpha  occ. eigenvalues --  -10.25834 -10.25778 -10.25696 -10.25630 -10.25288
 Alpha  occ. eigenvalues --  -10.25047 -10.25011 -10.24980 -10.24696 -10.24624
 Alpha  occ. eigenvalues --  -10.24527  -3.16767  -3.16244  -1.91649  -1.91235
 Alpha  occ. eigenvalues --   -1.91127  -1.91077  -1.90715  -1.90552  -1.16764
 Alpha  occ. eigenvalues --   -1.16124  -1.08814  -1.08412  -1.07469  -1.06843
 Alpha  occ. eigenvalues --   -1.06805  -1.06491  -1.04791  -1.04316  -1.03979
 Alpha  occ. eigenvalues --   -1.03495  -1.03458  -1.02877  -1.02633  -1.01944
 Alpha  occ. eigenvalues --   -0.92177  -0.91779  -0.89744  -0.89357  -0.89338
 Alpha  occ. eigenvalues --   -0.88932  -0.88508  -0.88076  -0.88072  -0.87875
 Alpha  occ. eigenvalues --   -0.87625  -0.87503  -0.87501  -0.86981  -0.85161
 Alpha  occ. eigenvalues --   -0.84783  -0.84158  -0.83719  -0.83206  -0.82836
 Alpha  occ. eigenvalues --   -0.82803  -0.82435  -0.81750  -0.81254  -0.80788
 Alpha  occ. eigenvalues --   -0.80159  -0.79015  -0.78482  -0.77420  -0.77103
 Alpha  occ. eigenvalues --   -0.76959  -0.76632  -0.76093  -0.75559  -0.75101
 Alpha  occ. eigenvalues --   -0.74608  -0.72983  -0.72530  -0.71868  -0.71384
 Alpha  occ. eigenvalues --   -0.70141  -0.69622  -0.69060  -0.68615  -0.67851
 Alpha  occ. eigenvalues --   -0.67407  -0.67401  -0.66983  -0.65467  -0.65051
 Alpha  occ. eigenvalues --   -0.65036  -0.64810  -0.64576  -0.64488  -0.64374
 Alpha  occ. eigenvalues --   -0.64027  -0.62459  -0.61895  -0.60669  -0.60194
 Alpha  occ. eigenvalues --   -0.59989  -0.59593  -0.59193  -0.58802  -0.58708
 Alpha  occ. eigenvalues --   -0.58218  -0.57768  -0.57518  -0.57270  -0.57039
 Alpha  occ. eigenvalues --   -0.56514  -0.56126  -0.56026  -0.55728  -0.55539
 Alpha  occ. eigenvalues --   -0.55536  -0.55210  -0.55010  -0.54711  -0.54197
 Alpha  occ. eigenvalues --   -0.54066  -0.53686  -0.53512  -0.53415  -0.53108
 Alpha  occ. eigenvalues --   -0.53040  -0.52965  -0.52919  -0.52673  -0.52623
 Alpha  occ. eigenvalues --   -0.52503  -0.52253  -0.52108  -0.51797  -0.51707
 Alpha  occ. eigenvalues --   -0.51425  -0.51390  -0.50967  -0.50808  -0.50351
 Alpha  occ. eigenvalues --   -0.50252  -0.50135  -0.49814  -0.49723  -0.49709
 Alpha  occ. eigenvalues --   -0.49413  -0.49306  -0.49265  -0.48986  -0.48886
 Alpha  occ. eigenvalues --   -0.48771  -0.48685  -0.48644  -0.48300  -0.48224
 Alpha  occ. eigenvalues --   -0.48137  -0.47893  -0.47498  -0.47384  -0.47002
 Alpha  occ. eigenvalues --   -0.46925  -0.46729  -0.46569  -0.46523  -0.46359
 Alpha  occ. eigenvalues --   -0.46331  -0.46092  -0.45990  -0.45856  -0.45535
 Alpha  occ. eigenvalues --   -0.45414  -0.45046  -0.44763  -0.44719  -0.44363
 Alpha  occ. eigenvalues --   -0.44288  -0.44269  -0.44263  -0.44211  -0.43935
 Alpha  occ. eigenvalues --   -0.43895  -0.43719  -0.43664  -0.43581  -0.43250
 Alpha  occ. eigenvalues --   -0.43225  -0.43119  -0.42911  -0.42814  -0.42715
 Alpha  occ. eigenvalues --   -0.42450  -0.42394  -0.42220  -0.41905  -0.41780
 Alpha  occ. eigenvalues --   -0.41710  -0.41459  -0.41335  -0.41243  -0.41070
 Alpha  occ. eigenvalues --   -0.41045  -0.40801  -0.40779  -0.40563  -0.40503
 Alpha  occ. eigenvalues --   -0.40392  -0.40318  -0.39983  -0.39684  -0.39295
 Alpha  occ. eigenvalues --   -0.38679  -0.38193  -0.37914  -0.37536  -0.37444
 Alpha  occ. eigenvalues --   -0.37399  -0.37101  -0.36970  -0.36886  -0.36404
 Alpha  occ. eigenvalues --   -0.36380  -0.35932  -0.34502  -0.34076  -0.33952
 Alpha  occ. eigenvalues --   -0.33471  -0.33401  -0.32984  -0.31593  -0.31249
 Alpha  occ. eigenvalues --   -0.31145  -0.30791  -0.30216  -0.29720  -0.29677
 Alpha  occ. eigenvalues --   -0.29541  -0.29171  -0.29038  -0.24298  -0.23861
 Alpha  occ. eigenvalues --   -0.21345  -0.20952
 Alpha virt. eigenvalues --   -0.08994  -0.08625  -0.01973  -0.01522  -0.00283
 Alpha virt. eigenvalues --    0.00130   0.01986   0.02379   0.02564   0.03389
 Alpha virt. eigenvalues --    0.04528   0.04931   0.04991   0.05571   0.06036

 Mulliken charges:
               1
     1  Mg   0.836339
     2  C   -0.003313
     3  C   -0.093825
     4  C   -0.046423
     5  C   -0.063928
     6  N   -0.256880
     7  C   -0.052328
     8  C   -0.013875
     9  C   -0.086992
    10  C    0.046243
    11  C    0.104694
    12  C    0.053353
    13  C   -0.072438
    14  H    0.037755
    15  N   -0.433234
    16  C    0.168123
    17  C   -0.177151
    18  C   -0.004413
    19  C    0.148404
    20  C    0.110066
    21  C    0.011380
    22  O   -0.249906
    23  C    0.062804
    24  N   -0.341058
    25  C    0.041243
    26  C   -0.028192
    27  C   -0.024052
    28  C    0.074521
    29  C    0.076033
    30  C    0.035180
    31  C   -0.004830
    32  N   -0.310420
    33  C    0.079986
    34  C   -0.170196
    35  C    0.008229
    36  C    0.081858
    37  C    0.127484
    38  C    0.045232
    39  O   -0.187323
    40  C   -0.005015
    41  C    0.213516
    42  O   -0.258702
    43  O   -0.304600
    44  C    0.157092
    45  H   -0.017123
    46  H   -0.016964
    47  H   -0.041005
    48  H    0.001491
    49  H   -0.003678
    50  H    0.025766
    51  H    0.016414
    52  H    0.017162
    53  H    0.010893
    54  H    0.043868
    55  H    0.018138
    56  H    0.018043
    57  H    0.006382
    58  H    0.027211
    59  H    0.039058
    60  H    0.038077
    61  H    0.035370
    62  H    0.030511
    63  H    0.015893
    64  H    0.010135
    65  H    0.023312
    66  H    0.012858
    67  H    0.005274
    68  H    0.006810
    69  H    0.005658
    70  H    0.007837
    71  H    0.018372
    72  H    0.027999
    73  H    0.047655
    74  H    0.009534
    75  H    0.046718
    76  H    0.035857
    77  H    0.043814
    78  H    0.046750
    79  H    0.054638
    80  Mg   0.837468
    81  C   -0.016282
    82  C   -0.087942
    83  C   -0.045880
    84  C   -0.065395
    85  N   -0.254478
    86  C   -0.049857
    87  C   -0.014751
    88  C   -0.090373
    89  C    0.045638
    90  C    0.114365
    91  C    0.063052
    92  C   -0.082114
    93  H    0.043044
    94  N   -0.423407
    95  C    0.162632
    96  C   -0.174913
    97  C   -0.008246
    98  C    0.152031
    99  C    0.099467
   100  C    0.015263
   101  O   -0.253635
   102  C    0.061360
   103  N   -0.350172
   104  C    0.037383
   105  C   -0.019686
   106  C   -0.034831
   107  C    0.089136
   108  C    0.073809
   109  C    0.034824
   110  C   -0.007615
   111  N   -0.324208
   112  C    0.078696
   113  C   -0.163345
   114  C    0.002547
   115  C    0.096124
   116  C    0.131487
   117  C    0.042272
   118  O   -0.186862
   119  C    0.001278
   120  C    0.211519
   121  O   -0.250997
   122  O   -0.307195
   123  C    0.151065
   124  H   -0.019791
   125  H   -0.016072
   126  H   -0.040770
   127  H   -0.000242
   128  H   -0.004285
   129  H    0.022156
   130  H    0.013915
   131  H    0.016482
   132  H    0.012621
   133  H    0.039099
   134  H    0.020375
   135  H    0.017657
   136  H    0.008669
   137  H    0.025767
   138  H    0.038876
   139  H    0.038079
   140  H    0.035881
   141  H    0.033476
   142  H    0.014075
   143  H    0.012187
   144  H    0.024752
   145  H    0.011576
   146  H    0.005396
   147  H    0.005919
   148  H    0.003560
   149  H    0.010705
   150  H    0.017712
   151  H    0.030370
   152  H    0.046279
   153  H    0.008169
   154  H    0.046746
   155  H    0.034475
   156  H    0.045498
   157  H    0.052563
   158  H    0.056681
 Sum of Mulliken charges =  -0.00000

 Dipole moment (field-independent basis, Debye):
    X=              3.6223    Y=              7.0573    Z=             -1.6930  Tot=              8.1113
 Quadrupole moment (field-independent basis, Debye-Ang):
   XX=           -483.8257   YY=           -548.9224   ZZ=           -475.0407
   XY=             24.8633   XZ=            -29.5254   YZ=             -8.6592

 Normal termination of Gaussian 16 at Sat Sep 11 11:04:32 2021.
