 Gaussian 16, Revision A.03,
 Gaussian 16:  ES64L-G16RevA.03 25-Dec-2016

 -----------------------------------
 #p cam-b3lyp/Def2SVP td=(nstates=5)
 -----------------------------------

 --------------------------------
 TDDFT excited states in gaussian
 --------------------------------
 Symbolic Z-matrix:
 Charge =  0 Multiplicity = 1

                         Standard orientation:
 ---------------------------------------------------------------------
 Center     Atomic      Atomic             Coordinates (Angstroms)
 Number     Number       Type             X           Y           Z
 ---------------------------------------------------------------------
      1         12           0       15.984363   -0.635343    0.028121
      2          6           0       16.158045    2.742731   -1.142632
      3          6           0       16.862700    0.543788    3.107283
      4          6           0       16.281058   -3.646789    0.976691
      5          6           0       16.240280   -1.645294   -3.297562
      6          7           0       16.425589    1.405362    0.763980
      7          6           0       16.398456    2.621492    0.227824
      8          6           0       16.574874    3.762138    1.274330
      9          6           0       17.337989    2.945070    2.411016
     10          6           0       16.818368    1.552605    2.099635
     11          6           0       18.854861    2.950431    2.251100
     12          6           0       15.202987    4.314415    1.788768
     13          6           0       15.277904    5.636655    2.557809
     14          1           0       14.194709    6.596567    2.407455
     15          7           0       16.016682   -1.408798    1.845694
     16          6           0       16.385801   -0.779469    2.987177
     17          6           0       16.237476   -1.776893    4.068762
     18          6           0       15.934134   -3.091158    3.437266
     19          6           0       16.093088   -2.769427    2.042060
     20          6           0       16.334978   -1.433708    5.523570
     21          6           0       15.570576   -4.427885    4.002169
     22          8           0       15.576160   -5.490845    3.291775
     23          6           0       15.289801   -4.475511    5.448523
     24          7           0       16.446518   -2.403139   -0.981306
     25          6           0       16.452027   -3.579737   -0.345247
     26          6           0       16.528177   -4.723236   -1.313002
     27          6           0       16.328041   -4.088157   -2.764337
     28          6           0       16.248813   -2.595383   -2.359839
     29          6           0       17.829653   -5.536556   -1.286886
     30          6           0       15.192595   -4.676608   -3.638926
     31          6           0       13.849665   -4.345352   -3.027449
     32          7           0       15.989847    0.342052   -1.909846
     33          6           0       16.130166   -0.271367   -3.163122
     34          6           0       16.182791    0.806298   -4.168078
     35          6           0       16.085460    1.980006   -3.423242
     36          6           0       16.005210    1.656928   -2.038513
     37          6           0       16.364083    0.631751   -5.568471
     38          6           0       16.055383    3.432748   -3.473180
     39          8           0       15.996563    4.268337   -4.376410
     40          6           0       16.223870    3.988669   -1.990483
     41          6           0       15.170008    5.040882   -1.777099
     42          8           0       13.959811    4.737629   -1.748311
     43          8           0       15.756949    6.189138   -1.406222
     44          6           0       14.764703    7.267032   -1.149815
     45          1           0       17.359453    0.764874    4.054013
     46          1           0       16.277655   -4.703785    1.250892
     47          1           0       16.234276   -1.887163   -4.361947
     48          1           0       17.191048    4.596191    0.938012
     49          1           0       17.027560    3.250769    3.409967
     50          1           0       19.154445    3.407609    1.308148
     51          1           0       19.154083    1.902466    2.278102
     52          1           0       19.333302    3.420887    3.110485
     53          1           0       14.825849    3.662584    2.576769
     54          1           0       14.494779    4.415707    0.965659
     55          1           0       16.242907    6.124737    2.418334
     56          1           0       15.238440    5.414242    3.624193
     57          1           0       16.729102   -0.429210    5.672556
     58          1           0       17.091212   -2.089012    5.955306
     59          1           0       15.386867   -1.574363    6.042832
     60          1           0       16.165807   -4.128299    5.996799
     61          1           0       14.961065   -5.492878    5.657682
     62          1           0       14.487545   -3.772884    5.675787
     63          1           0       15.735123   -5.446368   -1.127069
     64          1           0       17.220267   -4.191073   -3.382411
     65          1           0       17.677778   -6.599955   -1.100277
     66          1           0       18.486318   -5.097667   -0.536248
     67          1           0       18.440137   -5.451144   -2.185458
     68          1           0       15.268137   -5.762758   -3.677893
     69          1           0       15.203195   -4.306425   -4.664159
     70          1           0       13.721315   -5.129709   -2.282370
     71          1           0       13.065280   -4.392974   -3.783547
     72          1           0       13.877750   -3.393395   -2.496907
     73          1           0       15.658874    1.306388   -6.053768
     74          1           0       16.190400   -0.402607   -5.864346
     75          1           0       17.407761    0.927004   -5.675322
     76          1           0       17.231154    4.398294   -1.921867
     77          1           0       15.036405    8.110919   -1.784060
     78          1           0       14.753174    7.427515   -0.071614
     79          1           0       13.745942    7.074858   -1.488247
     80         12           0      -15.766886   -0.861872    0.158079
     81          6           0      -17.582254    2.196603   -0.320674
     82          6           0      -13.424856    0.965297    1.834674
     83          6           0      -13.928818   -3.447700    0.207272
     84          6           0      -17.613127   -2.207333   -2.473809
     85          7           0      -15.633043    1.294634    0.631196
     86          6           0      -16.412061    2.350663    0.451561
     87          6           0      -15.950019    3.626463    1.205501
     88          6           0      -14.390243    3.271145    1.345965
     89          6           0      -14.482014    1.747159    1.304383
     90          6           0      -13.558855    3.732104    0.160365
     91          6           0      -16.634752    3.771828    2.609781
     92          6           0      -16.468650    5.143607    3.267332
     93          1           0      -17.572456    5.671681    4.064341
     94          7           0      -14.209597   -1.308950    1.304188
     95          6           0      -13.380878   -0.443348    1.924841
     96          6           0      -12.386085   -1.270557    2.625040
     97          6           0      -12.597047   -2.690522    2.232742
     98          6           0      -13.595105   -2.531564    1.194132
     99          6           0      -11.415887   -0.706829    3.622220
    100          6           0      -11.990397   -3.977308    2.704283
    101          8           0      -12.148728   -5.072937    2.058246
    102          6           0      -11.128670   -3.899048    3.892889
    103          7           0      -15.616825   -2.509261   -1.101264
    104          6           0      -14.772792   -3.518075   -0.822322
    105          6           0      -15.035048   -4.710325   -1.711237
    106          6           0      -16.394982   -4.378696   -2.484646
    107          6           0      -16.647366   -2.951107   -1.952022
    108          6           0      -13.939608   -5.037395   -2.725838
    109          6           0      -17.540160   -5.422214   -2.373689
    110          6           0      -18.060916   -5.468128   -0.955211
    111          7           0      -17.442030   -0.228162   -1.050366
    112          6           0      -18.041124   -0.935325   -2.115775
    113          6           0      -19.067495   -0.049999   -2.703311
    114          6           0      -18.977792    1.128754   -1.947684
    115          6           0      -17.953100    0.995423   -0.972112
    116          6           0      -19.891423   -0.359483   -3.822008
    117          6           0      -19.509704    2.459432   -1.760421
    118          8           0      -20.449422    3.094393   -2.237396
    119          6           0      -18.544115    3.256467   -0.781256
    120          6           0      -19.393389    3.932220    0.260179
    121          8           0      -20.042140    3.259396    1.080576
    122          8           0      -19.130417    5.251764    0.254848
    123          6           0      -19.940649    5.963853    1.278700
    124          1           0      -12.523745    1.474987    2.176858
    125          1           0      -13.398512   -4.401821    0.250873
    126          1           0      -18.298063   -2.589217   -3.233868
    127          1           0      -16.072633    4.550190    0.652806
    128          1           0      -13.994009    3.603329    2.302004
    129          1           0      -14.174977    4.119103   -0.637610
    130          1           0      -13.012394    2.859489   -0.172763
    131          1           0      -12.804459    4.453685    0.486758
    132          1           0      -16.097396    3.148886    3.336368
    133          1           0      -17.676371    3.521841    2.553476
    134          1           0      -16.110335    5.899871    2.558375
    135          1           0      -15.672738    5.076888    4.013051
    136          1           0      -11.386229    0.388923    3.579456
    137          1           0      -10.414621   -1.018224    3.305437
    138          1           0      -11.594897   -1.070782    4.636206
    139          1           0      -10.308956   -3.211064    3.699991
    140          1           0      -10.861248   -4.930981    4.128418
    141          1           0      -11.709428   -3.473018    4.718618
    142          1           0      -15.175731   -5.608326   -1.122247
    143          1           0      -16.234875   -4.285852   -3.568887
    144          1           0      -13.550598   -6.068771   -2.630911
    145          1           0      -13.140519   -4.317374   -2.609434
    146          1           0      -14.221257   -4.903335   -3.768870
    147          1           0      -17.163604   -6.423101   -2.598613
    148          1           0      -18.366832   -5.229784   -3.049392
    149          1           0      -17.353973   -6.136252   -0.454296
    150          1           0      -19.070952   -5.872215   -0.930830
    151          1           0      -17.982679   -4.485699   -0.475249
    152          1           0      -20.890596   -0.026599   -3.574346
    153          1           0      -19.870772   -1.423397   -4.048769
    154          1           0      -19.399776    0.234957   -4.596727
    155          1           0      -17.986570    3.974552   -1.383806
    156          1           0      -20.490361    6.754120    0.758138
    157          1           0      -19.224092    6.279498    2.060158
    158          1           0      -20.750195    5.416277    1.746931
 ---------------------------------------------------------------------

 SCF Done:  E(RCAM-B3LYP) =  -4069.81177850     A.U. after   19 cycles

 Excitation energies and oscillator strengths:

 Excited State   1:      Singlet-A      1.6755 eV  739.99 nm  f=0.3175  <S**2>=0.000
     310 -> 316        0.17146
     311 -> 313       -0.10691
     312 -> 314        0.67767
     310 <- 316        0.10335
 This state for optimization and/or second-order correction.
 Total Energy, E(TD-HF/TD-DFT) =  -4069.75020583
 Copying the excited state density for this state as the 1-particle RhoCI density.

 Excited State   2:      Singlet-A      1.6799 eV  738.03 nm  f=0.4626  <S**2>=0.000
     309 -> 315        0.17344
     311 -> 313        0.67731
     312 -> 314        0.10687
     309 <- 315        0.10386

 Excited State   3:      Singlet-A      2.1861 eV  567.14 nm  f=0.0951  <S**2>=0.000
     310 -> 314        0.64210
     312 -> 316       -0.27296

 Excited State   4:      Singlet-A      2.1926 eV  565.48 nm  f=0.1050  <S**2>=0.000
     309 -> 313        0.64032
     311 -> 315       -0.27816

 Excited State   5:      Singlet-A      3.0619 eV  404.92 nm  f=0.0000  <S**2>=0.000
     312 -> 313        0.70710

 The electronic state is 1-A.
 Alpha  occ. eigenvalues --  -46.87815 -46.87660 -19.26351 -19.26307 -19.19162
 Alpha  occ. eigenvalues --  -19.19042 -19.18832 -19.18713 -19.18189 -19.18052
 Alpha  occ. eigenvalues --  -14.42497 -14.42469 -14.41467 -14.41359 -14.39421
 Alpha  occ. eigenvalues --  -14.39352 -14.38605 -14.38600 -10.39102 -10.39092
 Alpha  occ. eigenvalues --  -10.35466 -10.35390 -10.34409 -10.34229 -10.31758
 Alpha  occ. eigenvalues --  -10.31703 -10.31424 -10.31309 -10.31023 -10.30928
 Alpha  occ. eigenvalues --  -10.30588 -10.30526 -10.30398 -10.30361 -10.30224
 Alpha  occ. eigenvalues --  -10.30140 -10.29938 -10.29895 -10.29649 -10.29436
 Alpha  occ. eigenvalues --  -10.29401 -10.29272 -10.28769 -10.28718 -10.28655
 Alpha  occ. eigenvalues --  -10.28562 -10.28405 -10.28383 -10.28139 -10.28136
 Alpha  occ. eigenvalues --  -10.28001 -10.27811 -10.27746 -10.27668 -10.27603
 Alpha  occ. eigenvalues --  -10.27518 -10.27517 -10.27500 -10.27483 -10.27467
 Alpha  occ. eigenvalues --  -10.27465 -10.27463 -10.27422 -10.27375 -10.27178
 Alpha  occ. eigenvalues --  -10.27051 -10.26727 -10.26693 -10.26428 -10.26413
 Alpha  occ. eigenvalues --  -10.26252 -10.26199 -10.26139 -10.26037 -10.26021
 Alpha  occ. eigenvalues --  -10.25934 -10.25861 -10.25852 -10.25450 -10.25395
 Alpha  occ. eigenvalues --  -10.24873 -10.24851 -10.24805 -10.24733 -10.24703
 Alpha  occ. eigenvalues --  -10.24690  -3.16558  -3.16410  -1.91439  -1.91293
 Alpha  occ. eigenvalues --   -1.91026  -1.90881  -1.90868  -1.90718  -1.16655
 Alpha  occ. eigenvalues --   -1.16645  -1.08659  -1.08647  -1.07233  -1.06965
 Alpha  occ. eigenvalues --   -1.06947  -1.06665  -1.04600  -1.04495  -1.03779
 Alpha  occ. eigenvalues --   -1.03663  -1.03252  -1.03039  -1.02429  -1.02111
 Alpha  occ. eigenvalues --   -0.91991  -0.91987  -0.89537  -0.89495  -0.89208
 Alpha  occ. eigenvalues --   -0.89150  -0.88304  -0.88220  -0.87888  -0.87794
 Alpha  occ. eigenvalues --   -0.87692  -0.87684  -0.87292  -0.87119  -0.85002
 Alpha  occ. eigenvalues --   -0.84999  -0.83953  -0.83876  -0.82985  -0.82931
 Alpha  occ. eigenvalues --   -0.82668  -0.82652  -0.81606  -0.81597  -0.80616
 Alpha  occ. eigenvalues --   -0.80443  -0.78815  -0.78635  -0.77237  -0.77144
 Alpha  occ. eigenvalues --   -0.76954  -0.76898  -0.75943  -0.75838  -0.74915
 Alpha  occ. eigenvalues --   -0.74802  -0.72792  -0.72699  -0.71690  -0.71580
 Alpha  occ. eigenvalues --   -0.69924  -0.69758  -0.68892  -0.68827  -0.67660
 Alpha  occ. eigenvalues --   -0.67602  -0.67240  -0.67200  -0.65306  -0.65272
 Alpha  occ. eigenvalues --   -0.64873  -0.64770  -0.64654  -0.64640  -0.64287
 Alpha  occ. eigenvalues --   -0.64204  -0.62318  -0.62279  -0.60460  -0.60339
 Alpha  occ. eigenvalues --   -0.59823  -0.59796  -0.59006  -0.58993  -0.58522
 Alpha  occ. eigenvalues --   -0.58426  -0.57604  -0.57555  -0.57327  -0.57236
 Alpha  occ. eigenvalues --   -0.56328  -0.56204  -0.56000  -0.55887  -0.55539
 Alpha  occ. eigenvalues --   -0.55452  -0.55357  -0.55248  -0.54542  -0.54488
 Alpha  occ. eigenvalues --   -0.53915  -0.53912  -0.53317  -0.53241  -0.53228
 Alpha  occ. eigenvalues --   -0.53141  -0.52934  -0.52903  -0.52775  -0.52667
 Alpha  occ. eigenvalues --   -0.52455  -0.52402  -0.51933  -0.51886  -0.51658
 Alpha  occ. eigenvalues --   -0.51636  -0.51215  -0.51202  -0.50590  -0.50474
 Alpha  occ. eigenvalues --   -0.50048  -0.49979  -0.49937  -0.49867  -0.49534
 Alpha  occ. eigenvalues --   -0.49487  -0.49233  -0.49202  -0.49115  -0.49104
 Alpha  occ. eigenvalues --   -0.48612  -0.48558  -0.48478  -0.48464  -0.48376
 Alpha  occ. eigenvalues --   -0.48338  -0.47713  -0.47594  -0.47315  -0.47118
 Alpha  occ. eigenvalues --   -0.46815  -0.46709  -0.46575  -0.46553  -0.46377
 Alpha  occ. eigenvalues --   -0.46271  -0.46181  -0.46086  -0.45841  -0.45823
 Alpha  occ. eigenvalues --   -0.45218  -0.45208  -0.44597  -0.44525  -0.44514
 Alpha  occ. eigenvalues --   -0.44476  -0.44163  -0.44127  -0.44107  -0.44078
 Alpha  occ. eigenvalues --   -0.44038  -0.43939  -0.43554  -0.43515  -0.43404
 Alpha  occ. eigenvalues --   -0.43386  -0.43045  -0.42931  -0.42902  -0.42719
 Alpha  occ. eigenvalues --   -0.42673  -0.42553  -0.42028  -0.41965  -0.41723
 Alpha  occ. eigenvalues --   -0.41669  -0.41553  -0.41459  -0.41159  -0.40989
 Alpha  occ. eigenvalues --   -0.40888  -0.40841  -0.40722  -0.40698  -0.40589
 Alpha  occ. eigenvalues --   -0.40493  -0.40255  -0.40227  -0.39457  -0.39426
 Alpha  occ. eigenvalues --   -0.38486  -0.38350  -0.37769  -0.37654  -0.37338
 Alpha  occ. eigenvalues --   -0.37283  -0.37266  -0.37199  -0.36772  -0.36734
 Alpha  occ. eigenvalues --   -0.36217  -0.36212  -0.34304  -0.34254  -0.33863
 Alpha  occ. eigenvalues --   -0.33792  -0.33205  -0.33176  -0.31362  -0.31272
 Alpha  occ. eigenvalues --   -0.31054  -0.30973  -0.30048  -0.29956  -0.29467
 Alpha  occ. eigenvalues --   -0.29340  -0.29327  -0.29212  -0.24099  -0.24036
 Alpha  occ. eigenvalues --   -0.21146  -0.21117
 Alpha virt. eigenvalues --   -0.08792  -0.08792  -0.01768  -0.01684  -0.00076
 Alpha virt. eigenvalues --   -0.00028   0.02182   0.02206   0.03102   0.03227
 Alpha virt. eigenvalues --    0.04698   0.04730   0.05076   0.05164   0.06155

 Mulliken charges:
               1
     1  Mg   0.838679
     2  C   -0.002983
     3  C   -0.094145
     4  C   -0.045847
     5  C   -0.063942
     6  N   -0.256779
     7  C   -0.052487
     8  C   -0.014002
     9  C   -0.087002
    10  C    0.046327
    11  C    0.104810
    12  C    0.053464
    13  C   -0.071777
    14  H    0.036047
    15  N   -0.433142
    16  C    0.168430
    17  C   -0.177149
    18  C   -0.004001
    19  C    0.148710
    20  C    0.110172
    21  C    0.012285
    22  O   -0.249590
    23  C    0.062477
    24  N   -0.341132
    25  C    0.041231
    26  C   -0.028172
    27  C   -0.023988
    28  C    0.074845
    29  C    0.076159
    30  C    0.035120
    31  C   -0.004507
    32  N   -0.310466
    33  C    0.080407
    34  C   -0.169709
    35  C    0.008346
    36  C    0.082985
    37  C    0.127315
    38  C    0.046105
    39  O   -0.188453
    40  C   -0.005331
    41  C    0.212870
    42  O   -0.257143
    43  O   -0.304775
    44  C    0.157703
    45  H   -0.017594
    46  H   -0.016810
    47  H   -0.041472
    48  H    0.000943
    49  H   -0.004049
    50  H    0.025483
    51  H    0.016470
    52  H    0.016669
    53  H    0.011185
    54  H    0.044093
    55  H    0.017898
    56  H    0.017944
    57  H    0.005869
    58  H    0.026856
    59  H    0.039528
    60  H    0.037362
    61  H    0.035677
    62  H    0.031467
    63  H    0.016567
    64  H    0.009485
    65  H    0.023242
    66  H    0.012552
    67  H    0.004777
    68  H    0.006402
    69  H    0.004740
    70  H    0.008794
    71  H    0.018146
    72  H    0.028949
    73  H    0.047554
    74  H    0.009127
    75  H    0.046029
    76  H    0.035168
    77  H    0.042952
    78  H    0.046392
    79  H    0.053640
    80  Mg   0.837844
    81  C   -0.016832
    82  C   -0.087781
    83  C   -0.045490
    84  C   -0.064873
    85  N   -0.254570
    86  C   -0.049846
    87  C   -0.015085
    88  C   -0.090492
    89  C    0.045749
    90  C    0.114359
    91  C    0.062523
    92  C   -0.077893
    93  H    0.034870
    94  N   -0.423468
    95  C    0.162933
    96  C   -0.174587
    97  C   -0.007785
    98  C    0.152123
    99  C    0.099350
   100  C    0.015592
   101  O   -0.253156
   102  C    0.061191
   103  N   -0.350043
   104  C    0.037507
   105  C   -0.019830
   106  C   -0.034794
   107  C    0.088889
   108  C    0.073632
   109  C    0.034729
   110  C   -0.007673
   111  N   -0.324132
   112  C    0.078450
   113  C   -0.163146
   114  C    0.002259
   115  C    0.096171
   116  C    0.131494
   117  C    0.042364
   118  O   -0.187901
   119  C    0.000943
   120  C    0.211258
   121  O   -0.251039
   122  O   -0.305622
   123  C    0.152028
   124  H   -0.019603
   125  H   -0.015540
   126  H   -0.040465
   127  H   -0.000636
   128  H   -0.004323
   129  H    0.022470
   130  H    0.014472
   131  H    0.016339
   132  H    0.013905
   133  H    0.037666
   134  H    0.020809
   135  H    0.019595
   136  H    0.008784
   137  H    0.026227
   138  H    0.039780
   139  H    0.038308
   140  H    0.036413
   141  H    0.033865
   142  H    0.014399
   143  H    0.012435
   144  H    0.025167
   145  H    0.011692
   146  H    0.005699
   147  H    0.006274
   148  H    0.003641
   149  H    0.010936
   150  H    0.017918
   151  H    0.030088
   152  H    0.045987
   153  H    0.008505
   154  H    0.046953
   155  H    0.035044
   156  H    0.043912
   157  H    0.049501
   158  H    0.053567
 Sum of Mulliken charges =  -0.00000

 Dipole moment (field-independent basis, Debye):
    X=              6.1497    Y=              0.9692    Z=              5.5070  Tot=              8.3118
 Quadrupole moment (field-independent basis, Debye-Ang):
   XX=           -592.5055   YY=           -507.8082   ZZ=           -483.4329
   XY=              5.4891   XZ=             49.3802   YZ=             57.7938

 Normal termination of Gaussian 16 at Sun Sep 12 20:50:54 2021.
