 Gaussian 16, Revision A.03,
 Gaussian 16:  ES64L-G16RevA.03 25-Dec-2016

 -----------------------------------
 #p cam-b3lyp/Def2SVP td=(nstates=5)
 -----------------------------------

 --------------------------------
 TDDFT excited states in gaussian
 --------------------------------
 Symbolic Z-matrix:
 Charge =  0 Multiplicity = 1

                         Standard orientation:
 ---------------------------------------------------------------------
 Center     Atomic      Atomic             Coordinates (Angstroms)
 Number     Number       Type             X           Y           Z
 ---------------------------------------------------------------------
      1         12           0       -4.638507    0.155829   -0.090711
      2          6           0       -4.130141    3.688214   -0.366457
      3          6           0       -5.343268    0.146905   -3.429319
      4          6           0       -5.532435   -2.871212    0.216755
      5          6           0       -5.008071    0.626027    3.342654
      6          7           0       -4.694430    1.775522   -1.598728
      7          6           0       -4.420830    3.076366   -1.587844
      8          6           0       -4.397808    3.714770   -3.008859
      9          6           0       -5.330142    2.668957   -3.769798
     10          6           0       -5.081976    1.446905   -2.903239
     11          6           0       -6.813391    3.019712   -3.711101
     12          6           0       -2.957315    3.749821   -3.621624
     13          6           0       -2.793313    4.643245   -4.854609
     14          1           0       -1.542085    5.363562   -5.036042
     15          7           0       -4.861194   -1.258839   -1.451584
     16          6           0       -5.128047   -1.081528   -2.767881
     17          6           0       -5.199854   -2.436672   -3.355342
     18          6           0       -5.141404   -3.420379   -2.238652
     19          6           0       -5.203209   -2.544423   -1.096610
     20          6           0       -5.262678   -2.691931   -4.830010
     21          6           0       -5.055691   -4.913604   -2.206005
     22          8           0       -5.249973   -5.582767   -1.134068
     23          6           0       -4.822669   -5.586612   -3.496665
     24          7           0       -5.409800   -0.941598    1.508787
     25          6           0       -5.656853   -2.250907    1.391909
     26          6           0       -5.929988   -2.876385    2.727616
     27          6           0       -5.577794   -1.763498    3.817202
     28          6           0       -5.221308   -0.599968    2.859400
     29          6           0       -7.364196   -3.374882    2.952466
     30          6           0       -4.557463   -2.153268    4.916030
     31          6           0       -3.190252   -2.350005    4.300298
     32          7           0       -4.410784    1.808701    1.297526
     33          6           0       -4.638021    1.785070    2.681173
     34          6           0       -4.458614    3.163819    3.172021
     35          6           0       -4.153754    3.901567    2.029816
     36          6           0       -4.169173    3.043224    0.893462
     37          6           0       -4.637977    3.600538    4.514236
     38          6           0       -3.842773    5.219926    1.501536
     39          8           0       -3.603094    6.320008    2.001401
     40          6           0       -3.934818    5.157671   -0.087011
     41          6           0       -2.702904    5.820919   -0.640001
     42          8           0       -1.574957    5.312200   -0.477809
     43          8           0       -3.065597    6.812506   -1.468102
     44          6           0       -1.890156    7.493067   -2.074178
     45          1           0       -5.809627    0.059341   -4.412570
     46          1           0       -5.739358   -3.930200    0.384579
     47          1           0       -5.024415    0.833203    4.414225
     48          1           0       -4.833569    4.712401   -3.066035
     49          1           0       -4.989578    2.486392   -4.788822
     50          1           0       -6.997392    3.862644   -3.045120
     51          1           0       -7.309751    2.123894   -3.337431
     52          1           0       -7.211661    3.187488   -4.712105
     53          1           0       -2.731242    2.779676   -4.064085
     54          1           0       -2.224163    4.038032   -2.867470
     55          1           0       -3.642535    5.316516   -4.974766
     56          1           0       -2.822005    4.010073   -5.741441
     57          1           0       -5.458874   -1.776552   -5.386906
     58          1           0       -6.140860   -3.312081   -5.008671
     59          1           0       -4.371705   -3.201996   -5.196525
     60          1           0       -5.627564   -5.331203   -4.186200
     61          1           0       -4.701320   -6.644523   -3.266558
     62          1           0       -3.905341   -5.195921   -3.938047
     63          1           0       -5.295861   -3.747236    2.888637
     64          1           0       -6.458678   -1.442963    4.373955
     65          1           0       -7.424702   -4.432215    3.211484
     66          1           0       -7.940888   -3.158841    2.053553
     67          1           0       -7.925928   -2.825581    3.707545
     68          1           0       -4.840261   -3.098584    5.377926
     69          1           0       -4.472887   -1.409269    5.708219
     70          1           0       -3.232812   -3.375695    3.935632
     71          1           0       -2.412649   -2.236407    5.056367
     72          1           0       -3.046288   -1.702338    3.435262
     73          1           0       -3.804886    4.268934    4.731433
     74          1           0       -4.660408    2.758049    5.205113
     75          1           0       -5.602332    4.102315    4.436158
     76          1           0       -4.845432    5.685213   -0.369152
     77          1           0       -1.979274    8.554548   -1.842771
     78          1           0       -1.872635    7.204056   -3.125164
     79          1           0       -0.920129    7.266412   -1.630315
     80         12           0        4.181866   -1.591606    0.408602
     81          6           0        5.901409    1.558104    0.369300
     82          6           0        4.730238   -1.763382   -2.953601
     83          6           0        2.289628   -4.137335    0.330411
     84          6           0        2.801584   -0.642274    3.464626
     85          7           0        5.197363   -0.218558   -0.997021
     86          6           0        5.866861    0.919044   -0.887615
     87          6           0        6.604763    1.358002   -2.180829
     88          6           0        5.701822    0.572228   -3.251395
     89          6           0        5.201664   -0.564256   -2.362048
     90          6           0        4.499716    1.371207   -3.726692
     91          6           0        8.094526    0.866624   -2.215027
     92          6           0        8.961315    1.516285   -3.295941
     93          1           0       10.365716    1.781145   -2.995940
     94          7           0        4.001511   -3.016132   -0.961355
     95          6           0        4.290964   -2.922013   -2.276129
     96          6           0        3.966621   -4.235189   -2.854505
     97          6           0        3.307344   -5.059799   -1.805645
     98          6           0        3.151759   -4.074285   -0.754626
     99          6           0        4.354194   -4.627559   -4.250661
    100          6           0        2.875319   -6.494225   -1.761250
    101          8           0        2.107172   -6.937757   -0.836016
    102          6           0        3.301763   -7.342387   -2.883861
    103          7           0        2.590795   -2.202860    1.599053
    104          6           0        1.974785   -3.377762    1.379809
    105          6           0        1.050908   -3.730593    2.521026
    106          6           0        1.358521   -2.660811    3.669288
    107          6           0        2.388771   -1.781779    2.926800
    108          6           0       -0.442827   -3.713902    2.197185
    109          6           0        1.735561   -3.219302    5.068786
    110          6           0        3.077331   -3.912681    5.003401
    111          7           0        4.446413    0.045774    1.793173
    112          6           0        3.747811    0.262791    3.001045
    113          6           0        4.194273    1.566243    3.534072
    114          6           0        5.111874    2.031446    2.580086
    115          6           0        5.213908    1.094128    1.516822
    116          6           0        3.719588    2.184649    4.725017
    117          6           0        6.009415    3.107263    2.225491
    118          8           0        6.403752    4.129637    2.784944
    119          6           0        6.465912    2.907794    0.716122
    120          6           0        7.959059    3.079262    0.655920
    121          8           0        8.711615    2.271436    1.228378
    122          8           0        8.256881    4.036025   -0.242005
    123          6           0        9.727099    4.234913   -0.345534
    124          1           0        4.648445   -1.808744   -4.039939
    125          1           0        1.694538   -5.050262    0.407367
    126          1           0        2.491519   -0.321082    4.461305
    127          1           0        6.576768    2.422443   -2.380749
    128          1           0        6.305645    0.181274   -4.066206
    129          1           0        4.385103    2.292841   -3.175691
    130          1           0        3.641406    0.730026   -3.574239
    131          1           0        4.561952    1.540025   -4.805568
    132          1           0        8.119771   -0.176460   -2.555719
    133          1           0        8.558920    0.991213   -1.256158
    134          1           0        8.485766    2.406144   -3.726009
    135          1           0        9.044156    0.823702   -4.137052
    136          1           0        4.680079   -3.759357   -4.836690
    137          1           0        3.441539   -4.966886   -4.752444
    138          1           0        5.090253   -5.434037   -4.272567
    139          1           0        2.926803   -6.924367   -3.815060
    140          1           0        2.973101   -8.351752   -2.628824
    141          1           0        4.395466   -7.317328   -2.945504
    142          1           0        1.264509   -4.722914    2.898867
    143          1           0        0.487908   -2.020276    3.873249
    144          1           0       -0.945611   -4.676938    2.406566
    145          1           0       -0.563649   -3.440002    1.157517
    146          1           0       -1.017408   -2.942790    2.707519
    147          1           0        1.010917   -3.974513    5.382964
    148          1           0        1.765593   -2.460015    5.843100
    149          1           0        2.821861   -4.910205    4.633560
    150          1           0        3.531455   -3.962227    5.991008
    151          1           0        3.728009   -3.441296    4.257717
    152          1           0        4.586677    2.579165    5.237877
    153          1           0        3.174307    1.479583    5.348979
    154          1           0        3.063707    2.949025    4.299798
    155          1           0        5.943700    3.652915    0.114733
    156          1           0        9.920254    5.295165   -0.155158
    157          1           0       10.012563    3.841402   -1.339218
    158          1           0       10.350349    3.767768    0.407980
 ---------------------------------------------------------------------

 SCF Done:  E(RCAM-B3LYP) =  -4069.81131689     A.U. after   19 cycles

 Excitation energies and oscillator strengths:

 Excited State   1:      Singlet-A      1.6471 eV  752.74 nm  f=0.0022  <S**2>=0.000
     309 -> 315       -0.11220
     310 -> 316        0.12322
     311 -> 313       -0.46134
     312 -> 314        0.50994
 This state for optimization and/or second-order correction.
 Total Energy, E(TD-HF/TD-DFT) =  -4069.75078687
 Copying the excited state density for this state as the 1-particle RhoCI density.

 Excited State   2:      Singlet-A      1.7049 eV  727.20 nm  f=0.6919  <S**2>=0.000
     309 -> 315        0.13503
     310 -> 316        0.12125
     311 -> 313        0.50728
     312 -> 314        0.45895

 Excited State   3:      Singlet-A      2.1809 eV  568.51 nm  f=0.0327  <S**2>=0.000
     309 -> 313       -0.29192
     310 -> 314        0.57525
     311 -> 315        0.12024
     312 -> 316       -0.23928

 Excited State   4:      Singlet-A      2.1967 eV  564.41 nm  f=0.1469  <S**2>=0.000
     309 -> 313        0.57037
     310 -> 314        0.28716
     311 -> 315       -0.25145
     312 -> 316       -0.12921

 Excited State   5:      Singlet-A      2.3515 eV  527.26 nm  f=0.0000  <S**2>=0.000
     312 -> 313        0.70680

 The electronic state is 1-A.
 Alpha  occ. eigenvalues --  -46.87873 -46.87426 -19.26312 -19.26154 -19.19048
 Alpha  occ. eigenvalues --  -19.18957 -19.18805 -19.18522 -19.18206 -19.17788
 Alpha  occ. eigenvalues --  -14.42525 -14.42268 -14.41542 -14.41123 -14.39468
 Alpha  occ. eigenvalues --  -14.39125 -14.38660 -14.38352 -10.39111 -10.38880
 Alpha  occ. eigenvalues --  -10.35436 -10.35205 -10.34428 -10.33964 -10.31700
 Alpha  occ. eigenvalues --  -10.31588 -10.31487 -10.31073 -10.30972 -10.30814
 Alpha  occ. eigenvalues --  -10.30649 -10.30578 -10.30302 -10.30152 -10.30118
 Alpha  occ. eigenvalues --  -10.30015 -10.29925 -10.29694 -10.29635 -10.29318
 Alpha  occ. eigenvalues --  -10.29213 -10.29167 -10.28827 -10.28648 -10.28528
 Alpha  occ. eigenvalues --  -10.28523 -10.28423 -10.28197 -10.28171 -10.27947
 Alpha  occ. eigenvalues --  -10.27849 -10.27805 -10.27759 -10.27661 -10.27640
 Alpha  occ. eigenvalues --  -10.27576 -10.27542 -10.27471 -10.27452 -10.27340
 Alpha  occ. eigenvalues --  -10.27297 -10.27250 -10.27246 -10.27203 -10.27112
 Alpha  occ. eigenvalues --  -10.26800 -10.26794 -10.26531 -10.26439 -10.26364
 Alpha  occ. eigenvalues --  -10.26305 -10.26292 -10.26120 -10.25991 -10.25910
 Alpha  occ. eigenvalues --  -10.25826 -10.25701 -10.25528 -10.25514 -10.25104
 Alpha  occ. eigenvalues --  -10.25014 -10.24888 -10.24863 -10.24617 -10.24583
 Alpha  occ. eigenvalues --  -10.24445  -3.16616  -3.16175  -1.91497  -1.91084
 Alpha  occ. eigenvalues --   -1.91057  -1.90926  -1.90646  -1.90483  -1.16661
 Alpha  occ. eigenvalues --   -1.16445  -1.08662  -1.08393  -1.07199  -1.06777
 Alpha  occ. eigenvalues --   -1.06739  -1.06671  -1.04654  -1.04268  -1.03844
 Alpha  occ. eigenvalues --   -1.03431  -1.03307  -1.02800  -1.02487  -1.01871
 Alpha  occ. eigenvalues --   -0.92036  -0.91746  -0.89666  -0.89275  -0.89270
 Alpha  occ. eigenvalues --   -0.88955  -0.88419  -0.87988  -0.87935  -0.87755
 Alpha  occ. eigenvalues --   -0.87522  -0.87458  -0.87315  -0.86933  -0.85061
 Alpha  occ. eigenvalues --   -0.84799  -0.84107  -0.83647  -0.83019  -0.82756
 Alpha  occ. eigenvalues --   -0.82711  -0.82457  -0.81646  -0.81380  -0.80658
 Alpha  occ. eigenvalues --   -0.80228  -0.78854  -0.78422  -0.77333  -0.77031
 Alpha  occ. eigenvalues --   -0.76936  -0.76689  -0.75996  -0.75630  -0.75020
 Alpha  occ. eigenvalues --   -0.74551  -0.72859  -0.72459  -0.71750  -0.71351
 Alpha  occ. eigenvalues --   -0.70149  -0.69537  -0.68947  -0.68627  -0.67703
 Alpha  occ. eigenvalues --   -0.67376  -0.67284  -0.67019  -0.65372  -0.65067
 Alpha  occ. eigenvalues --   -0.64940  -0.64719  -0.64548  -0.64449  -0.64393
 Alpha  occ. eigenvalues --   -0.63975  -0.62360  -0.62066  -0.60505  -0.60132
 Alpha  occ. eigenvalues --   -0.59878  -0.59584  -0.59069  -0.58760  -0.58580
 Alpha  occ. eigenvalues --   -0.58198  -0.57637  -0.57393  -0.57313  -0.57012
 Alpha  occ. eigenvalues --   -0.56373  -0.56030  -0.55981  -0.55689  -0.55573
 Alpha  occ. eigenvalues --   -0.55456  -0.55250  -0.55020  -0.54628  -0.54275
 Alpha  occ. eigenvalues --   -0.53974  -0.53718  -0.53378  -0.53270  -0.53023
 Alpha  occ. eigenvalues --   -0.52997  -0.52937  -0.52807  -0.52699  -0.52642
 Alpha  occ. eigenvalues --   -0.52504  -0.52222  -0.51981  -0.51676  -0.51580
 Alpha  occ. eigenvalues --   -0.51470  -0.51289  -0.50975  -0.50613  -0.50318
 Alpha  occ. eigenvalues --   -0.50185  -0.49967  -0.49789  -0.49663  -0.49561
 Alpha  occ. eigenvalues --   -0.49297  -0.49267  -0.49166  -0.48991  -0.48883
 Alpha  occ. eigenvalues --   -0.48661  -0.48551  -0.48466  -0.48338  -0.48156
 Alpha  occ. eigenvalues --   -0.48139  -0.47771  -0.47399  -0.47362  -0.46988
 Alpha  occ. eigenvalues --   -0.46861  -0.46633  -0.46502  -0.46454  -0.46360
 Alpha  occ. eigenvalues --   -0.46258  -0.46038  -0.45887  -0.45817  -0.45579
 Alpha  occ. eigenvalues --   -0.45323  -0.44981  -0.44635  -0.44581  -0.44316
 Alpha  occ. eigenvalues --   -0.44291  -0.44222  -0.44155  -0.44062  -0.43915
 Alpha  occ. eigenvalues --   -0.43872  -0.43731  -0.43565  -0.43475  -0.43340
 Alpha  occ. eigenvalues --   -0.43165  -0.43109  -0.42868  -0.42723  -0.42716
 Alpha  occ. eigenvalues --   -0.42658  -0.42350  -0.42135  -0.41776  -0.41762
 Alpha  occ. eigenvalues --   -0.41620  -0.41437  -0.41265  -0.41215  -0.40977
 Alpha  occ. eigenvalues --   -0.40841  -0.40766  -0.40682  -0.40539  -0.40511
 Alpha  occ. eigenvalues --   -0.40314  -0.40278  -0.40057  -0.39651  -0.39218
 Alpha  occ. eigenvalues --   -0.38593  -0.38110  -0.37837  -0.37470  -0.37437
 Alpha  occ. eigenvalues --   -0.37338  -0.37030  -0.36987  -0.36772  -0.36559
 Alpha  occ. eigenvalues --   -0.36270  -0.35989  -0.34362  -0.34016  -0.33806
 Alpha  occ. eigenvalues --   -0.33651  -0.33259  -0.32942  -0.31341  -0.31103
 Alpha  occ. eigenvalues --   -0.31079  -0.30740  -0.30067  -0.29692  -0.29498
 Alpha  occ. eigenvalues --   -0.29380  -0.29109  -0.28949  -0.24157  -0.23798
 Alpha  occ. eigenvalues --   -0.21205  -0.20883
 Alpha virt. eigenvalues --   -0.08838  -0.08558  -0.01824  -0.01457  -0.00091
 Alpha virt. eigenvalues --    0.00179   0.02141   0.02453   0.02799   0.03500
 Alpha virt. eigenvalues --    0.04631   0.04943   0.05063   0.05378   0.06072

 Mulliken charges:
               1
     1  Mg   0.837884
     2  C   -0.002632
     3  C   -0.094333
     4  C   -0.046028
     5  C   -0.064519
     6  N   -0.256632
     7  C   -0.052624
     8  C   -0.013950
     9  C   -0.087022
    10  C    0.046422
    11  C    0.104784
    12  C    0.053640
    13  C   -0.071518
    14  H    0.035451
    15  N   -0.433529
    16  C    0.168901
    17  C   -0.177162
    18  C   -0.003291
    19  C    0.149351
    20  C    0.110332
    21  C    0.014123
    22  O   -0.248539
    23  C    0.062117
    24  N   -0.341090
    25  C    0.041272
    26  C   -0.028930
    27  C   -0.024485
    28  C    0.073219
    29  C    0.076083
    30  C    0.065662
    31  C   -0.051683
    32  N   -0.310410
    33  C    0.079497
    34  C   -0.170128
    35  C    0.008547
    36  C    0.082950
    37  C    0.127326
    38  C    0.046304
    39  O   -0.187766
    40  C   -0.005491
    41  C    0.213027
    42  O   -0.256847
    43  O   -0.304875
    44  C    0.157442
    45  H   -0.017562
    46  H   -0.016388
    47  H   -0.042076
    48  H    0.001157
    49  H   -0.004335
    50  H    0.025694
    51  H    0.016561
    52  H    0.016687
    53  H    0.010650
    54  H    0.044259
    55  H    0.018267
    56  H    0.017443
    57  H    0.005486
    58  H    0.027109
    59  H    0.039394
    60  H    0.036516
    61  H    0.037216
    62  H    0.031879
    63  H    0.016557
    64  H    0.010302
    65  H    0.023659
    66  H    0.013031
    67  H    0.004883
    68  H    0.005796
    69  H    0.002136
    70  H    0.015266
    71  H    0.019278
    72  H    0.046992
    73  H    0.047756
    74  H    0.008414
    75  H    0.046331
    76  H    0.035284
    77  H    0.043459
    78  H    0.045855
    79  H    0.054231
    80  Mg   0.838223
    81  C   -0.016347
    82  C   -0.088396
    83  C   -0.046940
    84  C   -0.063040
    85  N   -0.254470
    86  C   -0.048987
    87  C   -0.015159
    88  C   -0.090693
    89  C    0.045987
    90  C    0.114534
    91  C    0.062656
    92  C   -0.077472
    93  H    0.034346
    94  N   -0.423256
    95  C    0.162720
    96  C   -0.176014
    97  C   -0.008276
    98  C    0.151530
    99  C    0.100059
   100  C    0.014682
   101  O   -0.252683
   102  C    0.061491
   103  N   -0.349897
   104  C    0.038465
   105  C   -0.025795
   106  C   -0.033811
   107  C    0.087373
   108  C    0.082904
   109  C    0.034447
   110  C   -0.007007
   111  N   -0.324653
   112  C    0.079298
   113  C   -0.161090
   114  C    0.003447
   115  C    0.096613
   116  C    0.130740
   117  C    0.043689
   118  O   -0.187303
   119  C    0.000421
   120  C    0.211009
   121  O   -0.251498
   122  O   -0.305426
   123  C    0.152214
   124  H   -0.021189
   125  H   -0.014936
   126  H   -0.040581
   127  H   -0.000563
   128  H   -0.005299
   129  H    0.024275
   130  H    0.014387
   131  H    0.014394
   132  H    0.013662
   133  H    0.037662
   134  H    0.020556
   135  H    0.019057
   136  H    0.007985
   137  H    0.024074
   138  H    0.039175
   139  H    0.036838
   140  H    0.036075
   141  H    0.033682
   142  H    0.013457
   143  H    0.013982
   144  H    0.027723
   145  H    0.009086
   146  H   -0.003841
   147  H    0.005363
   148  H    0.002563
   149  H    0.010906
   150  H    0.017251
   151  H    0.030304
   152  H    0.045243
   153  H    0.007312
   154  H    0.051976
   155  H    0.036714
   156  H    0.043736
   157  H    0.049013
   158  H    0.053293
 Sum of Mulliken charges =  -0.00000

 Dipole moment (field-independent basis, Debye):
    X=             -3.2453    Y=             -2.1649    Z=             -7.9091  Tot=              8.8188
 Quadrupole moment (field-independent basis, Debye-Ang):
   XX=           -503.6616   YY=           -556.8846   ZZ=           -447.2716
   XY=            -12.4019   XZ=            -28.6104   YZ=            -25.7103

 Normal termination of Gaussian 16 at Fri Sep 10 00:52:25 2021.
