 Gaussian 16, Revision A.03,
 Gaussian 16:  ES64L-G16RevA.03 25-Dec-2016

 -----------------------------------
 #p cam-b3lyp/Def2SVP td=(nstates=5)
 -----------------------------------

 --------------------------------
 TDDFT excited states in gaussian
 --------------------------------
 Symbolic Z-matrix:
 Charge =  0 Multiplicity = 1

                         Standard orientation:
 ---------------------------------------------------------------------
 Center     Atomic      Atomic             Coordinates (Angstroms)
 Number     Number       Type             X           Y           Z
 ---------------------------------------------------------------------
      1         12           0       15.959694   -0.646520    0.505901
      2          6           0       16.234352    2.147118   -1.714990
      3          6           0       16.752659    1.486676    3.048290
      4          6           0       16.169306   -3.171155    2.413492
      5          6           0       16.311655   -2.708638   -2.281473
      6          7           0       16.412015    1.520296    0.536861
      7          6           0       16.425246    2.488294   -0.374168
      8          6           0       16.586064    3.911545    0.238914
      9          6           0       17.294783    3.515894    1.611203
     10          6           0       16.761194    2.102156    1.761378
     11          6           0       18.816109    3.459283    1.517056
     12          6           0       15.207456    4.611265    0.487031
     13          6           0       15.279666    6.113794    0.774339
     14          1           0       14.219745    6.974650    0.271502
     15          7           0       15.915527   -0.770069    2.477103
     16          6           0       16.256425    0.201708    3.357286
     17          6           0       16.053041   -0.377324    4.702662
     18          6           0       15.747990   -1.825228    4.533512
     19          6           0       15.960621   -1.987833    3.117982
     20          6           0       16.106595    0.430615    5.962867
     21          6           0       15.341201   -2.895191    5.496753
     22          8           0       15.352083   -4.134167    5.181487
     23          6           0       15.010018   -2.456440    6.864546
     24          7           0       16.424400   -2.652206    0.161068
     25          6           0       16.386835   -3.549515    1.152234
     26          6           0       16.475635   -4.950597    0.624009
     27          6           0       16.337019   -4.834508   -0.962517
     28          6           0       16.270812   -3.291861   -1.081369
     29          6           0       17.760585   -5.715861    0.969382
     30          6           0       15.221924   -5.674560   -1.634302
     31          6           0       13.864933   -5.151031   -1.220068
     32          7           0       16.049450   -0.371037   -1.645168
     33          6           0       16.221738   -1.367886   -2.616395
     34          6           0       16.328304   -0.687133   -3.919962
     35          6           0       16.226553    0.668243   -3.612637
     36          6           0       16.092904    0.825651   -2.203505
     37          6           0       16.554498   -1.319479   -5.174318
     38          6           0       16.224375    2.021402   -4.144437
     39          8           0       16.211721    2.508449   -5.275860
     40          6           0       16.351731    3.038812   -2.926043
     41          6           0       15.310269    4.107769   -3.115769
     42          8           0       14.094534    3.838130   -3.034217
     43          8           0       15.904683    5.310728   -3.126007
     44          6           0       14.923771    6.417898   -3.281378
     45          1           0       17.220446    2.007945    3.885784
     46          1           0       16.137439   -4.076271    3.023564
     47          1           0       16.337922   -3.291424   -3.204037
     48          1           0       17.228363    4.582388   -0.331916
     49          1           0       16.955723    4.138791    2.438705
     50          1           0       19.156142    3.574350    0.487950
     51          1           0       19.095307    2.478617    1.902848
     52          1           0       19.273092    4.186644    2.188539
     53          1           0       14.791755    4.261459    1.431960
     54          1           0       14.529927    4.436305   -0.349430
     55          1           0       16.257528    6.522147    0.517548
     56          1           0       15.199537    6.259774    1.851590
     57          1           0       16.513382    1.425139    5.784010
     58          1           0       16.835604   -0.047465    6.616851
     59          1           0       15.138800    0.476314    6.462484
     60          1           0       15.872751   -1.951166    7.299216
     61          1           0       14.656015   -3.344080    7.387640
     62          1           0       14.213199   -1.713832    6.813940
     63          1           0       15.663760   -5.566016    1.009425
     64          1           0       17.247984   -5.142473   -1.476301
     65          1           0       17.583257   -6.655390    1.493352
     66          1           0       18.398831   -5.055491    1.555766
     67          1           0       18.403062   -5.938214    0.117796
     68          1           0       15.279193   -6.711983   -1.306552
     69          1           0       15.274456   -5.667345   -2.723081
     70          1           0       13.696922   -5.641460   -0.261901
     71          1           0       13.106297   -5.443631   -1.946750
     72          1           0       13.891885   -4.076842   -1.036010
     73          1           0       15.878665   -0.841307   -5.883240
     74          1           0       16.372501   -2.392332   -5.115443
     75          1           0       17.606381   -1.082484   -5.333158
     76          1           0       17.363271    3.442324   -2.959031
     77          1           0       15.232285    7.000605   -4.149425
     78          1           0       14.878044    6.928654   -2.319379
     79          1           0       13.913963    6.129525   -3.575432
     80         12           0      -15.766041   -0.641067   -0.524225
     81          6           0      -17.158702    1.749449    1.761607
     82          6           0      -15.413053    1.917917   -2.751693
     83          6           0      -14.957301   -2.790351   -2.713720
     84          6           0      -17.255995   -3.138189    1.396744
     85          7           0      -16.258264    1.511452   -0.395149
     86          6           0      -16.726583    2.318037    0.545295
     87          6           0      -16.657431    3.827708    0.190803
     88          6           0      -16.644543    3.698515   -1.409824
     89          6           0      -16.035202    2.303867   -1.537585
     90          6           0      -18.034917    3.670236   -2.022532
     91          6           0      -15.346971    4.507190    0.722808
     92          6           0      -15.354499    6.036968    0.684217
     93          1           0      -14.676097    6.763552    1.753945
     94          7           0      -14.814897   -0.419140   -2.251830
     95          6           0      -14.756222    0.694980   -3.011171
     96          6           0      -13.952857    0.336393   -4.190235
     97          6           0      -13.680547   -1.125975   -4.145217
     98          6           0      -14.509366   -1.513981   -3.021565
     99          6           0      -13.455800    1.353440   -5.176125
    100          6           0      -12.826731   -2.028261   -4.983717
    101          8           0      -12.924577   -3.304332   -4.913731
    102          6           0      -11.939225   -1.373771   -5.956062
    103          7           0      -16.235524   -2.651764   -0.767118
    104          6           0      -15.708751   -3.367704   -1.776010
    105          6           0      -15.966576   -4.843962   -1.590023
    106          6           0      -16.569314   -4.992480   -0.116167
    107          6           0      -16.641984   -3.501181    0.278982
    108          6           0      -16.921547   -5.484532   -2.597051
    109          6           0      -15.846917   -5.977114    0.843686
    110          6           0      -14.471859   -5.449735    1.184976
    111          7           0      -16.830629   -0.731995    1.353668
    112          6           0      -17.391161   -1.876535    1.961847
    113          6           0      -18.112530   -1.419786    3.167435
    114          6           0      -17.939616   -0.027452    3.164392
    115          6           0      -17.182250    0.358583    2.025584
    116          6           0      -18.848001   -2.248706    4.060788
    117          6           0      -18.234584    1.204626    3.859868
    118          8           0      -18.767749    1.491345    4.930971
    119          6           0      -17.849519    2.423122    2.914677
    120          6           0      -17.056001    3.408930    3.727707
    121          8           0      -15.935100    3.104507    4.172146
    122          8           0      -17.651182    4.613880    3.662796
    123          6           0      -16.894961    5.627999    4.444795
    124          1           0      -15.468176    2.598170   -3.602044
    125          1           0      -14.611463   -3.584694   -3.379217
    126          1           0      -17.663736   -3.865936    2.101582
    127          1           0      -17.514150    4.408997    0.510036
    128          1           0      -15.992722    4.442189   -1.860886
    129          1           0      -18.806542    3.622586   -1.268573
    130          1           0      -18.062617    2.787963   -2.648534
    131          1           0      -18.167488    4.521859   -2.695941
    132          1           0      -14.528370    4.305550    0.019970
    133          1           0      -15.120195    4.171898    1.716168
    134          1           0      -16.361850    6.440309    0.524483
    135          1           0      -14.792271    6.364722   -0.193561
    136          1           0      -13.952884    2.321863   -5.040197
    137          1           0      -13.777164    1.020146   -6.168845
    138          1           0      -12.367908    1.448990   -5.170415
    139          1           0      -12.533422   -0.770880   -6.638644
    140          1           0      -11.345606   -2.177046   -6.396783
    141          1           0      -11.280049   -0.683058   -5.418460
    142          1           0      -15.044149   -5.408323   -1.650982
    143          1           0      -17.604625   -5.363440   -0.134827
    144          1           0      -16.474233   -6.337857   -3.140933
    145          1           0      -17.248819   -4.721154   -3.290372
    146          1           0      -17.863418   -5.837346   -2.180400
    147          1           0      -15.696366   -6.942040    0.353384
    148          1           0      -16.393442   -6.164285    1.761973
    149          1           0      -13.864732   -5.775238    0.334958
    150          1           0      -14.114315   -5.886052    2.115477
    151          1           0      -14.462372   -4.353636    1.196304
    152          1           0      -18.597743   -1.925738    5.062565
    153          1           0      -18.613655   -3.300593    3.911171
    154          1           0      -19.869386   -2.008045    3.753989
    155          1           0      -18.779052    2.854590    2.541332
    156          1           0      -17.596467    6.067792    5.160446
    157          1           0      -16.445903    6.308079    3.696750
    158          1           0      -16.114242    5.270854    5.106142
 ---------------------------------------------------------------------

 SCF Done:  E(RCAM-B3LYP) =  -4069.81178621     A.U. after   19 cycles

 Excitation energies and oscillator strengths:

 Excited State   1:      Singlet-A      1.6754 eV  740.03 nm  f=0.2398  <S**2>=0.000
     310 -> 316        0.16905
     311 -> 313        0.66809
     312 -> 314        0.15597
     310 <- 316        0.10191
 This state for optimization and/or second-order correction.
 Total Energy, E(TD-HF/TD-DFT) =  -4069.75021699
 Copying the excited state density for this state as the 1-particle RhoCI density.

 Excited State   2:      Singlet-A      1.6801 eV  737.95 nm  f=0.5384  <S**2>=0.000
     309 -> 315        0.17103
     311 -> 313       -0.15593
     312 -> 314        0.66772
     309 <- 315        0.10240

 Excited State   3:      Singlet-A      2.1862 eV  567.12 nm  f=0.0956  <S**2>=0.000
     310 -> 313        0.64212
     311 -> 316       -0.27305

 Excited State   4:      Singlet-A      2.1926 eV  565.47 nm  f=0.1045  <S**2>=0.000
     309 -> 314        0.64036
     312 -> 315       -0.27819

 Excited State   5:      Singlet-A      3.0640 eV  404.64 nm  f=0.0000  <S**2>=0.000
     312 -> 313        0.70710

 The electronic state is 1-A.
 Alpha  occ. eigenvalues --  -46.87775 -46.87660 -19.26354 -19.26269 -19.19164
 Alpha  occ. eigenvalues --  -19.19004 -19.18790 -19.18708 -19.18151 -19.18054
 Alpha  occ. eigenvalues --  -14.42498 -14.42429 -14.41428 -14.41360 -14.39381
 Alpha  occ. eigenvalues --  -14.39351 -14.38600 -14.38566 -10.39094 -10.39063
 Alpha  occ. eigenvalues --  -10.35423 -10.35385 -10.34371 -10.34231 -10.31761
 Alpha  occ. eigenvalues --  -10.31666 -10.31385 -10.31310 -10.31022 -10.30888
 Alpha  occ. eigenvalues --  -10.30549 -10.30486 -10.30398 -10.30361 -10.30185
 Alpha  occ. eigenvalues --  -10.30140 -10.29900 -10.29896 -10.29609 -10.29436
 Alpha  occ. eigenvalues --  -10.29400 -10.29233 -10.28729 -10.28720 -10.28654
 Alpha  occ. eigenvalues --  -10.28520 -10.28405 -10.28344 -10.28141 -10.28097
 Alpha  occ. eigenvalues --  -10.28001 -10.27772 -10.27706 -10.27669 -10.27562
 Alpha  occ. eigenvalues --  -10.27519 -10.27484 -10.27479 -10.27465 -10.27459
 Alpha  occ. eigenvalues --  -10.27457 -10.27428 -10.27383 -10.27376 -10.27140
 Alpha  occ. eigenvalues --  -10.27053 -10.26692 -10.26685 -10.26402 -10.26382
 Alpha  occ. eigenvalues --  -10.26215 -10.26161 -10.26138 -10.26027 -10.25998
 Alpha  occ. eigenvalues --  -10.25935 -10.25855 -10.25826 -10.25414 -10.25399
 Alpha  occ. eigenvalues --  -10.24873 -10.24812 -10.24766 -10.24730 -10.24690
 Alpha  occ. eigenvalues --  -10.24663  -3.16518  -3.16410  -1.91400  -1.91292
 Alpha  occ. eigenvalues --   -1.90986  -1.90881  -1.90828  -1.90718  -1.16647
 Alpha  occ. eigenvalues --   -1.16618  -1.08661  -1.08609  -1.07191  -1.06960
 Alpha  occ. eigenvalues --   -1.06949  -1.06626  -1.04560  -1.04495  -1.03739
 Alpha  occ. eigenvalues --   -1.03663  -1.03213  -1.03039  -1.02390  -1.02112
 Alpha  occ. eigenvalues --   -0.91988  -0.91952  -0.89498  -0.89495  -0.89168
 Alpha  occ. eigenvalues --   -0.89152  -0.88265  -0.88221  -0.87850  -0.87795
 Alpha  occ. eigenvalues --   -0.87684  -0.87652  -0.87251  -0.87116  -0.85000
 Alpha  occ. eigenvalues --   -0.84962  -0.83915  -0.83877  -0.82943  -0.82926
 Alpha  occ. eigenvalues --   -0.82651  -0.82628  -0.81598  -0.81568  -0.80576
 Alpha  occ. eigenvalues --   -0.80443  -0.78775  -0.78634  -0.77198  -0.77144
 Alpha  occ. eigenvalues --   -0.76915  -0.76900  -0.75904  -0.75840  -0.74877
 Alpha  occ. eigenvalues --   -0.74804  -0.72754  -0.72700  -0.71652  -0.71582
 Alpha  occ. eigenvalues --   -0.69885  -0.69758  -0.68852  -0.68827  -0.67620
 Alpha  occ. eigenvalues --   -0.67601  -0.67199  -0.67198  -0.65272  -0.65267
 Alpha  occ. eigenvalues --   -0.64834  -0.64771  -0.64655  -0.64601  -0.64248
 Alpha  occ. eigenvalues --   -0.64204  -0.62281  -0.62280  -0.60419  -0.60337
 Alpha  occ. eigenvalues --   -0.59797  -0.59784  -0.58993  -0.58967  -0.58483
 Alpha  occ. eigenvalues --   -0.58426  -0.57566  -0.57557  -0.57288  -0.57236
 Alpha  occ. eigenvalues --   -0.56289  -0.56204  -0.55961  -0.55888  -0.55498
 Alpha  occ. eigenvalues --   -0.55450  -0.55319  -0.55249  -0.54504  -0.54489
 Alpha  occ. eigenvalues --   -0.53913  -0.53875  -0.53277  -0.53227  -0.53201
 Alpha  occ. eigenvalues --   -0.53141  -0.52903  -0.52895  -0.52733  -0.52663
 Alpha  occ. eigenvalues --   -0.52416  -0.52401  -0.51896  -0.51888  -0.51657
 Alpha  occ. eigenvalues --   -0.51596  -0.51202  -0.51176  -0.50548  -0.50469
 Alpha  occ. eigenvalues --   -0.50009  -0.49978  -0.49896  -0.49866  -0.49493
 Alpha  occ. eigenvalues --   -0.49485  -0.49202  -0.49194  -0.49106  -0.49077
 Alpha  occ. eigenvalues --   -0.48574  -0.48560  -0.48440  -0.48424  -0.48377
 Alpha  occ. eigenvalues --   -0.48335  -0.47674  -0.47594  -0.47276  -0.47117
 Alpha  occ. eigenvalues --   -0.46776  -0.46710  -0.46554  -0.46535  -0.46338
 Alpha  occ. eigenvalues --   -0.46270  -0.46143  -0.46087  -0.45825  -0.45804
 Alpha  occ. eigenvalues --   -0.45209  -0.45180  -0.44559  -0.44515  -0.44485
 Alpha  occ. eigenvalues --   -0.44476  -0.44128  -0.44123  -0.44077  -0.44068
 Alpha  occ. eigenvalues --   -0.43999  -0.43937  -0.43555  -0.43476  -0.43386
 Alpha  occ. eigenvalues --   -0.43365  -0.43007  -0.42932  -0.42903  -0.42681
 Alpha  occ. eigenvalues --   -0.42635  -0.42553  -0.41989  -0.41965  -0.41684
 Alpha  occ. eigenvalues --   -0.41670  -0.41513  -0.41459  -0.41120  -0.40990
 Alpha  occ. eigenvalues --   -0.40848  -0.40799  -0.40720  -0.40696  -0.40550
 Alpha  occ. eigenvalues --   -0.40494  -0.40225  -0.40214  -0.39426  -0.39418
 Alpha  occ. eigenvalues --   -0.38448  -0.38351  -0.37728  -0.37654  -0.37299
 Alpha  occ. eigenvalues --   -0.37266  -0.37243  -0.37200  -0.36774  -0.36695
 Alpha  occ. eigenvalues --   -0.36218  -0.36173  -0.34265  -0.34254  -0.33865
 Alpha  occ. eigenvalues --   -0.33753  -0.33176  -0.33166  -0.31320  -0.31267
 Alpha  occ. eigenvalues --   -0.31015  -0.30973  -0.30011  -0.29958  -0.29427
 Alpha  occ. eigenvalues --   -0.29326  -0.29301  -0.29212  -0.24060  -0.24037
 Alpha  occ. eigenvalues --   -0.21117  -0.21106
 Alpha virt. eigenvalues --   -0.08792  -0.08753  -0.01728  -0.01683  -0.00036
 Alpha virt. eigenvalues --   -0.00026   0.02206   0.02220   0.03144   0.03228
 Alpha virt. eigenvalues --    0.04729   0.04738   0.05115   0.05162   0.06182

 Mulliken charges:
               1
     1  Mg   0.838727
     2  C   -0.002968
     3  C   -0.094120
     4  C   -0.045849
     5  C   -0.063941
     6  N   -0.256782
     7  C   -0.052468
     8  C   -0.014052
     9  C   -0.087000
    10  C    0.046336
    11  C    0.104819
    12  C    0.053477
    13  C   -0.071803
    14  H    0.036098
    15  N   -0.433141
    16  C    0.168445
    17  C   -0.177138
    18  C   -0.003965
    19  C    0.148722
    20  C    0.110178
    21  C    0.012318
    22  O   -0.249589
    23  C    0.062457
    24  N   -0.341125
    25  C    0.041246
    26  C   -0.028184
    27  C   -0.023965
    28  C    0.074819
    29  C    0.076180
    30  C    0.035128
    31  C   -0.004511
    32  N   -0.310446
    33  C    0.080384
    34  C   -0.169737
    35  C    0.008335
    36  C    0.082995
    37  C    0.127317
    38  C    0.046087
    39  O   -0.188529
    40  C   -0.005318
    41  C    0.212858
    42  O   -0.257101
    43  O   -0.304798
    44  C    0.157710
    45  H   -0.017595
    46  H   -0.016811
    47  H   -0.041517
    48  H    0.000905
    49  H   -0.004014
    50  H    0.025449
    51  H    0.016451
    52  H    0.016653
    53  H    0.011247
    54  H    0.044113
    55  H    0.017843
    56  H    0.017983
    57  H    0.005874
    58  H    0.026837
    59  H    0.039629
    60  H    0.037337
    61  H    0.035714
    62  H    0.031560
    63  H    0.016593
    64  H    0.009432
    65  H    0.023232
    66  H    0.012536
    67  H    0.004730
    68  H    0.006374
    69  H    0.004699
    70  H    0.008822
    71  H    0.018154
    72  H    0.028986
    73  H    0.047522
    74  H    0.009105
    75  H    0.045970
    76  H    0.035120
    77  H    0.042887
    78  H    0.046415
    79  H    0.053661
    80  Mg   0.837842
    81  C   -0.016825
    82  C   -0.087760
    83  C   -0.045458
    84  C   -0.064878
    85  N   -0.254559
    86  C   -0.049867
    87  C   -0.015079
    88  C   -0.090516
    89  C    0.045770
    90  C    0.114374
    91  C    0.062509
    92  C   -0.077907
    93  H    0.034892
    94  N   -0.423499
    95  C    0.162949
    96  C   -0.174590
    97  C   -0.007751
    98  C    0.152113
    99  C    0.099348
   100  C    0.015618
   101  O   -0.253134
   102  C    0.061171
   103  N   -0.350077
   104  C    0.037503
   105  C   -0.019839
   106  C   -0.034813
   107  C    0.088918
   108  C    0.073657
   109  C    0.034741
   110  C   -0.007686
   111  N   -0.324086
   112  C    0.078408
   113  C   -0.163173
   114  C    0.002225
   115  C    0.096175
   116  C    0.131498
   117  C    0.042356
   118  O   -0.187945
   119  C    0.000913
   120  C    0.211254
   121  O   -0.251012
   122  O   -0.305634
   123  C    0.152035
   124  H   -0.019621
   125  H   -0.015527
   126  H   -0.040488
   127  H   -0.000678
   128  H   -0.004276
   129  H    0.022430
   130  H    0.014426
   131  H    0.016302
   132  H    0.013969
   133  H    0.037669
   134  H    0.020763
   135  H    0.019641
   136  H    0.008781
   137  H    0.026196
   138  H    0.039933
   139  H    0.038268
   140  H    0.036517
   141  H    0.033983
   142  H    0.014448
   143  H    0.012384
   144  H    0.025180
   145  H    0.011635
   146  H    0.005647
   147  H    0.006273
   148  H    0.003614
   149  H    0.010982
   150  H    0.017935
   151  H    0.030109
   152  H    0.045974
   153  H    0.008499
   154  H    0.046895
   155  H    0.034995
   156  H    0.043876
   157  H    0.049512
   158  H    0.053573
 Sum of Mulliken charges =  -0.00000

 Dipole moment (field-independent basis, Debye):
    X=              1.9782    Y=              3.1609    Z=              0.0277  Tot=              3.7290
 Quadrupole moment (field-independent basis, Debye-Ang):
   XX=           -460.5284   YY=           -461.1522   ZZ=           -535.1379
   XY=              1.2967   XZ=            132.7812   YZ=              9.7549

 Normal termination of Gaussian 16 at Sun Sep 12 11:34:33 2021.
