 Gaussian 16, Revision A.03,
 Gaussian 16:  ES64L-G16RevA.03 25-Dec-2016

 -----------------------------------
 #p cam-b3lyp/Def2SVP td=(nstates=5)
 -----------------------------------

 --------------------------------
 TDDFT excited states in gaussian
 --------------------------------
 Symbolic Z-matrix:
 Charge =  0 Multiplicity = 1

                         Standard orientation:
 ---------------------------------------------------------------------
 Center     Atomic      Atomic             Coordinates (Angstroms)
 Number     Number       Type             X           Y           Z
 ---------------------------------------------------------------------
      1         12           0        4.656890   -0.429725    0.668914
      2          6           0        4.950171    2.615583   -1.189121
      3          6           0        5.068643    1.431602    3.498930
      4          6           0        4.855894   -3.144908    2.295200
      5          6           0        5.400581   -2.128755   -2.281659
      6          7           0        4.960061    1.740187    0.985480
      7          6           0        4.993352    2.807436    0.193620
      8          6           0        5.002311    4.155807    0.974125
      9          6           0        5.605801    3.641900    2.357489
     10          6           0        5.155325    2.193045    2.295716
     11          6           0        7.129715    3.680677    2.409286
     12          6           0        3.563413    4.744575    1.160288
     13          6           0        3.509197    6.204814    1.618674
     14          1           0        2.445657    7.058855    1.111876
     15          7           0        4.439025   -0.785454    2.599935
     16          6           0        4.632084    0.093899    3.612236
     17          6           0        4.344000   -0.648992    4.857949
     18          6           0        4.152351   -2.081738    4.499334
     19          6           0        4.505170   -2.065524    3.102683
     20          6           0        4.227299    0.007564    6.199241
     21          6           0        3.729974   -3.277908    5.292370
     22          8           0        3.851890   -4.468955    4.843908
     23          6           0        3.245511   -3.021247    6.660750
     24          7           0        5.283147   -2.352547    0.151042
     25          6           0        5.213599   -3.360425    1.027586
     26          6           0        5.443332   -4.682985    0.358260
     27          6           0        5.444544   -4.389770   -1.211382
     28          6           0        5.287687   -2.849831   -1.163906
     29          6           0        6.738671   -5.411395    0.742352
     30          6           0        4.454332   -5.205596   -2.079902
     31          6           0        3.033217   -4.809794   -1.746929
     32          7           0        4.926617    0.100233   -1.418533
     33          6           0        5.253492   -0.765024   -2.472647
     34          6           0        5.434790    0.068499   -3.675327
     35          6           0        5.215627    1.370885   -3.230802
     36          6           0        4.942212    1.354623   -1.833207
     37          6           0        5.817269   -0.399200   -4.963505
     38          6           0        5.173081    2.774808   -3.606366
     39          8           0        5.232840    3.389525   -4.672220
     40          6           0        5.119709    3.648038   -2.275785
     41          6           0        4.031804    4.672790   -2.447995
     42          8           0        2.834250    4.328832   -2.518163
     43          8           0        4.543725    5.899608   -2.265249
     44          6           0        3.510276    6.961569   -2.393220
     45          1           0        5.421519    1.876230    4.431520
     46          1           0        4.827740   -4.115595    2.794611
     47          1           0        5.550488   -2.597180   -3.256112
     48          1           0        5.648814    4.923258    0.548124
     49          1           0        5.151258    4.143980    3.211320
     50          1           0        7.555031    3.934011    1.438282
     51          1           0        7.436335    2.678485    2.709435
     52          1           0        7.473564    4.348504    3.199572
     53          1           0        3.086228    4.264159    2.014428
     54          1           0        2.979146    4.631657    0.246392
     55          1           0        4.477437    6.693719    1.507353
     56          1           0        3.320381    6.219025    2.692148
     57          1           0        4.582181    1.037096    6.173424
     58          1           0        4.922780   -0.502863    6.865183
     59          1           0        3.216582   -0.058982    6.602174
     60          1           0        4.029058   -2.523539    7.232493
     61          1           0        2.904190   -3.982186    7.044086
     62          1           0        2.409401   -2.322897    6.614118
     63          1           0        4.641818   -5.383121    0.590233
     64          1           0        6.417460   -4.584760   -1.663142
     65          1           0        6.576231   -6.414147    1.138340
     66          1           0        7.274904   -4.790036    1.459052
     67          1           0        7.470391   -5.496749   -0.060591
     68          1           0        4.549578   -6.269509   -1.865513
     69          1           0        4.606659   -5.068073   -3.150479
     70          1           0        2.810198   -5.417543   -0.870724
     71          1           0        2.366007   -5.056688   -2.573419
     72          1           0        2.971917   -3.764701   -1.442777
     73          1           0        5.179691    0.120683   -5.678476
     74          1           0        5.701991   -1.479960   -5.042701
     75          1           0        6.861336   -0.087598   -4.989673
     76          1           0        6.101046    4.107797   -2.162999
     77          1           0        3.858455    7.658017   -3.156087
     78          1           0        3.342156    7.352880   -1.389719
     79          1           0        2.553263    6.654366   -2.816412
     80         12           0       -4.244524   -0.885902   -0.505914
     81          6           0       -6.899668    1.393282    0.290701
     82          6           0       -2.357660    1.833998   -1.328403
     83          6           0       -2.048857   -2.876054   -1.639832
     84          6           0       -6.651573   -3.397006   -0.720858
     85          7           0       -4.683008    1.281882   -0.479380
     86          6           0       -5.704982    2.033750   -0.099105
     87          6           0       -5.404715    3.556259   -0.062179
     88          6           0       -4.192342    3.587859   -1.114804
     89          6           0       -3.683492    2.157913   -0.944546
     90          6           0       -4.648889    3.764260   -2.553475
     91          6           0       -4.945311    4.040627    1.357808
     92          6           0       -4.933195    5.559175    1.546513
     93          1           0       -5.295231    6.101074    2.853324
     94          7           0       -2.320496   -0.590465   -0.892446
     95          6           0       -1.719835    0.582335   -1.184039
     96          6           0       -0.301002    0.263371   -1.406203
     97          6           0       -0.143803   -1.216325   -1.383920
     98          6           0       -1.531967   -1.628023   -1.323962
     99          6           0        0.759865    1.317826   -1.533080
    100          6           0        1.056612   -2.112742   -1.424464
    101          8           0        0.949414   -3.372550   -1.634747
    102          6           0        2.367713   -1.458554   -1.303845
    103          7           0       -4.356043   -2.803114   -1.302290
    104          6           0       -3.244778   -3.464403   -1.670673
    105          6           0       -3.543132   -4.917533   -1.953145
    106          6           0       -5.047186   -5.150634   -1.462159
    107          6           0       -5.403694   -3.707030   -1.044653
    108          6           0       -3.411340   -5.352191   -3.412633
    109          6           0       -5.284281   -6.295673   -0.439751
    110          6           0       -4.637754   -5.949317    0.882157
    111          7           0       -6.357335   -1.055136   -0.087060
    112          6           0       -7.175259   -2.191317   -0.272007
    113          6           0       -8.560680   -1.786283    0.042573
    114          6           0       -8.455172   -0.425854    0.369069
    115          6           0       -7.102747   -0.007246    0.245754
    116          6           0       -9.710764   -2.620781   -0.041397
    117          6           0       -9.182000    0.753878    0.779720
    118          8           0      -10.340890    0.984813    1.122334
    119          6           0       -8.227168    2.015111    0.624908
    120          6           0       -8.322369    2.827503    1.887235
    121          8           0       -7.914537    2.366452    2.967837
    122          8           0       -8.675598    4.087629    1.574678
    123          6           0       -8.772305    4.934974    2.793063
    124          1           0       -1.760291    2.598278   -1.826309
    125          1           0       -1.314408   -3.630843   -1.930265
    126          1           0       -7.444580   -4.146104   -0.669234
    127          1           0       -6.214326    4.187457   -0.408446
    128          1           0       -3.429177    4.302160   -0.816952
    129          1           0       -5.724155    3.720643   -2.643154
    130          1           0       -4.189864    2.956870   -3.108863
    131          1           0       -4.236920    4.688315   -2.969094
    132          1           0       -3.875545    3.827566    1.480038
    133          1           0       -5.539609    3.585726    2.126248
    134          1           0       -5.480845    6.077865    0.750280
    135          1           0       -3.905206    5.913935    1.439763
    136          1           0        0.322253    2.313611   -1.675589
    137          1           0        1.296496    1.120722   -2.467445
    138          1           0        1.472506    1.300040   -0.705741
    139          1           0        2.483979   -0.732315   -2.104798
    140          1           0        3.096775   -2.270219   -1.264528
    141          1           0        2.393174   -0.896737   -0.363463
    142          1           0       -2.884407   -5.564686   -1.387128
    143          1           0       -5.713256   -5.409508   -2.298324
    144          1           0       -2.700877   -6.187996   -3.556675
    145          1           0       -3.112152   -4.493478   -3.998836
    146          1           0       -4.343045   -5.646438   -3.892781
    147          1           0       -4.808981   -7.216815   -0.785792
    148          1           0       -6.333458   -6.516988   -0.274708
    149          1           0       -3.595921   -6.248435    0.733200
    150          1           0       -5.097757   -6.511306    1.692475
    151          1           0       -4.648557   -4.866702    1.053863
    152          1           0      -10.301017   -2.427494    0.844460
    153          1           0       -9.435531   -3.670800   -0.115395
    154          1           0      -10.155867   -2.246859   -0.967309
    155          1           0       -8.563164    2.575106   -0.248642
    156          1           0       -9.776324    5.370400    2.800542
    157          1           0       -7.919211    5.637005    2.737192
    158          1           0       -8.751497    4.434904    3.754289
 ---------------------------------------------------------------------

 SCF Done:  E(RCAM-B3LYP) =  -4069.78991336     A.U. after   17 cycles

 Excitation energies and oscillator strengths:

 Excited State   1:      Singlet-A      1.6378 eV  757.02 nm  f=0.3135  <S**2>=0.000
     309 -> 315        0.11715
     310 -> 316        0.11387
     311 -> 313       -0.48095
     312 -> 314        0.49100
 This state for optimization and/or second-order correction.
 Total Energy, E(TD-HF/TD-DFT) =  -4069.72972557
 Copying the excited state density for this state as the 1-particle RhoCI density.

 Excited State   2:      Singlet-A      1.6893 eV  733.94 nm  f=0.4818  <S**2>=0.000
     309 -> 315       -0.12820
     310 -> 316        0.11914
     311 -> 313        0.48839
     312 -> 314        0.47939

 Excited State   3:      Singlet-A      2.1733 eV  570.50 nm  f=0.0059  <S**2>=0.000
     309 -> 313        0.52709
     310 -> 314       -0.37112
     311 -> 315        0.21873
     312 -> 316        0.15020

 Excited State   4:      Singlet-A      2.1908 eV  565.93 nm  f=0.1638  <S**2>=0.000
     309 -> 313        0.36574
     310 -> 314        0.52377
     311 -> 315        0.16376
     312 -> 316       -0.22087

 Excited State   5:      Singlet-A      2.2617 eV  548.19 nm  f=0.0002  <S**2>=0.000
     312 -> 313        0.70419

 The electronic state is 1-A.
 Alpha  occ. eigenvalues --  -46.88088 -46.87444 -19.26928 -19.26240 -19.19841
 Alpha  occ. eigenvalues --  -19.19041 -19.18989 -19.18572 -19.18511 -19.17853
 Alpha  occ. eigenvalues --  -14.42742 -14.42282 -14.41527 -14.41132 -14.39665
 Alpha  occ. eigenvalues --  -14.39147 -14.38719 -14.38383 -10.39791 -10.38965
 Alpha  occ. eigenvalues --  -10.35613 -10.35478 -10.34753 -10.34036 -10.32271
 Alpha  occ. eigenvalues --  -10.31773 -10.31680 -10.31204 -10.31057 -10.30936
 Alpha  occ. eigenvalues --  -10.30800 -10.30773 -10.30233 -10.30113 -10.30097
 Alpha  occ. eigenvalues --  -10.30083 -10.29959 -10.29911 -10.29738 -10.29352
 Alpha  occ. eigenvalues --  -10.29182 -10.29134 -10.29120 -10.28987 -10.28626
 Alpha  occ. eigenvalues --  -10.28561 -10.28510 -10.28453 -10.28159 -10.28040
 Alpha  occ. eigenvalues --  -10.27995 -10.27889 -10.27882 -10.27748 -10.27715
 Alpha  occ. eigenvalues --  -10.27696 -10.27588 -10.27362 -10.27361 -10.27282
 Alpha  occ. eigenvalues --  -10.27250 -10.27181 -10.27160 -10.27152 -10.26989
 Alpha  occ. eigenvalues --  -10.26876 -10.26547 -10.26519 -10.26512 -10.26442
 Alpha  occ. eigenvalues --  -10.26319 -10.26056 -10.26031 -10.26001 -10.25735
 Alpha  occ. eigenvalues --  -10.25703 -10.25664 -10.25311 -10.25245 -10.25122
 Alpha  occ. eigenvalues --  -10.24991 -10.24716 -10.24642 -10.24592 -10.24498
 Alpha  occ. eigenvalues --  -10.22141  -3.16799  -3.16195  -1.91690  -1.91264
 Alpha  occ. eigenvalues --   -1.91108  -1.91078  -1.90666  -1.90503  -1.17288
 Alpha  occ. eigenvalues --   -1.16531  -1.09004  -1.08472  -1.07376  -1.07374
 Alpha  occ. eigenvalues --   -1.07341  -1.06824  -1.04883  -1.04272  -1.03974
 Alpha  occ. eigenvalues --   -1.03483  -1.03457  -1.02824  -1.02623  -1.01890
 Alpha  occ. eigenvalues --   -0.92304  -0.91776  -0.89578  -0.89386  -0.89300
 Alpha  occ. eigenvalues --   -0.88928  -0.88135  -0.88050  -0.88023  -0.87846
 Alpha  occ. eigenvalues --   -0.87578  -0.87513  -0.87439  -0.86834  -0.85299
 Alpha  occ. eigenvalues --   -0.84804  -0.83748  -0.83724  -0.83005  -0.82961
 Alpha  occ. eigenvalues --   -0.82590  -0.82500  -0.81906  -0.81439  -0.80826
 Alpha  occ. eigenvalues --   -0.80294  -0.79028  -0.78328  -0.77416  -0.77023
 Alpha  occ. eigenvalues --   -0.76865  -0.76726  -0.76165  -0.75566  -0.74726
 Alpha  occ. eigenvalues --   -0.74592  -0.72954  -0.72447  -0.71878  -0.71372
 Alpha  occ. eigenvalues --   -0.69619  -0.69503  -0.69140  -0.68548  -0.67899
 Alpha  occ. eigenvalues --   -0.67539  -0.67424  -0.67078  -0.65613  -0.65155
 Alpha  occ. eigenvalues --   -0.65075  -0.64820  -0.64576  -0.64508  -0.64033
 Alpha  occ. eigenvalues --   -0.63897  -0.62553  -0.62113  -0.60637  -0.60279
 Alpha  occ. eigenvalues --   -0.60025  -0.59574  -0.59187  -0.58791  -0.58711
 Alpha  occ. eigenvalues --   -0.58212  -0.58023  -0.57381  -0.57349  -0.57155
 Alpha  occ. eigenvalues --   -0.56608  -0.56349  -0.56060  -0.55826  -0.55735
 Alpha  occ. eigenvalues --   -0.55595  -0.55418  -0.55102  -0.54594  -0.54357
 Alpha  occ. eigenvalues --   -0.54230  -0.53765  -0.53529  -0.53498  -0.53412
 Alpha  occ. eigenvalues --   -0.53246  -0.53017  -0.52981  -0.52799  -0.52716
 Alpha  occ. eigenvalues --   -0.52297  -0.52105  -0.51947  -0.51912  -0.51696
 Alpha  occ. eigenvalues --   -0.51669  -0.51077  -0.50959  -0.50712  -0.50518
 Alpha  occ. eigenvalues --   -0.50206  -0.50111  -0.49802  -0.49667  -0.49520
 Alpha  occ. eigenvalues --   -0.49477  -0.49377  -0.49124  -0.49068  -0.48934
 Alpha  occ. eigenvalues --   -0.48891  -0.48694  -0.48507  -0.48378  -0.48285
 Alpha  occ. eigenvalues --   -0.48133  -0.47769  -0.47491  -0.47260  -0.46987
 Alpha  occ. eigenvalues --   -0.46885  -0.46740  -0.46528  -0.46474  -0.46317
 Alpha  occ. eigenvalues --   -0.46126  -0.46067  -0.45911  -0.45774  -0.45646
 Alpha  occ. eigenvalues --   -0.45075  -0.45004  -0.44817  -0.44673  -0.44536
 Alpha  occ. eigenvalues --   -0.44358  -0.44319  -0.44296  -0.44081  -0.43927
 Alpha  occ. eigenvalues --   -0.43864  -0.43845  -0.43751  -0.43392  -0.43352
 Alpha  occ. eigenvalues --   -0.43260  -0.43162  -0.42838  -0.42760  -0.42665
 Alpha  occ. eigenvalues --   -0.42397  -0.42368  -0.41906  -0.41796  -0.41619
 Alpha  occ. eigenvalues --   -0.41471  -0.41347  -0.41296  -0.41133  -0.41041
 Alpha  occ. eigenvalues --   -0.40967  -0.40783  -0.40595  -0.40507  -0.40359
 Alpha  occ. eigenvalues --   -0.40287  -0.40074  -0.39627  -0.39263  -0.38698
 Alpha  occ. eigenvalues --   -0.38214  -0.38187  -0.38007  -0.37602  -0.37485
 Alpha  occ. eigenvalues --   -0.37238  -0.37077  -0.37008  -0.36754  -0.36637
 Alpha  occ. eigenvalues --   -0.36074  -0.36044  -0.34528  -0.34379  -0.34042
 Alpha  occ. eigenvalues --   -0.33725  -0.33392  -0.32954  -0.31510  -0.31246
 Alpha  occ. eigenvalues --   -0.30798  -0.30586  -0.30320  -0.29766  -0.29684
 Alpha  occ. eigenvalues --   -0.29506  -0.29072  -0.28978  -0.24331  -0.23817
 Alpha  occ. eigenvalues --   -0.21397  -0.20878
 Alpha virt. eigenvalues --   -0.09060  -0.08564  -0.02036  -0.01562  -0.00319
 Alpha virt. eigenvalues --   -0.00005   0.01802   0.02312   0.03316   0.03712
 Alpha virt. eigenvalues --    0.04411   0.04478   0.04936   0.05297   0.05769

 Mulliken charges:
               1
     1  Mg   0.719207
     2  C   -0.004497
     3  C   -0.093622
     4  C   -0.044935
     5  C   -0.048129
     6  N   -0.250090
     7  C   -0.059679
     8  C   -0.012877
     9  C   -0.087075
    10  C    0.048601
    11  C    0.104690
    12  C    0.052227
    13  C   -0.071732
    14  H    0.034013
    15  N   -0.425585
    16  C    0.170803
    17  C   -0.177005
    18  C   -0.002536
    19  C    0.151949
    20  C    0.109929
    21  C    0.013792
    22  O   -0.246702
    23  C    0.061999
    24  N   -0.327408
    25  C    0.047291
    26  C   -0.025574
    27  C   -0.010613
    28  C    0.039724
    29  C    0.077698
    30  C    0.053691
    31  C    0.080443
    32  N   -0.304842
    33  C    0.060847
    34  C   -0.171043
    35  C    0.011318
    36  C    0.072053
    37  C    0.128219
    38  C    0.040598
    39  O   -0.188724
    40  C   -0.005368
    41  C    0.216405
    42  O   -0.262821
    43  O   -0.302689
    44  C    0.157424
    45  H   -0.017359
    46  H   -0.014624
    47  H   -0.043149
    48  H    0.001036
    49  H   -0.003605
    50  H    0.025962
    51  H    0.017481
    52  H    0.017432
    53  H    0.011672
    54  H    0.040464
    55  H    0.019238
    56  H    0.019419
    57  H    0.006233
    58  H    0.028044
    59  H    0.041226
    60  H    0.037322
    61  H    0.037181
    62  H    0.032379
    63  H    0.019825
    64  H    0.006152
    65  H    0.023192
    66  H    0.009991
    67  H    0.004888
    68  H   -0.004988
    69  H   -0.004577
    70  H   -0.009856
    71  H    0.016948
    72  H   -0.043299
    73  H    0.045488
    74  H    0.011598
    75  H    0.046437
    76  H    0.036621
    77  H    0.044917
    78  H    0.047497
    79  H    0.051234
    80  Mg   0.837258
    81  C   -0.016601
    82  C   -0.087191
    83  C   -0.048689
    84  C   -0.065362
    85  N   -0.254172
    86  C   -0.050740
    87  C   -0.015126
    88  C   -0.089896
    89  C    0.044115
    90  C    0.114239
    91  C    0.062627
    92  C   -0.077162
    93  H    0.032868
    94  N   -0.423497
    95  C    0.159895
    96  C   -0.182679
    97  C    0.013866
    98  C    0.153908
    99  C    0.101660
   100  C    0.039841
   101  O   -0.257847
   102  C    0.065095
   103  N   -0.350386
   104  C    0.038235
   105  C   -0.019958
   106  C   -0.034579
   107  C    0.088820
   108  C    0.073710
   109  C    0.034938
   110  C   -0.007498
   111  N   -0.323817
   112  C    0.077710
   113  C   -0.164018
   114  C    0.002075
   115  C    0.095414
   116  C    0.131667
   117  C    0.041778
   118  O   -0.189100
   119  C    0.001029
   120  C    0.211191
   121  O   -0.251611
   122  O   -0.305474
   123  C    0.152291
   124  H   -0.012091
   125  H   -0.017651
   126  H   -0.041306
   127  H   -0.001156
   128  H   -0.003292
   129  H    0.021514
   130  H    0.015759
   131  H    0.017210
   132  H    0.013716
   133  H    0.036919
   134  H    0.020929
   135  H    0.019230
   136  H    0.019558
   137  H    0.038025
   138  H    0.047263
   139  H    0.072027
   140  H    0.047673
   141  H    0.044302
   142  H    0.013629
   143  H    0.012025
   144  H    0.023536
   145  H    0.011902
   146  H    0.005772
   147  H    0.005523
   148  H    0.003390
   149  H    0.010890
   150  H    0.017539
   151  H    0.030334
   152  H    0.045199
   153  H    0.007948
   154  H    0.046391
   155  H    0.034853
   156  H    0.043566
   157  H    0.049236
   158  H    0.053015
 Sum of Mulliken charges =  -0.00000

 Dipole moment (field-independent basis, Debye):
    X=              4.5667    Y=              3.0905    Z=              2.1182  Tot=              5.9070
 Quadrupole moment (field-independent basis, Debye-Ang):
   XX=           -551.9658   YY=           -468.8396   ZZ=           -511.5763
   XY=             13.5923   XZ=             39.5661   YZ=             34.1815

 Normal termination of Gaussian 16 at Thu Sep  9 13:07:53 2021.
