 Gaussian 16, Revision A.03,
 Gaussian 16:  ES64L-G16RevA.03 25-Dec-2016

 -----------------------------------
 #p cam-b3lyp/Def2SVP td=(nstates=5)
 -----------------------------------

 --------------------------------
 TDDFT excited states in gaussian
 --------------------------------
 Symbolic Z-matrix:
 Charge =  0 Multiplicity = 1

                         Standard orientation:
 ---------------------------------------------------------------------
 Center     Atomic      Atomic             Coordinates (Angstroms)
 Number     Number       Type             X           Y           Z
 ---------------------------------------------------------------------
      1         12           0        5.126337   -1.026625    0.279476
      2          6           0        5.721670    1.679932   -1.985991
      3          6           0        6.479148    0.923757    2.730798
      4          6           0        5.029827   -3.553814    2.192751
      5          6           0        4.890553   -3.110268   -2.504136
      6          7           0        5.957741    1.024882    0.252421
      7          6           0        6.072755    1.977716   -0.667389
      8          6           0        6.530750    3.347760   -0.083786
      9          6           0        7.261256    2.828180    1.234696
     10          6           0        6.497959    1.531650    1.440393
     11          6           0        8.736452    2.501788    1.025489
     12          6           0        5.321761    4.281105    0.261097
     13          6           0        5.681861    5.745899    0.525788
     14          1           0        4.756405    6.783244    0.095912
     15          7           0        5.212675   -1.146116    2.249531
     16          6           0        5.787611   -0.253182    3.090604
     17          6           0        5.588619   -0.790678    4.453756
     18          6           0        5.018891   -2.160595    4.324026
     19          6           0        5.089690   -2.354316    2.898250
     20          6           0        5.881757   -0.008898    5.697396
     21          6           0        4.503662   -3.143819    5.326993
     22          8           0        4.269789   -4.363992    5.025240
     23          6           0        4.361984   -2.657113    6.711221
     24          7           0        5.199091   -3.081988   -0.078047
     25          6           0        5.078938   -3.961164    0.922751
     26          6           0        4.876301   -5.354103    0.404487
     27          6           0        4.638907   -5.210526   -1.168021
     28          6           0        4.839102   -3.680410   -1.298169
     29          6           0        6.027408   -6.337004    0.659182
     30          6           0        3.343896   -5.836561   -1.743732
     31          6           0        2.137565   -5.080927   -1.232967
     32          7           0        5.097902   -0.765220   -1.875032
     33          6           0        5.014968   -1.773961   -2.845721
     34          6           0        5.140278   -1.119251   -4.160908
     35          6           0        5.305089    0.231668   -3.861408
     36          6           0        5.310359    0.406228   -2.447975
     37          6           0        5.153260   -1.778089   -5.421939
     38          6           0        5.502642    1.565135   -4.406107
     39          8           0        5.489791    2.049966   -5.538479
     40          6           0        5.902212    2.540013   -3.212046
     41          6           0        5.055952    3.777925   -3.333399
     42          8           0        3.821581    3.728893   -3.156511
     43          8           0        5.852209    4.855802   -3.401930
     44          6           0        5.074790    6.120431   -3.494059
     45          1           0        7.095181    1.350913    3.524512
     46          1           0        4.884560   -4.440568    2.813237
     47          1           0        4.741731   -3.685703   -3.419658
     48          1           0        7.236247    3.895150   -0.709136
     49          1           0        7.103031    3.499076    2.078844
     50          1           0        9.011337    2.557471   -0.027724
     51          1           0        8.865671    1.485946    1.399469
     52          1           0        9.365761    3.134151    1.652278
     53          1           0        4.924427    4.008161    1.238691
     54          1           0        4.561613    4.232073   -0.519349
     55          1           0        6.694051    5.974307    0.190810
     56          1           0        5.712074    5.900653    1.604370
     57          1           0        6.443910    0.897792    5.477302
     58          1           0        6.562258   -0.611095    6.299049
     59          1           0        4.978857    0.206978    6.268798
     60          1           0        5.331650   -2.314857    7.073377
     61          1           0        3.897101   -3.469041    7.269349
     62          1           0        3.708408   -1.784312    6.713460
     63          1           0        4.000031   -5.816208    0.857299
     64          1           0        5.438332   -5.674310   -1.746380
     65          1           0        5.726692   -7.231461    1.205280
     66          1           0        6.816087   -5.802596    1.188033
     67          1           0        6.552668   -6.667734   -0.236439
     68          1           0        3.240832   -6.868554   -1.410093
     69          1           0        3.312959   -5.835622   -2.833362
     70          1           0        1.959244   -5.536401   -0.259531
     71          1           0        1.285375   -5.231594   -1.896505
     72          1           0        2.369161   -4.029259   -1.063134
     73          1           0        4.520718   -1.185111   -6.082422
     74          1           0        4.788481   -2.801540   -5.337757
     75          1           0        6.215135   -1.731769   -5.663044
     76          1           0        6.963796    2.757002   -3.326400
     77          1           0        5.414293    6.641417   -4.389350
     78          1           0        5.194748    6.628339   -2.536957
     79          1           0        4.010219    6.017390   -3.707155
     80         12           0       -5.284573    0.862476    0.736311
     81          6           0       -5.656291   -1.748635   -1.697413
     82          6           0       -4.144775    2.850530   -1.790165
     83          6           0       -4.522323    3.032889    2.921643
     84          6           0       -5.350794   -1.608313    3.193247
     85          7           0       -4.985295    0.485929   -1.422597
     86          6           0       -5.219201   -0.524904   -2.245924
     87          6           0       -5.047603   -0.182209   -3.750139
     88          6           0       -4.042785    1.061487   -3.600316
     89          6           0       -4.433317    1.523680   -2.197986
     90          6           0       -2.579121    0.653406   -3.578405
     91          6           0       -6.398159    0.248297   -4.422945
     92          6           0       -6.367530    0.298446   -5.952097
     93          1           0       -7.570220   -0.086735   -6.685355
     94          7           0       -4.924768    2.804896    0.546277
     95          6           0       -4.488487    3.447492   -0.557349
     96          6           0       -4.362305    4.862567   -0.175493
     97          6           0       -4.601749    4.976411    1.288886
     98          6           0       -4.673279    3.575804    1.653962
     99          6           0       -4.121412    5.956646   -1.174692
    100          6           0       -4.730612    6.151218    2.210533
    101          8           0       -4.699592    6.014154    3.484530
    102          6           0       -4.800335    7.476392    1.577661
    103          7           0       -4.767954    0.719708    2.745054
    104          6           0       -4.535840    1.822006    3.479216
    105          6           0       -4.454690    1.490551    4.950255
    106          6           0       -4.923038   -0.033582    5.073704
    107          6           0       -5.117038   -0.360743    3.576798
    108          6           0       -3.077868    1.653339    5.593872
    109          6           0       -6.090452   -0.333966    6.053283
    110          6           0       -7.370093    0.282455    5.535666
    111          7           0       -5.651903   -1.265902    0.792273
    112          6           0       -5.604264   -2.110274    1.923145
    113          6           0       -5.810655   -3.492253    1.443619
    114          6           0       -5.942140   -3.357460    0.053282
    115          6           0       -5.805755   -1.990471   -0.310358
    116          6           0       -5.808458   -4.662846    2.253466
    117          6           0       -6.154700   -4.062005   -1.190548
    118          8           0       -6.421401   -5.223500   -1.496406
    119          6           0       -5.852957   -3.067095   -2.392837
    120          6           0       -6.981867   -3.176563   -3.380820
    121          8           0       -8.130525   -2.814637   -3.070669
    122          8           0       -6.480173   -3.483904   -4.590866
    123          6           0       -7.560553   -3.592563   -5.607126
    124          1           0       -3.562873    3.484248   -2.460004
    125          1           0       -4.368015    3.753682    3.727943
    126          1           0       -5.482503   -2.423721    3.907697
    127          1           0       -4.587324   -0.962610   -4.344196
    128          1           0       -4.260729    1.835646   -4.331448
    129          1           0       -2.460418   -0.419516   -3.548321
    130          1           0       -2.161002    1.105416   -2.688516
    131          1           0       -2.049465    1.104022   -4.422648
    132          1           0       -6.585658    1.307372   -4.203948
    133          1           0       -7.203401   -0.381534   -4.098105
    134          1           0       -5.487163   -0.210009   -6.363643
    135          1           0       -6.245742    1.338945   -6.262815
    136          1           0       -3.822969    5.552306   -2.149794
    137          1           0       -3.243573    6.515062   -0.831996
    138          1           0       -4.966309    6.643439   -1.259168
    139          1           0       -3.907930    7.637388    0.977532
    140          1           0       -4.980160    8.180308    2.392552
    141          1           0       -5.650788    7.489898    0.886900
    142          1           0       -5.129516    2.113179    5.524760
    143          1           0       -4.110644   -0.681544    5.434266
    144          1           0       -3.079150    2.343460    6.458629
    145          1           0       -2.385050    1.994482    4.836148
    146          1           0       -2.613721    0.728319    5.931669
    147          1           0       -5.896243    0.124766    7.025912
    148          1           0       -6.250039   -1.393543    6.223072
    149          1           0       -7.300756    1.319249    5.878229
    150          1           0       -8.236628   -0.217524    5.963659
    151          1           0       -7.384377    0.297680    4.439667
    152          1           0       -6.637054   -5.273501    1.920264
    153          1           0       -5.895059   -4.415847    3.309526
    154          1           0       -4.824023   -5.069136    2.006319
    155          1           0       -4.897334   -3.360584   -2.828977
    156          1           0       -7.471681   -4.583415   -6.063215
    157          1           0       -7.433415   -2.718337   -6.272941
    158          1           0       -8.583680   -3.614878   -5.250530
 ---------------------------------------------------------------------

 SCF Done:  E(RCAM-B3LYP) =  -4069.81233787     A.U. after   19 cycles

 Excitation energies and oscillator strengths:

 Excited State   1:      Singlet-A      1.6719 eV  741.58 nm  f=0.3197  <S**2>=0.000
     310 -> 316        0.15068
     311 -> 313        0.32819
     312 -> 314        0.60243
 This state for optimization and/or second-order correction.
 Total Energy, E(TD-HF/TD-DFT) =  -4069.75089710
 Copying the excited state density for this state as the 1-particle RhoCI density.

 Excited State   2:      Singlet-A      1.6796 eV  738.19 nm  f=0.3812  <S**2>=0.000
     309 -> 315        0.15402
     311 -> 313        0.60201
     312 -> 314       -0.32817

 Excited State   3:      Singlet-A      2.1853 eV  567.37 nm  f=0.1010  <S**2>=0.000
     310 -> 314        0.64263
     312 -> 316       -0.27154

 Excited State   4:      Singlet-A      2.1926 eV  565.47 nm  f=0.0969  <S**2>=0.000
     309 -> 313        0.64081
     311 -> 315       -0.27792

 Excited State   5:      Singlet-A      2.4768 eV  500.59 nm  f=0.0000  <S**2>=0.000
     312 -> 313        0.70709

 The electronic state is 1-A.
 Alpha  occ. eigenvalues --  -46.87894 -46.87484 -19.26497 -19.26205 -19.19242
 Alpha  occ. eigenvalues --  -19.19014 -19.18904 -19.18592 -19.18316 -19.17899
 Alpha  occ. eigenvalues --  -14.42549 -14.42298 -14.41539 -14.41194 -14.39500
 Alpha  occ. eigenvalues --  -14.39177 -14.38694 -14.38428 -10.39291 -10.38942
 Alpha  occ. eigenvalues --  -10.35536 -10.35271 -10.34537 -10.34076 -10.31911
 Alpha  occ. eigenvalues --  -10.31621 -10.31513 -10.31090 -10.31011 -10.30821
 Alpha  occ. eigenvalues --  -10.30678 -10.30610 -10.30282 -10.30241 -10.30177
 Alpha  occ. eigenvalues --  -10.30012 -10.29981 -10.29752 -10.29736 -10.29347
 Alpha  occ. eigenvalues --  -10.29259 -10.29239 -10.28861 -10.28664 -10.28473
 Alpha  occ. eigenvalues --  -10.28466 -10.28433 -10.28225 -10.28218 -10.27902
 Alpha  occ. eigenvalues --  -10.27828 -10.27827 -10.27823 -10.27686 -10.27561
 Alpha  occ. eigenvalues --  -10.27544 -10.27513 -10.27498 -10.27445 -10.27414
 Alpha  occ. eigenvalues --  -10.27309 -10.27305 -10.27304 -10.27290 -10.27260
 Alpha  occ. eigenvalues --  -10.26891 -10.26829 -10.26495 -10.26471 -10.26326
 Alpha  occ. eigenvalues --  -10.26309 -10.26194 -10.26107 -10.26053 -10.25969
 Alpha  occ. eigenvalues --  -10.25770 -10.25704 -10.25567 -10.25474 -10.25366
 Alpha  occ. eigenvalues --  -10.24949 -10.24879 -10.24703 -10.24686 -10.24648
 Alpha  occ. eigenvalues --  -10.24535  -3.16637  -3.16233  -1.91519  -1.91116
 Alpha  occ. eigenvalues --   -1.91105  -1.90948  -1.90704  -1.90541  -1.16845
 Alpha  occ. eigenvalues --   -1.16498  -1.08782  -1.08509  -1.07304  -1.06860
 Alpha  occ. eigenvalues --   -1.06848  -1.06799  -1.04683  -1.04297  -1.03853
 Alpha  occ. eigenvalues --   -1.03487  -1.03334  -1.02874  -1.02510  -1.01941
 Alpha  occ. eigenvalues --   -0.92091  -0.91812  -0.89591  -0.89355  -0.89293
 Alpha  occ. eigenvalues --   -0.88882  -0.88352  -0.88099  -0.87984  -0.87770
 Alpha  occ. eigenvalues --   -0.87627  -0.87489  -0.87367  -0.86957  -0.85088
 Alpha  occ. eigenvalues --   -0.84776  -0.84002  -0.83768  -0.83048  -0.82799
 Alpha  occ. eigenvalues --   -0.82757  -0.82451  -0.81732  -0.81434  -0.80715
 Alpha  occ. eigenvalues --   -0.80275  -0.78896  -0.78463  -0.77310  -0.77047
 Alpha  occ. eigenvalues --   -0.76960  -0.76709  -0.76043  -0.75615  -0.74975
 Alpha  occ. eigenvalues --   -0.74677  -0.72873  -0.72524  -0.71770  -0.71395
 Alpha  occ. eigenvalues --   -0.69952  -0.69645  -0.68978  -0.68616  -0.67748
 Alpha  occ. eigenvalues --   -0.67440  -0.67328  -0.67008  -0.65399  -0.65060
 Alpha  occ. eigenvalues --   -0.64970  -0.64727  -0.64599  -0.64473  -0.64343
 Alpha  occ. eigenvalues --   -0.64067  -0.62451  -0.62126  -0.60530  -0.60189
 Alpha  occ. eigenvalues --   -0.59910  -0.59563  -0.59089  -0.58824  -0.58612
 Alpha  occ. eigenvalues --   -0.58262  -0.57738  -0.57405  -0.57395  -0.57096
 Alpha  occ. eigenvalues --   -0.56423  -0.56140  -0.56029  -0.55721  -0.55626
 Alpha  occ. eigenvalues --   -0.55439  -0.55288  -0.55121  -0.54641  -0.54360
 Alpha  occ. eigenvalues --   -0.54004  -0.53660  -0.53398  -0.53334  -0.53070
 Alpha  occ. eigenvalues --   -0.53045  -0.52964  -0.52853  -0.52722  -0.52482
 Alpha  occ. eigenvalues --   -0.52479  -0.52293  -0.52038  -0.51731  -0.51730
 Alpha  occ. eigenvalues --   -0.51452  -0.51307  -0.51037  -0.50654  -0.50318
 Alpha  occ. eigenvalues --   -0.50093  -0.50008  -0.49809  -0.49711  -0.49623
 Alpha  occ. eigenvalues --   -0.49333  -0.49298  -0.49208  -0.49014  -0.48873
 Alpha  occ. eigenvalues --   -0.48723  -0.48560  -0.48537  -0.48363  -0.48259
 Alpha  occ. eigenvalues --   -0.48185  -0.47794  -0.47412  -0.47394  -0.46955
 Alpha  occ. eigenvalues --   -0.46889  -0.46667  -0.46536  -0.46462  -0.46325
 Alpha  occ. eigenvalues --   -0.46269  -0.46110  -0.45959  -0.45946  -0.45656
 Alpha  occ. eigenvalues --   -0.45271  -0.45090  -0.44708  -0.44596  -0.44356
 Alpha  occ. eigenvalues --   -0.44266  -0.44242  -0.44184  -0.44134  -0.43940
 Alpha  occ. eigenvalues --   -0.43908  -0.43771  -0.43638  -0.43478  -0.43396
 Alpha  occ. eigenvalues --   -0.43197  -0.43132  -0.42877  -0.42779  -0.42737
 Alpha  occ. eigenvalues --   -0.42721  -0.42421  -0.42092  -0.41812  -0.41812
 Alpha  occ. eigenvalues --   -0.41636  -0.41501  -0.41259  -0.41239  -0.40961
 Alpha  occ. eigenvalues --   -0.40913  -0.40787  -0.40640  -0.40566  -0.40507
 Alpha  occ. eigenvalues --   -0.40345  -0.40330  -0.40016  -0.39477  -0.39316
 Alpha  occ. eigenvalues --   -0.38536  -0.38215  -0.37863  -0.37448  -0.37396
 Alpha  occ. eigenvalues --   -0.37377  -0.37112  -0.36990  -0.36883  -0.36630
 Alpha  occ. eigenvalues --   -0.36309  -0.36065  -0.34389  -0.34079  -0.33973
 Alpha  occ. eigenvalues --   -0.33711  -0.33294  -0.33001  -0.31433  -0.31150
 Alpha  occ. eigenvalues --   -0.31137  -0.30797  -0.30178  -0.29804  -0.29552
 Alpha  occ. eigenvalues --   -0.29435  -0.29163  -0.29045  -0.24182  -0.23858
 Alpha  occ. eigenvalues --   -0.21226  -0.20939
 Alpha virt. eigenvalues --   -0.08876  -0.08619  -0.01843  -0.01517  -0.00159
 Alpha virt. eigenvalues --    0.00142   0.02080   0.02360   0.03010   0.03387
 Alpha virt. eigenvalues --    0.04616   0.04900   0.04939   0.05317   0.06055

 Mulliken charges:
               1
     1  Mg   0.838710
     2  C   -0.003427
     3  C   -0.093970
     4  C   -0.045694
     5  C   -0.063836
     6  N   -0.256869
     7  C   -0.052487
     8  C   -0.014104
     9  C   -0.087070
    10  C    0.046444
    11  C    0.104741
    12  C    0.053416
    13  C   -0.071670
    14  H    0.035190
    15  N   -0.433190
    16  C    0.168640
    17  C   -0.176935
    18  C   -0.003831
    19  C    0.148858
    20  C    0.110089
    21  C    0.012302
    22  O   -0.249216
    23  C    0.062458
    24  N   -0.341178
    25  C    0.041459
    26  C   -0.028307
    27  C   -0.024031
    28  C    0.074850
    29  C    0.076066
    30  C    0.035003
    31  C   -0.004646
    32  N   -0.310236
    33  C    0.080049
    34  C   -0.170339
    35  C    0.007913
    36  C    0.082556
    37  C    0.127515
    38  C    0.045283
    39  O   -0.189372
    40  C   -0.005058
    41  C    0.212949
    42  O   -0.258784
    43  O   -0.304255
    44  C    0.158173
    45  H   -0.017328
    46  H   -0.016423
    47  H   -0.041320
    48  H    0.000825
    49  H   -0.003741
    50  H    0.025454
    51  H    0.016623
    52  H    0.016923
    53  H    0.011811
    54  H    0.043143
    55  H    0.018013
    56  H    0.018673
    57  H    0.006147
    58  H    0.027096
    59  H    0.039830
    60  H    0.037613
    61  H    0.035737
    62  H    0.031279
    63  H    0.017050
    64  H    0.009599
    65  H    0.023672
    66  H    0.012418
    67  H    0.004980
    68  H    0.007251
    69  H    0.004690
    70  H    0.009384
    71  H    0.019134
    72  H    0.027977
    73  H    0.046437
    74  H    0.009394
    75  H    0.046258
    76  H    0.035420
    77  H    0.043018
    78  H    0.046880
    79  H    0.051920
    80  Mg   0.837818
    81  C   -0.016860
    82  C   -0.086832
    83  C   -0.045934
    84  C   -0.064986
    85  N   -0.254728
    86  C   -0.049444
    87  C   -0.015180
    88  C   -0.090366
    89  C    0.045263
    90  C    0.113704
    91  C    0.062451
    92  C   -0.077721
    93  H    0.033849
    94  N   -0.423611
    95  C    0.162653
    96  C   -0.173503
    97  C   -0.008430
    98  C    0.152628
    99  C    0.099127
   100  C    0.015304
   101  O   -0.254123
   102  C    0.061312
   103  N   -0.350005
   104  C    0.037570
   105  C   -0.019666
   106  C   -0.034822
   107  C    0.088762
   108  C    0.074032
   109  C    0.034896
   110  C   -0.007562
   111  N   -0.324012
   112  C    0.078243
   113  C   -0.163389
   114  C    0.002073
   115  C    0.096114
   116  C    0.131576
   117  C    0.042000
   118  O   -0.188700
   119  C    0.001155
   120  C    0.211246
   121  O   -0.251180
   122  O   -0.305588
   123  C    0.152153
   124  H   -0.016379
   125  H   -0.016525
   126  H   -0.040853
   127  H   -0.000697
   128  H   -0.003962
   129  H    0.021116
   130  H    0.016893
   131  H    0.020822
   132  H    0.013717
   133  H    0.037020
   134  H    0.021335
   135  H    0.020019
   136  H    0.010359
   137  H    0.026570
   138  H    0.039133
   139  H    0.038294
   140  H    0.035562
   141  H    0.033964
   142  H    0.013968
   143  H    0.012209
   144  H    0.023976
   145  H    0.011467
   146  H    0.004790
   147  H    0.005461
   148  H    0.003633
   149  H    0.010583
   150  H    0.017636
   151  H    0.030522
   152  H    0.045518
   153  H    0.008243
   154  H    0.046937
   155  H    0.034808
   156  H    0.043403
   157  H    0.049864
   158  H    0.053310
 Sum of Mulliken charges =  -0.00000

 Dipole moment (field-independent basis, Debye):
    X=              5.0535    Y=              3.9620    Z=              1.8693  Tot=              6.6880
 Quadrupole moment (field-independent basis, Debye-Ang):
   XX=           -519.7887   YY=           -506.7738   ZZ=           -492.6324
   XY=            -10.9910   XZ=             30.6553   YZ=              3.2752

 Normal termination of Gaussian 16 at Sat Sep 11 02:59:51 2021.
