 Gaussian 16, Revision A.03,
 Gaussian 16:  ES64L-G16RevA.03 25-Dec-2016

 -----------------------------------
 #p cam-b3lyp/Def2SVP td=(nstates=5)
 -----------------------------------

 --------------------------------
 TDDFT excited states in gaussian
 --------------------------------
 Symbolic Z-matrix:
 Charge =  0 Multiplicity = 1

                         Standard orientation:
 ---------------------------------------------------------------------
 Center     Atomic      Atomic             Coordinates (Angstroms)
 Number     Number       Type             X           Y           Z
 ---------------------------------------------------------------------
      1         12           0        8.210556    0.397863    0.465624
      2          6           0        8.403030   -2.742433   -1.241335
      3          6           0        9.191992    1.873860   -2.450071
      4          6           0        8.487628    3.122295    2.064788
      5          6           0        8.358526   -1.386051    3.455845
      6          7           0        8.703080   -0.434938   -1.525483
      7          6           0        8.679568   -1.649387   -2.065605
      8          6           0        8.902352   -1.644179   -3.607589
      9          6           0        9.684241   -0.261443   -3.744294
     10          6           0        9.135029    0.450189   -2.520420
     11          6           0       11.195988   -0.399041   -3.595324
     12          6           0        7.553860   -1.620872   -4.403050
     13          6           0        7.670244   -1.942057   -5.895916
     14          1           0        6.598027   -2.687800   -6.537449
     15          7           0        8.281607    2.262590   -0.182907
     16          6           0        8.691850    2.680020   -1.404684
     17          6           0        8.558482    4.152722   -1.398233
     18          6           0        8.217733    4.572670   -0.010563
     19          6           0        8.342722    3.322323    0.693986
     20          6           0        8.701599    4.997258   -2.627064
     21          6           0        7.849711    5.893546    0.587750
     22          8           0        7.819365    6.082885    1.851792
     23          6           0        7.608557    6.998616   -0.357611
     24          7           0        8.617510    0.835347    2.465782
     25          6           0        8.622786    2.097345    2.908859
     26          6           0        8.654590    2.149713    4.407587
     27          6           0        8.423880    0.650773    4.907290
     28          6           0        8.378658   -0.053250    3.528676
     29          6           0        9.943757    2.702673    5.030720
     30          6           0        7.255735    0.411235    5.896471
     31          6           0        5.935519    0.654711    5.200162
     32          7           0        8.177046   -1.693514    1.045337
     33          6           0        8.273119   -2.209623    2.345751
     34          6           0        8.314188   -3.678614    2.225563
     35          6           0        8.255476   -3.916017    0.853690
     36          6           0        8.208840   -2.673330    0.159538
     37          6           0        8.453805   -4.599205    3.301414
     38          6           0        8.246141   -4.929850   -0.188382
     39          8           0        8.174963   -6.159591   -0.201197
     40          6           0        8.464220   -4.208511   -1.591214
     41          6           0        7.432836   -4.747520   -2.544643
     42          8           0        6.219431   -4.509731   -2.375906
     43          8           0        8.047271   -5.251559   -3.625825
     44          6           0        7.079058   -5.776647   -4.625326
     45          1           0        9.718177    2.420483   -3.235102
     46          1           0        8.475758    4.036200    2.662344
     47          1           0        8.319257   -2.010815    4.350038
     48          1           0        9.521564   -2.460412   -3.980100
     49          1           0        9.406390    0.275242   -4.651206
     50          1           0       11.476169   -1.407334   -3.290754
     51          1           0       11.479858    0.322765   -2.829226
     52          1           0       11.705238   -0.084594   -4.506677
     53          1           0        7.188894   -0.595489   -4.461788
     54          1           0        6.824671   -2.290694   -3.945943
     55          1           0        8.638316   -2.383534   -6.134337
     56          1           0        7.657056   -1.003042   -6.449339
     57          1           0        9.114956    4.427737   -3.458525
     58          1           0        9.459478    5.749673   -2.409809
     59          1           0        7.766256    5.485859   -2.900441
     60          1           0        8.504649    7.161672   -0.956762
     61          1           0        7.270313    7.841103    0.244599
     62          1           0        6.823716    6.702428   -1.054208
     63          1           0        7.856094    2.781894    4.793823
     64          1           0        9.296910    0.253478    5.425604
     65          1           0        9.780958    3.557612    5.687439
     66          1           0       10.627639    2.956052    4.221154
     67          1           0       10.530257    1.974073    5.589807
     68          1           0        7.313622    1.112228    6.728459
     69          1           0        7.243467   -0.596434    6.312048
     70          1           0        5.816005    1.734911    5.275771
     71          1           0        5.129786    0.135424    5.720112
     72          1           0        5.992829    0.406621    4.140137
     73          1           0        7.745730   -5.404780    3.107386
     74          1           0        8.256240   -4.120557    4.260302
     75          1           0        9.498483   -4.887649    3.186076
     76          1           0        9.479141   -4.443687   -1.910196
     77          1           0        7.345840   -6.816367   -4.815178
     78          1           0        7.099949   -5.086734   -5.469120
     79          1           0        6.048477   -5.887254   -4.286198
     80         12           0       -7.663953    0.688876    0.039452
     81          6           0      -10.250391   -1.790755    0.241521
     82          6           0       -9.832612    2.586895   -1.785117
     83          6           0       -5.270335    2.689637   -0.539329
     84          6           0       -5.387508   -1.818962    0.860565
     85          7           0       -9.745320    0.335554   -0.620331
     86          6           0      -10.646746   -0.616396   -0.431705
     87          6           0      -12.073897   -0.257823   -0.925882
     88          6           0      -11.678323    0.847589   -2.021534
     89          6           0      -10.352116    1.317219   -1.427149
     90          6           0      -11.404477    0.261109   -3.396452
     91          6           0      -12.964277    0.354147    0.211978
     92          6           0      -14.456605    0.440614   -0.115478
     93          1           0      -15.419085    0.226767    0.961728
     94          7           0       -7.687409    2.576207   -0.573740
     95          6           0       -8.657370    3.188913   -1.284412
     96          6           0       -8.189211    4.566880   -1.499356
     97          6           0       -6.791207    4.670629   -0.999822
     98          6           0       -6.515536    3.280448   -0.697311
     99          6           0       -9.070754    5.648838   -2.052231
    100          6           0       -5.852745    5.827511   -0.835201
    101          8           0       -4.603612    5.653955   -0.606384
    102          6           0       -6.421233    7.167440   -1.042335
    103          7           0       -5.603703    0.430115   -0.064191
    104          6           0       -4.785586    1.475377   -0.278737
    105          6           0       -3.343382    1.097560   -0.038544
    106          6           0       -3.384787   -0.359654    0.619019
    107          6           0       -4.905947   -0.620505    0.560601
    108          6           0       -2.447416    1.071637   -1.276676
    109          6           0       -2.655752   -0.539137    1.978786
    110          6           0       -3.371453    0.244370    3.055486
    111          7           0       -7.782646   -1.378430    0.656063
    112          6           0       -6.705838   -2.251872    0.923745
    113          6           0       -7.283123   -3.584507    1.194389
    114          6           0       -8.665235   -3.397678    1.041563
    115          6           0       -8.929095   -2.048916    0.680016
    116          6           0       -6.545908   -4.767414    1.483108
    117          6           0       -9.960185   -4.037299    1.093464
    118          8           0      -10.367388   -5.148349    1.430350
    119          6           0      -11.034578   -3.055857    0.454086
    120          6           0      -12.219649   -2.998593    1.378668
    121          8           0      -12.111295   -2.505681    2.515279
    122          8           0      -13.328825   -3.333473    0.694582
    123          6           0      -14.532575   -3.280652    1.566367
    124          1           0      -10.350235    3.161277   -2.553915
    125          1           0       -4.414772    3.364180   -0.619843
    126          1           0       -4.751272   -2.630451    1.220232
    127          1           0      -12.609708   -1.073165   -1.396961
    128          1           0      -12.398054    1.661856   -2.038785
    129          1           0      -11.405901   -0.818667   -3.381442
    130          1           0      -10.431064    0.634171   -3.686844
    131          1           0      -12.112021    0.664938   -4.126272
    132          1           0      -12.731932    1.422099    0.313172
    133          1           0      -12.826579   -0.179607    1.132181
    134          1           0      -14.721663   -0.161771   -0.992871
    135          1           0      -14.687382    1.465924   -0.414656
    136          1           0       -9.992027    5.236664   -2.482086
    137          1           0       -8.543437    6.085081   -2.907506
    138          1           0       -9.277008    6.436883   -1.324833
    139          1           0       -6.836011    7.232633   -2.045412
    140          1           0       -5.620278    7.866354   -0.793569
    141          1           0       -7.256736    7.304359   -0.346775
    142          1           0       -2.874493    1.783453    0.656292
    143          1           0       -2.911750   -1.112469   -0.028540
    144          1           0       -1.564979    1.733458   -1.190811
    145          1           0       -3.045096    1.344404   -2.136285
    146          1           0       -2.075265    0.087676   -1.556895
    147          1           0       -1.642508   -0.133896    1.921644
    148          1           0       -2.571237   -1.574950    2.290148
    149          1           0       -2.971139    1.255169    2.932505
    150          1           0       -3.137534   -0.155724    4.039987
    151          1           0       -4.448835    0.290277    2.858508
    152          1           0       -7.057335   -5.261820    2.298278
    153          1           0       -5.513536   -4.539672    1.740251
    154          1           0       -6.625223   -5.285697    0.523750
    155          1           0      -11.299134   -3.453668   -0.526383
    156          1           0      -15.012553   -4.262444    1.508129
    157          1           0      -15.119038   -2.411539    1.213585
    158          1           0      -14.374248   -3.185654    2.634244
 ---------------------------------------------------------------------

 SCF Done:  E(RCAM-B3LYP) =  -4069.81187438     A.U. after   19 cycles

 Excitation energies and oscillator strengths:

 Excited State   1:      Singlet-A      1.6693 eV  742.74 nm  f=0.0200  <S**2>=0.000
     309 -> 315       -0.10184
     310 -> 316        0.13907
     311 -> 313       -0.40412
     312 -> 314        0.55480
 This state for optimization and/or second-order correction.
 Total Energy, E(TD-HF/TD-DFT) =  -4069.75052902
 Copying the excited state density for this state as the 1-particle RhoCI density.

 Excited State   2:      Singlet-A      1.6855 eV  735.59 nm  f=0.7355  <S**2>=0.000
     309 -> 315        0.14316
     310 -> 316        0.10371
     311 -> 313        0.55397
     312 -> 314        0.40358

 Excited State   3:      Singlet-A      2.1856 eV  567.29 nm  f=0.1046  <S**2>=0.000
     310 -> 314        0.64212
     312 -> 316       -0.27267

 Excited State   4:      Singlet-A      2.1932 eV  565.31 nm  f=0.0976  <S**2>=0.000
     309 -> 313        0.64014
     311 -> 315       -0.27848

 Excited State   5:      Singlet-A      2.7696 eV  447.66 nm  f=0.0000  <S**2>=0.000
     312 -> 313        0.70695

 The electronic state is 1-A.
 Alpha  occ. eigenvalues --  -46.87805 -46.87578 -19.26306 -19.26290 -19.19098
 Alpha  occ. eigenvalues --  -19.19047 -19.18796 -19.18651 -19.18178 -19.17975
 Alpha  occ. eigenvalues --  -14.42457 -14.42419 -14.41456 -14.41269 -14.39407
 Alpha  occ. eigenvalues --  -14.39272 -14.38597 -14.38516 -10.39104 -10.39027
 Alpha  occ. eigenvalues --  -10.35428 -10.35330 -10.34400 -10.34153 -10.31704
 Alpha  occ. eigenvalues --  -10.31701 -10.31415 -10.31230 -10.30952 -10.30913
 Alpha  occ. eigenvalues --  -10.30578 -10.30513 -10.30313 -10.30277 -10.30208
 Alpha  occ. eigenvalues --  -10.30046 -10.29928 -10.29797 -10.29634 -10.29355
 Alpha  occ. eigenvalues --  -10.29320 -10.29256 -10.28758 -10.28657 -10.28607
 Alpha  occ. eigenvalues --  -10.28553 -10.28370 -10.28329 -10.28124 -10.28077
 Alpha  occ. eigenvalues --  -10.27920 -10.27797 -10.27733 -10.27592 -10.27584
 Alpha  occ. eigenvalues --  -10.27504 -10.27468 -10.27450 -10.27411 -10.27410
 Alpha  occ. eigenvalues --  -10.27405 -10.27389 -10.27381 -10.27253 -10.27171
 Alpha  occ. eigenvalues --  -10.26979 -10.26721 -10.26637 -10.26370 -10.26370
 Alpha  occ. eigenvalues --  -10.26238 -10.26193 -10.26025 -10.25979 -10.25968
 Alpha  occ. eigenvalues --  -10.25851 -10.25836 -10.25738 -10.25430 -10.25267
 Alpha  occ. eigenvalues --  -10.24839 -10.24792 -10.24792 -10.24710 -10.24604
 Alpha  occ. eigenvalues --  -10.24598  -3.16548  -3.16328  -1.91430  -1.91210
 Alpha  occ. eigenvalues --   -1.91017  -1.90859  -1.90798  -1.90635  -1.16655
 Alpha  occ. eigenvalues --   -1.16583  -1.08638  -1.08583  -1.07196  -1.06905
 Alpha  occ. eigenvalues --   -1.06883  -1.06668  -1.04588  -1.04418  -1.03766
 Alpha  occ. eigenvalues --   -1.03580  -1.03240  -1.02951  -1.02418  -1.02026
 Alpha  occ. eigenvalues --   -0.91981  -0.91908  -0.89526  -0.89390  -0.89196
 Alpha  occ. eigenvalues --   -0.89084  -0.88292  -0.88108  -0.87877  -0.87703
 Alpha  occ. eigenvalues --   -0.87679  -0.87602  -0.87266  -0.87052  -0.84989
 Alpha  occ. eigenvalues --   -0.84930  -0.83944  -0.83763  -0.82953  -0.82858
 Alpha  occ. eigenvalues --   -0.82651  -0.82582  -0.81598  -0.81522  -0.80602
 Alpha  occ. eigenvalues --   -0.80368  -0.78795  -0.78559  -0.77224  -0.77065
 Alpha  occ. eigenvalues --   -0.76944  -0.76816  -0.75932  -0.75768  -0.74902
 Alpha  occ. eigenvalues --   -0.74701  -0.72780  -0.72612  -0.71677  -0.71496
 Alpha  occ. eigenvalues --   -0.69916  -0.69634  -0.68878  -0.68756  -0.67644
 Alpha  occ. eigenvalues --   -0.67522  -0.67223  -0.67137  -0.65296  -0.65201
 Alpha  occ. eigenvalues --   -0.64862  -0.64685  -0.64629  -0.64576  -0.64276
 Alpha  occ. eigenvalues --   -0.64097  -0.62312  -0.62202  -0.60438  -0.60260
 Alpha  occ. eigenvalues --   -0.59811  -0.59726  -0.58994  -0.58907  -0.58510
 Alpha  occ. eigenvalues --   -0.58341  -0.57597  -0.57480  -0.57313  -0.57146
 Alpha  occ. eigenvalues --   -0.56313  -0.56123  -0.55992  -0.55818  -0.55517
 Alpha  occ. eigenvalues --   -0.55384  -0.55349  -0.55149  -0.54536  -0.54392
 Alpha  occ. eigenvalues --   -0.53903  -0.53847  -0.53299  -0.53222  -0.53146
 Alpha  occ. eigenvalues --   -0.53070  -0.52925  -0.52827  -0.52748  -0.52608
 Alpha  occ. eigenvalues --   -0.52448  -0.52274  -0.51923  -0.51787  -0.51619
 Alpha  occ. eigenvalues --   -0.51595  -0.51205  -0.51116  -0.50555  -0.50410
 Alpha  occ. eigenvalues --   -0.50035  -0.49912  -0.49908  -0.49764  -0.49514
 Alpha  occ. eigenvalues --   -0.49420  -0.49218  -0.49132  -0.49102  -0.49030
 Alpha  occ. eigenvalues --   -0.48602  -0.48485  -0.48463  -0.48438  -0.48274
 Alpha  occ. eigenvalues --   -0.48272  -0.47697  -0.47517  -0.47297  -0.47038
 Alpha  occ. eigenvalues --   -0.46804  -0.46619  -0.46562  -0.46484  -0.46365
 Alpha  occ. eigenvalues --   -0.46183  -0.46171  -0.45991  -0.45833  -0.45739
 Alpha  occ. eigenvalues --   -0.45205  -0.45108  -0.44586  -0.44504  -0.44441
 Alpha  occ. eigenvalues --   -0.44396  -0.44149  -0.44093  -0.44054  -0.44020
 Alpha  occ. eigenvalues --   -0.43986  -0.43872  -0.43506  -0.43475  -0.43391
 Alpha  occ. eigenvalues --   -0.43307  -0.43033  -0.42859  -0.42817  -0.42713
 Alpha  occ. eigenvalues --   -0.42667  -0.42450  -0.42020  -0.41868  -0.41711
 Alpha  occ. eigenvalues --   -0.41588  -0.41541  -0.41381  -0.41146  -0.40909
 Alpha  occ. eigenvalues --   -0.40876  -0.40811  -0.40658  -0.40621  -0.40578
 Alpha  occ. eigenvalues --   -0.40385  -0.40242  -0.40169  -0.39451  -0.39302
 Alpha  occ. eigenvalues --   -0.38475  -0.38245  -0.37758  -0.37588  -0.37326
 Alpha  occ. eigenvalues --   -0.37272  -0.37167  -0.37126  -0.36731  -0.36698
 Alpha  occ. eigenvalues --   -0.36204  -0.36125  -0.34293  -0.34170  -0.33796
 Alpha  occ. eigenvalues --   -0.33794  -0.33194  -0.33092  -0.31327  -0.31209
 Alpha  occ. eigenvalues --   -0.31040  -0.30891  -0.30039  -0.29880  -0.29450
 Alpha  occ. eigenvalues --   -0.29328  -0.29252  -0.29130  -0.24088  -0.23953
 Alpha  occ. eigenvalues --   -0.21133  -0.21033
 Alpha virt. eigenvalues --   -0.08778  -0.08712  -0.01754  -0.01599  -0.00053
 Alpha virt. eigenvalues --    0.00040   0.02194   0.02290   0.03090   0.03304
 Alpha virt. eigenvalues --    0.04709   0.04805   0.05076   0.05230   0.06165

 Mulliken charges:
               1
     1  Mg   0.838258
     2  C   -0.003113
     3  C   -0.094076
     4  C   -0.045846
     5  C   -0.064011
     6  N   -0.256801
     7  C   -0.052596
     8  C   -0.013954
     9  C   -0.087017
    10  C    0.046322
    11  C    0.104787
    12  C    0.053449
    13  C   -0.071801
    14  H    0.035975
    15  N   -0.433229
    16  C    0.168459
    17  C   -0.177015
    18  C   -0.003829
    19  C    0.148714
    20  C    0.110145
    21  C    0.012497
    22  O   -0.249406
    23  C    0.062359
    24  N   -0.341085
    25  C    0.041218
    26  C   -0.028228
    27  C   -0.023946
    28  C    0.074659
    29  C    0.076125
    30  C    0.035159
    31  C   -0.004545
    32  N   -0.310389
    33  C    0.080136
    34  C   -0.169945
    35  C    0.008323
    36  C    0.082709
    37  C    0.127365
    38  C    0.045916
    39  O   -0.188510
    40  C   -0.005277
    41  C    0.212982
    42  O   -0.257572
    43  O   -0.304686
    44  C    0.157713
    45  H   -0.017492
    46  H   -0.016638
    47  H   -0.041516
    48  H    0.000962
    49  H   -0.003971
    50  H    0.025501
    51  H    0.016503
    52  H    0.016728
    53  H    0.011209
    54  H    0.043824
    55  H    0.017963
    56  H    0.018064
    57  H    0.005852
    58  H    0.026931
    59  H    0.039939
    60  H    0.037234
    61  H    0.036058
    62  H    0.031904
    63  H    0.016688
    64  H    0.009546
    65  H    0.023384
    66  H    0.012582
    67  H    0.004802
    68  H    0.006594
    69  H    0.004717
    70  H    0.009077
    71  H    0.017771
    72  H    0.028604
    73  H    0.047385
    74  H    0.009077
    75  H    0.046104
    76  H    0.035241
    77  H    0.043072
    78  H    0.046456
    79  H    0.053455
    80  Mg   0.837681
    81  C   -0.017003
    82  C   -0.087983
    83  C   -0.045563
    84  C   -0.064654
    85  N   -0.254571
    86  C   -0.049830
    87  C   -0.015094
    88  C   -0.090469
    89  C    0.045722
    90  C    0.114432
    91  C    0.062559
    92  C   -0.077799
    93  H    0.034752
    94  N   -0.423412
    95  C    0.162850
    96  C   -0.174871
    97  C   -0.007973
    98  C    0.152098
    99  C    0.099473
   100  C    0.015415
   101  O   -0.253295
   102  C    0.061234
   103  N   -0.350071
   104  C    0.037544
   105  C   -0.019945
   106  C   -0.035169
   107  C    0.088833
   108  C    0.073530
   109  C    0.034703
   110  C   -0.007750
   111  N   -0.324154
   112  C    0.078471
   113  C   -0.162900
   114  C    0.002205
   115  C    0.096288
   116  C    0.131450
   117  C    0.042441
   118  O   -0.187867
   119  C    0.000914
   120  C    0.211253
   121  O   -0.251037
   122  O   -0.305660
   123  C    0.152069
   124  H   -0.019972
   125  H   -0.015661
   126  H   -0.039566
   127  H   -0.000741
   128  H   -0.004510
   129  H    0.022438
   130  H    0.014399
   131  H    0.016031
   132  H    0.013891
   133  H    0.037683
   134  H    0.020717
   135  H    0.019484
   136  H    0.008604
   137  H    0.025784
   138  H    0.039581
   139  H    0.038002
   140  H    0.036140
   141  H    0.033894
   142  H    0.014396
   143  H    0.013713
   144  H    0.024962
   145  H    0.010998
   146  H    0.006937
   147  H    0.007087
   148  H    0.004466
   149  H    0.010789
   150  H    0.017862
   151  H    0.029631
   152  H    0.045968
   153  H    0.009236
   154  H    0.047196
   155  H    0.034935
   156  H    0.043841
   157  H    0.049393
   158  H    0.053546
 Sum of Mulliken charges =  -0.00000

 Dipole moment (field-independent basis, Debye):
    X=              1.0231    Y=              6.0224    Z=             -5.7178  Tot=              8.3671
 Quadrupole moment (field-independent basis, Debye-Ang):
   XX=           -435.7131   YY=           -551.4993   ZZ=           -474.2964
   XY=            -27.5154   XZ=             16.0813   YZ=            -11.6511

 Normal termination of Gaussian 16 at Sun Sep 12 08:47:04 2021.
