 Gaussian 16, Revision A.03,
 Gaussian 16:  ES64L-G16RevA.03 25-Dec-2016

 -----------------------------------
 #p cam-b3lyp/Def2SVP td=(nstates=5)
 -----------------------------------

 --------------------------------
 TDDFT excited states in gaussian
 --------------------------------
 Symbolic Z-matrix:
 Charge =  0 Multiplicity = 1

                         Standard orientation:
 ---------------------------------------------------------------------
 Center     Atomic      Atomic             Coordinates (Angstroms)
 Number     Number       Type             X           Y           Z
 ---------------------------------------------------------------------
      1         12           0        3.909396    1.327354    0.763690
      2          6           0        4.884041   -1.888419   -0.469633
      3          6           0        4.977298    2.624897   -2.205996
      4          6           0        3.481517    4.217421    1.996999
      5          6           0        3.988629   -0.041162    3.967835
      6          7           0        4.797298    0.385617   -1.032252
      7          6           0        5.063198   -0.863483   -1.401327
      8          6           0        5.478902   -0.990431   -2.897472
      9          6           0        6.009661    0.493621   -3.138057
     10          6           0        5.187552    1.218928   -2.087347
     11          6           0        7.489267    0.671679   -2.813149
     12          6           0        4.262694   -1.321536   -3.826418
     13          6           0        4.627151   -1.781614   -5.240933
     14          1           0        3.799090   -2.790416   -5.884348
     15          7           0        3.726322    3.083894   -0.121692
     16          6           0        4.209076    3.431548   -1.338807
     17          6           0        3.812658    4.840849   -1.547150
     18          6           0        3.225226    5.341358   -0.273373
     19          6           0        3.481432    4.227954    0.604162
     20          6           0        3.958846    5.551606   -2.857571
     21          6           0        2.550839    6.624317    0.097236
     22          8           0        2.323640    6.946712    1.313384
     23          6           0        2.238700    7.546114   -1.009969
     24          7           0        3.968658    2.060637    2.717256
     25          6           0        3.688955    3.341450    2.982337
     26          6           0        3.516705    3.569264    4.454876
     27          6           0        3.497393    2.120937    5.126985
     28          6           0        3.758526    1.269380    3.860127
     29          6           0        4.593447    4.430530    5.129307
     30          6           0        2.273636    1.772132    6.010824
     31          6           0        1.032478    1.672307    5.152535
     32          7           0        4.178843   -0.650475    1.616119
     33          6           0        4.197408   -0.986457    2.977532
     34          6           0        4.517866   -2.423109    3.063599
     35          6           0        4.680838   -2.821985    1.738389
     36          6           0        4.501068   -1.699562    0.880402
     37          6           0        4.680861   -3.170168    4.263503
     38          6           0        4.989300   -3.930025    0.849033
     39          8           0        5.143286   -5.143307    0.996436
     40          6           0        5.253298   -3.344448   -0.608099
     41          6           0        4.468112   -4.179393   -1.582603
     42          8           0        3.220259   -4.165443   -1.576742
     43          8           0        5.297934   -4.673501   -2.514158
     44          6           0        4.577793   -5.487797   -3.529280
     45          1           0        5.493329    3.170750   -2.998269
     46          1           0        3.227882    5.173383    2.459864
     47          1           0        3.947349   -0.555649    4.929632
     48          1           0        6.278025   -1.707060   -3.087917
     49          1           0        5.759252    0.858949   -4.133824
     50          1           0        7.904879   -0.221163   -2.346222
     51          1           0        7.536840    1.517432   -2.126905
     52          1           0        8.046984    0.973677   -3.700012
     53          1           0        3.729537   -0.400617   -4.062457
     54          1           0        3.613342   -2.064359   -3.361789
     55          1           0        5.681525   -2.049812   -5.313559
     56          1           0        4.516550   -0.932460   -5.915398
     57          1           0        4.572115    4.982879   -3.555421
     58          1           0        4.534070    6.457246   -2.666147
     59          1           0        2.994075    5.813844   -3.292059
     60          1           0        3.160537    7.811697   -1.527879
     61          1           0        1.679102    8.369317   -0.567209
     62          1           0        1.616915    7.025074   -1.738564
     63          1           0        2.574178    4.073163    4.665007
     64          1           0        4.353266    1.963359    5.783739
     65          1           0        4.195625    5.306320    5.642567
     66          1           0        5.319289    4.718720    4.369444
     67          1           0        5.224396    3.898920    5.841143
     68          1           0        2.096090    2.560992    6.740977
     69          1           0        2.389620    0.835440    6.556173
     70          1           0        0.711397    2.709836    5.067250
     71          1           0        0.273221    1.068334    5.650487
     72          1           0        1.270177    1.321167    4.148202
     73          1           0        4.160781   -4.115226    4.107454
     74          1           0        4.277910   -2.633329    5.122012
     75          1           0        5.766422   -3.260326    4.299351
     76          1           0        6.326574   -3.411704   -0.783245
     77          1           0        5.049946   -6.470145   -3.546515
     78          1           0        4.582887   -4.907698   -4.452246
     79          1           0        3.548989   -5.758142   -3.288833
     80         12           0       -4.851230   -0.298269   -0.456913
     81          6           0       -2.070186   -2.524263   -0.021225
     82          6           0       -2.601762    2.089060   -1.392431
     83          6           0       -7.222084    1.810014   -0.416870
     84          6           0       -6.708220   -2.445760    1.564366
     85          7           0       -2.647589   -0.333875   -0.643984
     86          6           0       -1.703611   -1.253446   -0.511209
     87          6           0       -0.299751   -0.809755   -1.003007
     88          6           0       -0.484446    0.778701   -0.856135
     89          6           0       -2.001838    0.863401   -1.007806
     90          6           0       -0.112040    1.303118    0.520694
     91          6           0       -0.030722   -1.221416   -2.493028
     92          6           0        1.426924   -1.096039   -2.941690
     93          1           0        1.951796   -2.079295   -3.885194
     94          7           0       -4.990540    1.493826   -1.298081
     95          6           0       -3.974796    2.317717   -1.630850
     96          6           0       -4.602315    3.521033   -2.198657
     97          6           0       -6.075808    3.409209   -2.022503
     98          6           0       -6.153516    2.216911   -1.202446
     99          6           0       -3.820060    4.591796   -2.902189
    100          6           0       -7.224090    4.245163   -2.500856
    101          8           0       -8.407077    4.096591   -2.030423
    102          6           0       -6.904944    5.305469   -3.468010
    103          7           0       -6.632415   -0.199615    0.610777
    104          6           0       -7.510268    0.796899    0.400375
    105          6           0       -8.831196    0.511569    1.074255
    106          6           0       -8.736743   -1.002277    1.581151
    107          6           0       -7.280342   -1.315287    1.173355
    108          6           0       -9.188064    1.420430    2.250265
    109          6           0       -9.858711   -1.971101    1.117205
    110          6           0       -9.760995   -2.197475   -0.374303
    111          7           0       -4.547354   -2.239527    0.441544
    112          6           0       -5.445423   -2.945058    1.272083
    113          6           0       -4.748305   -4.164211    1.730469
    114          6           0       -3.474950   -4.071131    1.148749
    115          6           0       -3.378011   -2.868198    0.398368
    116          6           0       -5.282488   -5.146512    2.611288
    117          6           0       -2.187174   -4.711740    1.007505
    118          8           0       -1.713881   -5.795154    1.348012
    119          6           0       -1.177668   -3.676839    0.347009
    120          6           0       -0.450099   -4.382488   -0.764399
    121          8           0       -1.063710   -4.774606   -1.772532
    122          8           0        0.875413   -4.285162   -0.554817
    123          6           0        1.640123   -4.960530   -1.636900
    124          1           0       -1.967951    2.971953   -1.480029
    125          1           0       -8.107364    2.448844   -0.457510
    126          1           0       -7.252205   -3.214499    2.117339
    127          1           0        0.524994   -1.146758   -0.386562
    128          1           0        0.009881    1.310297   -1.665089
    129          1           0        0.103685    0.502150    1.212105
    130          1           0       -0.966398    1.874855    0.858685
    131          1           0        0.714824    2.014764    0.442052
    132          1           0       -0.496240   -0.482777   -3.158200
    133          1           0       -0.382906   -2.216678   -2.682866
    134          1           0        2.110596   -0.975075   -2.092618
    135          1           0        1.536945   -0.168421   -3.508638
    136          1           0       -2.742287    4.481436   -2.730069
    137          1           0       -4.075859    5.542487   -2.421954
    138          1           0       -4.058618    4.657727   -3.965862
    139          1           0       -6.175358    5.983970   -3.032368
    140          1           0       -7.865721    5.734866   -3.758536
    141          1           0       -6.427607    4.849270   -4.342454
    142          1           0       -9.650431    0.596163    0.370835
    143          1           0       -8.776855   -1.067825    2.678386
    144          1           0      -10.155876    1.940881    2.121648
    145          1           0       -8.386954    2.135039    2.384738
    146          1           0       -9.223512    0.927822    3.220452
    147          1           0      -10.840919   -1.528465    1.300242
    148          1           0       -9.838143   -2.930114    1.624022
    149          1           0      -10.285659   -1.332104   -0.790152
    150          1           0      -10.251278   -3.127911   -0.653482
    151          1           0       -8.719669   -2.145587   -0.712861
    152          1           0       -5.014644   -6.111131    2.201096
    153          1           0       -6.360608   -5.043249    2.715103
    154          1           0       -4.754792   -4.889124    3.533543
    155          1           0       -0.498502   -3.336667    1.129700
    156          1           0        2.297394   -5.691219   -1.155466
    157          1           0        2.124634   -4.148954   -2.211637
    158          1           0        1.087241   -5.592512   -2.322020
 ---------------------------------------------------------------------

 SCF Done:  E(RCAM-B3LYP) =  -4069.61197715     A.U. after   19 cycles

 Excitation energies and oscillator strengths:

 Excited State   1:      Singlet-A      1.6356 eV  758.04 nm  f=0.0112  <S**2>=0.000
     308 -> 315        0.11533
     311 -> 313        0.54055
     312 -> 314       -0.42587
 This state for optimization and/or second-order correction.
 Total Energy, E(TD-HF/TD-DFT) =  -4069.55187042
 Copying the excited state density for this state as the 1-particle RhoCI density.

 Excited State   2:      Singlet-A      1.7050 eV  727.17 nm  f=0.6675  <S**2>=0.000
     308 -> 315        0.10004
     310 -> 316        0.13945
     311 -> 313        0.42312
     312 -> 314        0.53722

 Excited State   3:      Singlet-A      2.0343 eV  609.46 nm  f=0.0004  <S**2>=0.000
     312 -> 313        0.70434

 Excited State   4:      Singlet-A      2.1723 eV  570.76 nm  f=0.0762  <S**2>=0.000
     308 -> 313        0.25304
     309 -> 313        0.21707
     310 -> 314        0.54658
     311 -> 315       -0.13595
     312 -> 316       -0.22868

 Excited State   5:      Singlet-A      2.1816 eV  568.31 nm  f=0.1247  <S**2>=0.000
     308 -> 313        0.41398
     309 -> 313        0.35900
     310 -> 314       -0.32940
     311 -> 315       -0.23113
     312 -> 316        0.14226

 The electronic state is 1-A.
 Alpha  occ. eigenvalues --  -46.88555 -46.87084 -19.28655 -19.22878 -19.19756
 Alpha  occ. eigenvalues --  -19.19466 -19.19078 -19.18235 -19.17088 -19.16523
 Alpha  occ. eigenvalues --  -14.43173 -14.42151 -14.41958 -14.40769 -14.40146
 Alpha  occ. eigenvalues --  -14.39324 -14.38780 -14.37988 -10.40806 -10.36469
 Alpha  occ. eigenvalues --  -10.36093 -10.35319 -10.34927 -10.33511 -10.33188
 Alpha  occ. eigenvalues --  -10.32147 -10.31715 -10.31307 -10.31223 -10.30848
 Alpha  occ. eigenvalues --  -10.30706 -10.30584 -10.30389 -10.30321 -10.29933
 Alpha  occ. eigenvalues --  -10.29794 -10.29715 -10.29664 -10.29409 -10.29307
 Alpha  occ. eigenvalues --  -10.29225 -10.29165 -10.28931 -10.28806 -10.28772
 Alpha  occ. eigenvalues --  -10.28489 -10.28400 -10.28300 -10.28270 -10.28219
 Alpha  occ. eigenvalues --  -10.28116 -10.28053 -10.28003 -10.27965 -10.27794
 Alpha  occ. eigenvalues --  -10.27727 -10.27727 -10.27393 -10.27163 -10.27098
 Alpha  occ. eigenvalues --  -10.27092 -10.27034 -10.27028 -10.26928 -10.26879
 Alpha  occ. eigenvalues --  -10.26820 -10.26747 -10.26687 -10.26583 -10.26268
 Alpha  occ. eigenvalues --  -10.26062 -10.26028 -10.25889 -10.25760 -10.25715
 Alpha  occ. eigenvalues --  -10.25602 -10.25549 -10.25514 -10.25383 -10.25333
 Alpha  occ. eigenvalues --  -10.25065 -10.25009 -10.24587 -10.24357 -10.24214
 Alpha  occ. eigenvalues --  -10.24091  -3.17255  -3.15835  -1.92137  -1.91725
 Alpha  occ. eigenvalues --   -1.91567  -1.90718  -1.90306  -1.90142  -1.19363
 Alpha  occ. eigenvalues --   -1.13522  -1.11157  -1.09443  -1.07861  -1.07580
 Alpha  occ. eigenvalues --   -1.06498  -1.05325  -1.04462  -1.04187  -1.03951
 Alpha  occ. eigenvalues --   -1.03897  -1.03121  -1.03083  -1.02461  -1.01517
 Alpha  occ. eigenvalues --   -0.92949  -0.91147  -0.90199  -0.89877  -0.88921
 Alpha  occ. eigenvalues --   -0.88887  -0.88645  -0.88485  -0.88363  -0.87956
 Alpha  occ. eigenvalues --   -0.87698  -0.87213  -0.87095  -0.86625  -0.85845
 Alpha  occ. eigenvalues --   -0.84884  -0.84402  -0.83813  -0.83541  -0.83312
 Alpha  occ. eigenvalues --   -0.82810  -0.82473  -0.82021  -0.81449  -0.80581
 Alpha  occ. eigenvalues --   -0.79753  -0.79470  -0.78112  -0.77939  -0.77782
 Alpha  occ. eigenvalues --   -0.76881  -0.76667  -0.76460  -0.75656  -0.75430
 Alpha  occ. eigenvalues --   -0.74427  -0.73442  -0.72383  -0.72146  -0.71164
 Alpha  occ. eigenvalues --   -0.70423  -0.69699  -0.69355  -0.68681  -0.68415
 Alpha  occ. eigenvalues --   -0.67927  -0.67140  -0.66707  -0.66253  -0.65685
 Alpha  occ. eigenvalues --   -0.65361  -0.64924  -0.64671  -0.64305  -0.64168
 Alpha  occ. eigenvalues --   -0.63709  -0.63689  -0.61972  -0.61113  -0.60523
 Alpha  occ. eigenvalues --   -0.60021  -0.59821  -0.59361  -0.59281  -0.59230
 Alpha  occ. eigenvalues --   -0.58484  -0.58230  -0.58014  -0.57708  -0.57519
 Alpha  occ. eigenvalues --   -0.56899  -0.56746  -0.56176  -0.55779  -0.55662
 Alpha  occ. eigenvalues --   -0.55465  -0.54987  -0.54877  -0.54634  -0.54547
 Alpha  occ. eigenvalues --   -0.54051  -0.53940  -0.53643  -0.53526  -0.53286
 Alpha  occ. eigenvalues --   -0.53265  -0.52968  -0.52801  -0.52715  -0.52473
 Alpha  occ. eigenvalues --   -0.52305  -0.52250  -0.52014  -0.51927  -0.51462
 Alpha  occ. eigenvalues --   -0.51251  -0.51179  -0.51099  -0.50851  -0.50519
 Alpha  occ. eigenvalues --   -0.50511  -0.50187  -0.50084  -0.49911  -0.49678
 Alpha  occ. eigenvalues --   -0.49559  -0.49467  -0.49444  -0.49105  -0.49011
 Alpha  occ. eigenvalues --   -0.48860  -0.48681  -0.48428  -0.48278  -0.48138
 Alpha  occ. eigenvalues --   -0.47910  -0.47744  -0.47627  -0.47462  -0.47241
 Alpha  occ. eigenvalues --   -0.47221  -0.46937  -0.46870  -0.46740  -0.46226
 Alpha  occ. eigenvalues --   -0.46162  -0.45981  -0.45881  -0.45714  -0.45664
 Alpha  occ. eigenvalues --   -0.45380  -0.45164  -0.44991  -0.44830  -0.44772
 Alpha  occ. eigenvalues --   -0.44708  -0.44499  -0.44270  -0.44105  -0.44019
 Alpha  occ. eigenvalues --   -0.43920  -0.43790  -0.43654  -0.43548  -0.43386
 Alpha  occ. eigenvalues --   -0.43255  -0.43085  -0.42755  -0.42697  -0.42463
 Alpha  occ. eigenvalues --   -0.42393  -0.42167  -0.42074  -0.41816  -0.41635
 Alpha  occ. eigenvalues --   -0.41560  -0.41427  -0.41229  -0.41142  -0.41031
 Alpha  occ. eigenvalues --   -0.40853  -0.40691  -0.40548  -0.40212  -0.40077
 Alpha  occ. eigenvalues --   -0.39979  -0.39721  -0.39439  -0.39065  -0.39048
 Alpha  occ. eigenvalues --   -0.38971  -0.38592  -0.38109  -0.37929  -0.37767
 Alpha  occ. eigenvalues --   -0.37536  -0.37024  -0.36758  -0.36707  -0.35870
 Alpha  occ. eigenvalues --   -0.35637  -0.34971  -0.33946  -0.33655  -0.33250
 Alpha  occ. eigenvalues --   -0.32656  -0.32019  -0.31829  -0.31369  -0.30896
 Alpha  occ. eigenvalues --   -0.30782  -0.30200  -0.30129  -0.30037  -0.28935
 Alpha  occ. eigenvalues --   -0.28762  -0.28552  -0.25036  -0.24207  -0.23360
 Alpha  occ. eigenvalues --   -0.21816  -0.20560
 Alpha virt. eigenvalues --   -0.09504  -0.08187  -0.02470  -0.01139  -0.00792
 Alpha virt. eigenvalues --    0.00471   0.01409   0.01773   0.02867   0.02971
 Alpha virt. eigenvalues --    0.03826   0.03910   0.04824   0.05522   0.05976

 Mulliken charges:
               1
     1  Mg   0.804751
     2  C   -0.006967
     3  C   -0.093463
     4  C   -0.042564
     5  C   -0.059889
     6  N   -0.256979
     7  C   -0.057337
     8  C    0.000150
     9  C   -0.083466
    10  C    0.046728
    11  C    0.105417
    12  C    0.015203
    13  C   -0.064748
    14  H    0.036565
    15  N   -0.435056
    16  C    0.166658
    17  C   -0.178791
    18  C   -0.004598
    19  C    0.143458
    20  C    0.110272
    21  C    0.011567
    22  O   -0.247562
    23  C    0.063082
    24  N   -0.334664
    25  C    0.041119
    26  C   -0.028408
    27  C   -0.024572
    28  C    0.074227
    29  C    0.075582
    30  C    0.034479
    31  C   -0.005912
    32  N   -0.310727
    33  C    0.079802
    34  C   -0.166031
    35  C    0.012005
    36  C    0.082768
    37  C    0.125726
    38  C    0.048595
    39  O   -0.185816
    40  C   -0.010174
    41  C    0.252693
    42  O   -0.223122
    43  O   -0.291085
    44  C    0.151887
    45  H   -0.016857
    46  H   -0.015644
    47  H   -0.039274
    48  H   -0.005574
    49  H   -0.003820
    50  H    0.025764
    51  H    0.017572
    52  H    0.018032
    53  H    0.021920
    54  H    0.058873
    55  H    0.015938
    56  H    0.019691
    57  H    0.006933
    58  H    0.028535
    59  H    0.038750
    60  H    0.038832
    61  H    0.037443
    62  H    0.028979
    63  H    0.017741
    64  H    0.010837
    65  H    0.024613
    66  H    0.012997
    67  H    0.006115
    68  H    0.007964
    69  H    0.006375
    70  H    0.009293
    71  H    0.020973
    72  H    0.028190
    73  H    0.052869
    74  H    0.011150
    75  H    0.046881
    76  H    0.035451
    77  H    0.055524
    78  H    0.055941
    79  H    0.045710
    80  Mg   0.835714
    81  C   -0.013434
    82  C   -0.088355
    83  C   -0.046785
    84  C   -0.067501
    85  N   -0.253321
    86  C   -0.051180
    87  C   -0.022686
    88  C   -0.095780
    89  C    0.043694
    90  C    0.083148
    91  C    0.110225
    92  C   -0.139955
    93  H    0.047461
    94  N   -0.423145
    95  C    0.161427
    96  C   -0.175629
    97  C   -0.009369
    98  C    0.151656
    99  C    0.100439
   100  C    0.014601
   101  O   -0.254790
   102  C    0.061605
   103  N   -0.350756
   104  C    0.036916
   105  C   -0.019234
   106  C   -0.034855
   107  C    0.090150
   108  C    0.074246
   109  C    0.035071
   110  C   -0.007469
   111  N   -0.324371
   112  C    0.079815
   113  C   -0.164878
   114  C    0.004295
   115  C    0.094717
   116  C    0.131682
   117  C    0.039836
   118  O   -0.184032
   119  C    0.003892
   120  C    0.215973
   121  O   -0.259596
   122  O   -0.308543
   123  C    0.203148
   124  H   -0.021383
   125  H   -0.017342
   126  H   -0.041849
   127  H    0.006747
   128  H   -0.002184
   129  H    0.033883
   130  H    0.015940
   131  H    0.043998
   132  H    0.002406
   133  H    0.042132
   134  H    0.045869
   135  H    0.015828
   136  H    0.005273
   137  H    0.024589
   138  H    0.037138
   139  H    0.037277
   140  H    0.034848
   141  H    0.032759
   142  H    0.013389
   143  H    0.011356
   144  H    0.023882
   145  H    0.011354
   146  H    0.004366
   147  H    0.005126
   148  H    0.003125
   149  H    0.010378
   150  H    0.017080
   151  H    0.031027
   152  H    0.046572
   153  H    0.007087
   154  H    0.045608
   155  H    0.031955
   156  H   -0.016007
   157  H    0.062363
   158  H   -0.024152
 Sum of Mulliken charges =  -0.00000

 Dipole moment (field-independent basis, Debye):
    X=              6.4509    Y=              6.8914    Z=             -2.4579  Tot=              9.7543
 Quadrupole moment (field-independent basis, Debye-Ang):
   XX=           -492.4574   YY=           -559.6195   ZZ=           -465.5078
   XY=             20.0904   XZ=            -36.5606   YZ=            -11.4601

 Normal termination of Gaussian 16 at Fri Sep 10 00:51:12 2021.
