 Gaussian 16, Revision A.03,
 Gaussian 16:  ES64L-G16RevA.03 25-Dec-2016

 -----------------------------------
 #p cam-b3lyp/Def2SVP td=(nstates=5)
 -----------------------------------

 --------------------------------
 TDDFT excited states in gaussian
 --------------------------------
 Symbolic Z-matrix:
 Charge =  0 Multiplicity = 1

                         Standard orientation:
 ---------------------------------------------------------------------
 Center     Atomic      Atomic             Coordinates (Angstroms)
 Number     Number       Type             X           Y           Z
 ---------------------------------------------------------------------
      1         12           0        7.693118   -1.057891    0.220526
      2          6           0        8.058421    2.428709   -0.502238
      3          6           0        8.498289   -0.319885    3.453190
      4          6           0        7.821996   -4.175641    0.785899
      5          6           0        8.037333   -1.651313   -3.196347
      6          7           0        8.192159    0.850279    1.225760
      7          6           0        8.238722    2.124225    0.848845
      8          6           0        8.422326    3.114015    2.037953
      9          6           0        9.103781    2.124596    3.086126
     10          6           0        8.537504    0.808939    2.581841
     11          6           0       10.624635    2.077665    2.979813
     12          6           0        7.056113    3.661844    2.571878
     13          6           0        7.157235    4.871415    3.505723
     14          1           0        6.123188    5.893233    3.442606
     15          7           0        7.619843   -2.055098    1.924363
     16          6           0        7.970036   -1.593134    3.148797
     17          6           0        7.736046   -2.710800    4.088347
     18          6           0        7.401768   -3.918913    3.284100
     19          6           0        7.629757   -3.431713    1.947674
     20          6           0        7.790319   -2.558921    5.577554
     21          6           0        6.958850   -5.297330    3.660826
     22          8           0        6.946918   -6.261231    2.820989
     23          6           0        6.619013   -5.513567    5.078851
     24          7           0        8.118527   -2.704263   -0.990308
     25          6           0        8.048106   -3.950608   -0.510049
     26          6           0        8.113384   -4.965216   -1.612885
     27          6           0        7.998616   -4.143308   -2.977088
     28          6           0        7.967687   -2.711417   -2.388018
     29          6           0        9.376584   -5.836531   -1.646764
     30          6           0        6.874562   -4.561852   -3.957772
     31          6           0        5.523887   -4.246646   -3.354929
     32          7           0        7.817694    0.154776   -1.575293
     33          6           0        7.981193   -0.301642   -2.891205
     34          6           0        8.120054    0.890433   -3.747792
     35          6           0        8.043793    1.964105   -2.862774
     36          6           0        7.894732    1.473135   -1.534233
     37          6           0        8.349191    0.885478   -5.152037
     38          6           0        8.078273    3.411308   -2.727597
     39          8           0        8.091420    4.356008   -3.518080
     40          6           0        8.211456    3.767072   -1.181142
     41          6           0        7.196204    4.833063   -0.870922
     42          8           0        5.973892    4.586724   -0.922248
     43          8           0        7.816811    5.896022   -0.336594
     44          6           0        6.862464    6.979092    0.021647
     45          1           0        8.966070   -0.243959    4.436733
     46          1           0        7.762210   -5.257405    0.922463
     47          1           0        8.063242   -1.756419   -4.282503
     48          1           0        9.086706    3.953456    1.832129
     49          1           0        8.767332    2.316308    4.104836
     50          1           0       10.980864    2.635313    2.113757
     51          1           0       10.877170    1.021585    2.882782
     52          1           0       11.088339    2.412575    3.908032
     53          1           0        6.620247    2.934572    3.256827
     54          1           0        6.386201    3.899851    1.744897
     55          1           0        8.147130    5.326563    3.462634
     56          1           0        7.065876    4.518400    4.532969
     57          1           0        8.221073   -1.601211    5.867016
     58          1           0        8.499889   -3.298801    5.947414
     59          1           0        6.817141   -2.718530    6.042076
     60          1           0        7.486662   -5.280510    5.696442
     61          1           0        6.238744   -6.532328    5.144963
     62          1           0        5.839339   -4.807729    5.366687
     63          1           0        7.283180   -5.667335   -1.547953
     64          1           0        8.909450   -4.209911   -3.572588
     65          1           0        9.171787   -6.906502   -1.602882
     66          1           0       10.021170   -5.527690   -0.824319
     67          1           0       10.025415   -5.667693   -2.505793
     68          1           0        6.904780   -5.636768   -4.132669
     69          1           0        6.941830   -4.066229   -4.926320
     70          1           0        5.332384   -5.111697   -2.721016
     71          1           0        4.768856   -4.161010   -4.137110
     72          1           0        5.571803   -3.371654   -2.706410
     73          1           0        7.693519    1.648835   -5.570783
     74          1           0        8.143054   -0.093814   -5.583429
     75          1           0        9.408031    1.141688   -5.184765
     76          1           0        9.231911    4.116211   -1.026561
     77          1           0        7.195230    7.882304   -0.489929
     78          1           0        6.815002    7.002650    1.110498
     79          1           0        5.850637    6.880000   -0.372974
     80         12           0       -8.169483   -0.414427   -0.271617
     81          6           0       -6.403164    2.705117   -0.437664
     82          6           0       -8.906364    0.346562    2.970681
     83          6           0       -9.344265   -3.344794    0.045097
     84          6           0       -6.366239   -1.425610   -3.077230
     85          7           0       -7.664313    1.330487    0.990251
     86          6           0       -7.040511    2.483463    0.800930
     87          6           0       -7.171574    3.486579    1.978272
     88          6           0       -7.462163    2.436293    3.157823
     89          6           0       -8.083152    1.309726    2.334490
     90          6           0       -6.199320    1.906400    3.816438
     91          6           0       -8.370326    4.480573    1.785994
     92          6           0       -8.371026    5.678977    2.737630
     93          1           0       -8.853972    6.963631    2.238747
     94          7           0       -9.406456   -1.162117    1.088333
     95          6           0       -9.597156   -0.715960    2.347639
     96          6           0      -10.592773   -1.617679    2.947487
     97          6           0      -10.851783   -2.730946    1.994463
     98          6           0       -9.840035   -2.461100    0.992650
     99          6           0      -11.254457   -1.337813    4.265548
    100          6           0      -11.837431   -3.859968    1.992332
    101          8           0      -11.727745   -4.848032    1.183295
    102          6           0      -12.880938   -3.821198    3.027259
    103          7           0       -7.747486   -2.213299   -1.224678
    104          6           0       -8.440829   -3.328359   -0.935132
    105          6           0       -8.153259   -4.424198   -1.933550
    106          6           0       -7.303552   -3.732080   -3.098263
    107          6           0       -7.164718   -2.314185   -2.501881
    108          6           0       -7.387131   -5.631690   -1.393725
    109          6           0       -7.847343   -3.874946   -4.546207
    110          6           0       -9.142703   -3.108757   -4.688972
    111          7           0       -6.794829    0.515165   -1.655168
    112          6           0       -6.136119   -0.096935   -2.743984
    113          6           0       -5.216744    0.907437   -3.317050
    114          6           0       -5.388840    2.035819   -2.501195
    115          6           0       -6.332847    1.748007   -1.478697
    116          6           0       -4.336509    0.698278   -4.415952
    117          6           0       -4.978684    3.401523   -2.266020
    118          8           0       -4.267850    4.209911   -2.861807
    119          6           0       -5.523188    3.854818   -0.843186
    120          6           0       -6.164332    5.206395   -1.000255
    121          8           0       -7.190718    5.342863   -1.689101
    122          8           0       -5.590591    6.068750   -0.141451
    123          6           0       -6.200415    7.420680   -0.251883
    124          1           0       -9.000406    0.380408    4.056454
    125          1           0       -9.799700   -4.337795    0.042579
    126          1           0       -5.841597   -1.631633   -4.012641
    127          1           0       -6.272951    4.051194    2.196176
    128          1           0       -8.183104    2.830735    3.869173
    129          1           0       -5.308418    2.235005    3.302199
    130          1           0       -6.279954    0.827809    3.781986
    131          1           0       -6.186513    2.173936    4.876904
    132          1           0       -9.298378    3.987992    2.103514
    133          1           0       -8.420810    4.824851    0.771327
    134          1           0       -7.407106    5.802007    3.246218
    135          1           0       -9.077471    5.479031    3.546929
    136          1           0      -10.742208   -0.535240    4.810413
    137          1           0      -11.110093   -2.225623    4.890696
    138          1           0      -12.324902   -1.145223    4.166993
    139          1           0      -12.414888   -3.805686    4.009610
    140          1           0      -13.541348   -4.662428    2.808035
    141          1           0      -13.437360   -2.882481    2.928048
    142          1           0       -9.071731   -4.815440   -2.353576
    143          1           0       -6.286878   -4.146898   -3.162520
    144          1           0       -7.921330   -6.589211   -1.541527
    145          1           0       -7.185967   -5.466651   -0.343569
    146          1           0       -6.386878   -5.764388   -1.802493
    147          1           0       -8.079882   -4.920670   -4.761958
    148          1           0       -7.149447   -3.537060   -5.304996
    149          1           0       -9.887942   -3.809446   -4.300730
    150          1           0       -9.332785   -2.868859   -5.733172
    151          1           0       -9.151081   -2.225456   -4.039859
    152          1           0       -4.409261    1.575827   -5.044528
    153          1           0       -4.592316   -0.206344   -4.963662
    154          1           0       -3.384173    0.602760   -3.887565
    155          1           0       -4.673033    3.881831   -0.160488
    156          1           0       -5.385669    8.123264   -0.452540
    157          1           0       -6.773203    7.567320    0.683082
    158          1           0       -6.854065    7.608263   -1.095694
 ---------------------------------------------------------------------

 SCF Done:  E(RCAM-B3LYP) =  -4069.81146610     A.U. after   19 cycles

 Excitation energies and oscillator strengths:

 Excited State   1:      Singlet-A      1.6701 eV  742.36 nm  f=0.0920  <S**2>=0.000
     309 -> 315       -0.10503
     310 -> 316       -0.13690
     311 -> 313       -0.41644
     312 -> 314        0.54555
 This state for optimization and/or second-order correction.
 Total Energy, E(TD-HF/TD-DFT) =  -4069.75008978
 Copying the excited state density for this state as the 1-particle RhoCI density.

 Excited State   2:      Singlet-A      1.6853 eV  735.70 nm  f=0.6719  <S**2>=0.000
     309 -> 315        0.14052
     310 -> 316       -0.10672
     311 -> 313        0.54475
     312 -> 314        0.41596

 Excited State   3:      Singlet-A      2.1857 eV  567.25 nm  f=0.0489  <S**2>=0.000
     309 -> 313        0.17015
     310 -> 314        0.61971
     312 -> 316        0.26328

 Excited State   4:      Singlet-A      2.1926 eV  565.46 nm  f=0.1436  <S**2>=0.000
     309 -> 313        0.61781
     310 -> 314       -0.16902
     311 -> 315       -0.26860

 Excited State   5:      Singlet-A      2.7801 eV  445.98 nm  f=0.0000  <S**2>=0.000
     312 -> 313        0.70707

 The electronic state is 1-A.
 Alpha  occ. eigenvalues --  -46.87739 -46.87575 -19.26242 -19.26172 -19.19055
 Alpha  occ. eigenvalues --  -19.18902 -19.18775 -19.18642 -19.18087 -19.17924
 Alpha  occ. eigenvalues --  -14.42415 -14.42393 -14.41395 -14.41274 -14.39347
 Alpha  occ. eigenvalues --  -14.39267 -14.38525 -14.38509 -10.38984 -10.38967
 Alpha  occ. eigenvalues --  -10.35410 -10.35321 -10.34306 -10.34102 -10.31655
 Alpha  occ. eigenvalues --  -10.31558 -10.31343 -10.31220 -10.30945 -10.30853
 Alpha  occ. eigenvalues --  -10.30507 -10.30448 -10.30306 -10.30267 -10.30160
 Alpha  occ. eigenvalues --  -10.30065 -10.29863 -10.29804 -10.29572 -10.29355
 Alpha  occ. eigenvalues --  -10.29310 -10.29202 -10.28689 -10.28646 -10.28596
 Alpha  occ. eigenvalues --  -10.28479 -10.28316 -10.28305 -10.28070 -10.28061
 Alpha  occ. eigenvalues --  -10.27905 -10.27732 -10.27672 -10.27588 -10.27530
 Alpha  occ. eigenvalues --  -10.27458 -10.27446 -10.27443 -10.27406 -10.27402
 Alpha  occ. eigenvalues --  -10.27396 -10.27379 -10.27341 -10.27300 -10.27075
 Alpha  occ. eigenvalues --  -10.26937 -10.26640 -10.26625 -10.26387 -10.26359
 Alpha  occ. eigenvalues --  -10.26183 -10.26147 -10.26068 -10.25965 -10.25963
 Alpha  occ. eigenvalues --  -10.25849 -10.25766 -10.25712 -10.25397 -10.25326
 Alpha  occ. eigenvalues --  -10.24773 -10.24767 -10.24733 -10.24663 -10.24654
 Alpha  occ. eigenvalues --  -10.24604  -3.16482  -3.16325  -1.91364  -1.91208
 Alpha  occ. eigenvalues --   -1.90950  -1.90796  -1.90792  -1.90633  -1.16536
 Alpha  occ. eigenvalues --   -1.16520  -1.08540  -1.08528  -1.07178  -1.06895
 Alpha  occ. eigenvalues --   -1.06838  -1.06526  -1.04523  -1.04412  -1.03705
 Alpha  occ. eigenvalues --   -1.03578  -1.03176  -1.02952  -1.02353  -1.02024
 Alpha  occ. eigenvalues --   -0.91905  -0.91891  -0.89469  -0.89412  -0.89130
 Alpha  occ. eigenvalues --   -0.89078  -0.88238  -0.88141  -0.87804  -0.87687
 Alpha  occ. eigenvalues --   -0.87617  -0.87601  -0.87227  -0.87043  -0.84924
 Alpha  occ. eigenvalues --   -0.84923  -0.83886  -0.83796  -0.82928  -0.82861
 Alpha  occ. eigenvalues --   -0.82590  -0.82576  -0.81505  -0.81500  -0.80530
 Alpha  occ. eigenvalues --   -0.80354  -0.78744  -0.78550  -0.77164  -0.77064
 Alpha  occ. eigenvalues --   -0.76870  -0.76817  -0.75856  -0.75753  -0.74845
 Alpha  occ. eigenvalues --   -0.74722  -0.72716  -0.72608  -0.71614  -0.71498
 Alpha  occ. eigenvalues --   -0.69863  -0.69683  -0.68816  -0.68749  -0.67582
 Alpha  occ. eigenvalues --   -0.67514  -0.67164  -0.67127  -0.65224  -0.65190
 Alpha  occ. eigenvalues --   -0.64789  -0.64684  -0.64568  -0.64557  -0.64217
 Alpha  occ. eigenvalues --   -0.64122  -0.62212  -0.62182  -0.60394  -0.60260
 Alpha  occ. eigenvalues --   -0.59745  -0.59716  -0.58927  -0.58905  -0.58441
 Alpha  occ. eigenvalues --   -0.58335  -0.57502  -0.57447  -0.57248  -0.57150
 Alpha  occ. eigenvalues --   -0.56250  -0.56113  -0.55891  -0.55794  -0.55466
 Alpha  occ. eigenvalues --   -0.55367  -0.55276  -0.55159  -0.54450  -0.54399
 Alpha  occ. eigenvalues --   -0.53838  -0.53835  -0.53244  -0.53164  -0.53142
 Alpha  occ. eigenvalues --   -0.53058  -0.52843  -0.52816  -0.52709  -0.52599
 Alpha  occ. eigenvalues --   -0.52391  -0.52324  -0.51842  -0.51764  -0.51582
 Alpha  occ. eigenvalues --   -0.51557  -0.51130  -0.51105  -0.50536  -0.50408
 Alpha  occ. eigenvalues --   -0.49987  -0.49906  -0.49871  -0.49790  -0.49459
 Alpha  occ. eigenvalues --   -0.49411  -0.49150  -0.49114  -0.49035  -0.49014
 Alpha  occ. eigenvalues --   -0.48522  -0.48466  -0.48414  -0.48383  -0.48291
 Alpha  occ. eigenvalues --   -0.48255  -0.47639  -0.47514  -0.47242  -0.47039
 Alpha  occ. eigenvalues --   -0.46741  -0.46626  -0.46496  -0.46479  -0.46301
 Alpha  occ. eigenvalues --   -0.46185  -0.46096  -0.45992  -0.45744  -0.45719
 Alpha  occ. eigenvalues --   -0.45152  -0.45129  -0.44505  -0.44459  -0.44425
 Alpha  occ. eigenvalues --   -0.44392  -0.44092  -0.44043  -0.44033  -0.43996
 Alpha  occ. eigenvalues --   -0.43953  -0.43851  -0.43461  -0.43416  -0.43331
 Alpha  occ. eigenvalues --   -0.43301  -0.42965  -0.42837  -0.42801  -0.42634
 Alpha  occ. eigenvalues --   -0.42571  -0.42476  -0.41954  -0.41886  -0.41640
 Alpha  occ. eigenvalues --   -0.41571  -0.41477  -0.41383  -0.41084  -0.40908
 Alpha  occ. eigenvalues --   -0.40817  -0.40780  -0.40651  -0.40627  -0.40520
 Alpha  occ. eigenvalues --   -0.40414  -0.40177  -0.40159  -0.39399  -0.39352
 Alpha  occ. eigenvalues --   -0.38421  -0.38275  -0.37688  -0.37581  -0.37269
 Alpha  occ. eigenvalues --   -0.37202  -0.37186  -0.37119  -0.36672  -0.36623
 Alpha  occ. eigenvalues --   -0.36132  -0.36118  -0.34226  -0.34165  -0.33760
 Alpha  occ. eigenvalues --   -0.33663  -0.33123  -0.33088  -0.31305  -0.31201
 Alpha  occ. eigenvalues --   -0.30977  -0.30887  -0.29944  -0.29827  -0.29394
 Alpha  occ. eigenvalues --   -0.29257  -0.29241  -0.29110  -0.24022  -0.23949
 Alpha  occ. eigenvalues --   -0.21071  -0.21031
 Alpha virt. eigenvalues --   -0.08717  -0.08703  -0.01696  -0.01601  -0.00006
 Alpha virt. eigenvalues --    0.00053   0.02269   0.02313   0.03183   0.03309
 Alpha virt. eigenvalues --    0.04775   0.04807   0.05204   0.05272   0.06239

 Mulliken charges:
               1
     1  Mg   0.838816
     2  C   -0.002743
     3  C   -0.094231
     4  C   -0.045954
     5  C   -0.064025
     6  N   -0.256742
     7  C   -0.052411
     8  C   -0.014008
     9  C   -0.086972
    10  C    0.046275
    11  C    0.104859
    12  C    0.053520
    13  C   -0.071753
    14  H    0.036324
    15  N   -0.433081
    16  C    0.168304
    17  C   -0.177334
    18  C   -0.004176
    19  C    0.148630
    20  C    0.110247
    21  C    0.012141
    22  O   -0.249830
    23  C    0.062552
    24  N   -0.341117
    25  C    0.041132
    26  C   -0.028081
    27  C   -0.024018
    28  C    0.074901
    29  C    0.076214
    30  C    0.035162
    31  C   -0.004472
    32  N   -0.310593
    33  C    0.080601
    34  C   -0.169420
    35  C    0.008601
    36  C    0.083210
    37  C    0.127193
    38  C    0.046543
    39  O   -0.187808
    40  C   -0.005492
    41  C    0.212894
    42  O   -0.256295
    43  O   -0.305056
    44  C    0.157426
    45  H   -0.017806
    46  H   -0.017045
    47  H   -0.041449
    48  H    0.000993
    49  H   -0.004232
    50  H    0.025500
    51  H    0.016373
    52  H    0.016477
    53  H    0.010982
    54  H    0.044615
    55  H    0.017807
    56  H    0.017576
    57  H    0.005747
    58  H    0.026647
    59  H    0.039178
    60  H    0.037292
    61  H    0.035420
    62  H    0.031287
    63  H    0.016355
    64  H    0.009450
    65  H    0.023041
    66  H    0.012534
    67  H    0.004700
    68  H    0.006173
    69  H    0.004838
    70  H    0.008531
    71  H    0.017983
    72  H    0.029235
    73  H    0.048192
    74  H    0.009066
    75  H    0.045947
    76  H    0.035033
    77  H    0.043000
    78  H    0.046021
    79  H    0.054604
    80  Mg   0.837776
    81  C   -0.016790
    82  C   -0.087924
    83  C   -0.045600
    84  C   -0.064855
    85  N   -0.254502
    86  C   -0.049758
    87  C   -0.015086
    88  C   -0.090484
    89  C    0.045665
    90  C    0.114413
    91  C    0.062567
    92  C   -0.077735
    93  H    0.034810
    94  N   -0.423443
    95  C    0.162772
    96  C   -0.174869
    97  C   -0.007979
    98  C    0.151977
    99  C    0.099476
   100  C    0.015423
   101  O   -0.253394
   102  C    0.061265
   103  N   -0.350073
   104  C    0.037417
   105  C   -0.019772
   106  C   -0.034848
   107  C    0.089041
   108  C    0.073694
   109  C    0.034737
   110  C   -0.007637
   111  N   -0.324231
   112  C    0.078567
   113  C   -0.162937
   114  C    0.002729
   115  C    0.096133
   116  C    0.131529
   117  C    0.042883
   118  O   -0.186480
   119  C    0.000727
   120  C    0.211371
   121  O   -0.251194
   122  O   -0.305485
   123  C    0.152033
   124  H   -0.020037
   125  H   -0.015766
   126  H   -0.040294
   127  H   -0.000537
   128  H   -0.004596
   129  H    0.022712
   130  H    0.014337
   131  H    0.015756
   132  H    0.013823
   133  H    0.037786
   134  H    0.020668
   135  H    0.019351
   136  H    0.008517
   137  H    0.025818
   138  H    0.039554
   139  H    0.038090
   140  H    0.036182
   141  H    0.033817
   142  H    0.014242
   143  H    0.012503
   144  H    0.024940
   145  H    0.011600
   146  H    0.005704
   147  H    0.006110
   148  H    0.003722
   149  H    0.010820
   150  H    0.017878
   151  H    0.030163
   152  H    0.046375
   153  H    0.008226
   154  H    0.048123
   155  H    0.035658
   156  H    0.044194
   157  H    0.049095
   158  H    0.053541
 Sum of Mulliken charges =  -0.00000

 Dipole moment (field-independent basis, Debye):
    X=              1.2198    Y=             -1.4010    Z=              8.2664  Tot=              8.4725
 Quadrupole moment (field-independent basis, Debye-Ang):
   XX=           -481.6273   YY=           -530.0232   ZZ=           -466.7526
   XY=            -15.7144   XZ=             -5.5623   YZ=             58.4746

 Normal termination of Gaussian 16 at Sun Sep 12 04:32:42 2021.
