 Gaussian 16, Revision A.03,
 Gaussian 16:  ES64L-G16RevA.03 25-Dec-2016

 -----------------------------------
 #p cam-b3lyp/Def2SVP td=(nstates=5)
 -----------------------------------

 --------------------------------
 TDDFT excited states in gaussian
 --------------------------------
 Symbolic Z-matrix:
 Charge =  0 Multiplicity = 1

                         Standard orientation:
 ---------------------------------------------------------------------
 Center     Atomic      Atomic             Coordinates (Angstroms)
 Number     Number       Type             X           Y           Z
 ---------------------------------------------------------------------
      1         12           0       15.791737   -0.733515    0.211679
      2          6           0       16.024008    2.499714   -1.306376
      3          6           0       16.614717    0.759359    3.167537
      4          6           0       16.038135   -3.629323    1.480619
      5          6           0       16.109697   -2.092853   -2.981558
      6          7           0       16.236992    1.370437    0.736826
      7          6           0       16.233461    2.522913    0.074289
      8          6           0       16.398388    3.766900    0.997690
      9          6           0       17.128608    3.069482    2.231539
     10          6           0       16.602167    1.655755    2.057875
     11          6           0       18.648569    3.046460    2.106265
     12          6           0       15.021181    4.380955    1.419555
     13          6           0       15.092435    5.776794    2.045581
     14          1           0       14.022260    6.723399    1.769878
     15          7           0       15.777045   -1.309778    2.101271
     16          6           0       16.127523   -0.565560    3.177649
     17          6           0       15.945981   -1.441331    4.355251
     18          6           0       15.643465   -2.812921    3.859954
     19          6           0       15.835774   -2.642390    2.442451
     20          6           0       16.015312   -0.946316    5.767308
     21          6           0       15.254603   -4.079330    4.555027
     22          8           0       15.265110   -5.211738    3.961634
     23          6           0       14.942099   -3.970968    5.991565
     24          7           0       16.258223   -2.601935   -0.593948
     25          6           0       16.238360   -3.704332    0.163224
     26          6           0       16.324196   -4.944684   -0.675881
     27          6           0       16.161820   -4.465857   -2.190514
     28          6           0       16.088551   -2.938014   -1.948444
     29          6           0       17.616727   -5.760360   -0.534294
     30          6           0       15.039851   -5.135341   -3.023217
     31          6           0       13.687313   -4.730962   -2.480799
     32          7           0       15.848838    0.032458   -1.818363
     33          6           0       16.010233   -0.711632   -2.996054
     34          6           0       16.095232    0.252780   -4.108147
     35          6           0       15.993349    1.499652   -3.494328
     36          6           0       15.879935    1.326079   -2.085321
     37          6           0       16.305098   -0.070865   -5.477689
     38          6           0       15.978670    2.939058   -3.698663
     39          8           0       15.947668    3.674409   -4.686484
     40          6           0       16.120457    3.648029   -2.279831
     41          6           0       15.072633    4.724820   -2.203062
     42          8           0       13.859169    4.435418   -2.169634
     43          8           0       15.662681    5.901541   -1.942842
     44          6           0       14.675775    7.007976   -1.824634
     45          1           0       17.092993    1.076015    4.096473
     46          1           0       16.018381   -4.651163    1.865184
     47          1           0       16.124376   -2.446348   -4.014166
     48          1           0       17.029889    4.555876    0.588853
     49          1           0       16.799633    3.481864    3.185184
     50          1           0       18.973003    3.398647    1.127170
     51          1           0       18.936800    2.005078    2.250967
     52          1           0       19.112886    3.601930    2.921520
     53          1           0       14.620656    3.819346    2.263496
     54          1           0       14.332007    4.399559    0.574559
     55          1           0       16.064995    6.240058    1.876985
     56          1           0       15.027685    5.669199    3.128369
     57          1           0       16.415989    0.065341    5.817829
     58          1           0       16.755522   -1.557710    6.283056
     59          1           0       15.054832   -1.023918    6.277002
     60          1           0       15.809396   -3.574064    6.519592
     61          1           0       14.598904   -4.957874    6.299921
     62          1           0       14.142066   -3.242186    6.124877
     63          1           0       15.520215   -5.638015   -0.432298
     64          1           0       17.066172   -4.640517   -2.773880
     65          1           0       17.450378   -6.796757   -0.239480
     66          1           0       18.261263   -5.249164    0.180228
     67          1           0       18.247349   -5.775442   -1.422835
     68          1           0       15.105518   -6.220022   -2.945101
     69          1           0       15.076309   -4.876228   -4.081415
     70          1           0       13.535130   -5.430766   -1.659857
     71          1           0       12.919065   -4.852738   -3.245113
     72          1           0       13.713271   -3.728279   -2.053670
     73          1           0       15.617249    0.553681   -6.047579
     74          1           0       16.127688   -1.129466   -5.666087
     75          1           0       17.353704    0.203540   -5.591633
     76          1           0       17.130003    4.055064   -2.232290
     77          1           0       14.969455    7.777669   -2.538468
     78          1           0       14.642467    7.282145   -0.770060
     79          1           0       13.662744    6.788585   -2.163714
     80         12           0      -15.961022   -0.710996   -0.354460
     81          6           0      -15.772993    2.687430    0.783257
     82          6           0      -15.141768   -1.661059    2.817415
     83          6           0      -15.676620   -3.684335   -1.424898
     84          6           0      -15.634126    0.504945   -3.604121
     85          7           0      -15.537398    0.455203    1.476597
     86          6           0      -15.556283    1.738471    1.804017
     87          6           0      -15.409987    2.016627    3.324142
     88          6           0      -14.658691    0.661269    3.745396
     89          6           0      -15.166978   -0.255352    2.634491
     90          6           0      -13.145827    0.752403    3.634661
     91          6           0      -16.797955    2.151391    4.043430
     92          6           0      -16.734990    2.726878    5.459975
     93          1           0      -17.824266    3.589080    5.910039
     94          7           0      -15.963862   -2.435395    0.627892
     95          6           0      -15.624477   -2.637301    1.918364
     96          6           0      -15.774416   -4.081889    2.152522
     97          6           0      -16.071205   -4.739734    0.851032
     98          6           0      -15.890908   -3.623682   -0.055609
     99          6           0      -15.713836   -4.694931    3.521441
    100          6           0      -16.441848   -6.144239    0.482012
    101          8           0      -16.421062   -6.548725   -0.734045
    102          6           0      -16.739448   -7.057686    1.594910
    103          7           0      -15.482534   -1.498972   -2.217921
    104          6           0      -15.479962   -2.827222   -2.426895
    105          6           0      -15.379204   -3.147583   -3.899181
    106          6           0      -15.558971   -1.750361   -4.656163
    107          6           0      -15.647289   -0.810011   -3.434143
    108          6           0      -14.075034   -3.805721   -4.349041
    109          6           0      -16.676697   -1.671427   -5.731869
    110          6           0      -18.033899   -1.779272   -5.074802
    111          7           0      -15.927272    1.235923   -1.290613
    112          6           0      -15.754581    1.519548   -2.663136
    113          6           0      -15.686871    2.989041   -2.798886
    114          6           0      -15.802701    3.461348   -1.482836
    115          6           0      -15.913092    2.363031   -0.587840
    116          6           0      -15.489248    3.704009   -4.013747
    117          6           0      -15.846004    4.638961   -0.646149
    118          8           0      -15.883361    5.851099   -0.853639
    119          6           0      -15.701596    4.186720    0.870760
    120          6           0      -16.762691    4.893268    1.669124
    121          8           0      -17.966766    4.650515    1.474459
    122          8           0      -16.179350    5.572596    2.673404
    123          6           0      -17.192153    6.281211    3.500394
    124          1           0      -14.669687   -2.058914    3.716162
    125          1           0      -15.681465   -4.686860   -1.858947
    126          1           0      -15.631471    0.965565   -4.594326
    127          1           0      -14.796305    2.874378    3.572000
    128          1           0      -14.996607    0.307640    4.716021
    129          1           0      -12.830412    1.678095    3.176668
    130          1           0      -12.843859   -0.091712    3.028569
    131          1           0      -12.686162    0.599121    4.615246
    132          1           0      -17.185245    1.148577    4.265086
    133          1           0      -17.480590    2.727386    3.449408
    134          1           0      -15.764355    3.190718    5.673683
    135          1           0      -16.800421    1.901518    6.173082
    136          1           0      -15.318545   -3.988242    4.261527
    137          1           0      -14.965042   -5.493414    3.481365
    138          1           0      -16.669111   -5.121652    3.834518
    139          1           0      -15.876369   -7.117510    2.253674
    140          1           0      -17.069549   -7.988170    1.128971
    141          1           0      -17.558154   -6.633136    2.186601
    142          1           0      -16.173704   -3.817417   -4.204457
    143          1           0      -14.650471   -1.465474   -5.206890
    144          1           0      -14.228600   -4.776596   -4.856886
    145          1           0      -13.437136   -3.926040   -3.483501
    146          1           0      -13.456364   -3.200742   -5.009684
    147          1           0      -16.598173   -2.514895   -6.422202
    148          1           0      -16.640945   -0.764480   -6.326150
    149          1           0      -18.168200   -2.859206   -4.961689
    150          1           0      -18.803743   -1.350516   -5.713206
    151          1           0      -18.020491   -1.341713   -4.069805
    152          1           0      -16.180206    4.536425   -4.001049
    153          1           0      -15.649427    3.066557   -4.880793
    154          1           0      -14.439956    3.990377   -3.903040
    155          1           0      -14.696376    4.454769    1.198244
    156          1           0      -16.907890    7.337900    3.517662
    157          1           0      -17.211587    5.748920    4.469954
    158          1           0      -18.202712    6.340349    3.113438
 ---------------------------------------------------------------------

 SCF Done:  E(RCAM-B3LYP) =  -4069.81176683     A.U. after   19 cycles

 Excitation energies and oscillator strengths:

 Excited State   1:      Singlet-A      1.6754 eV  740.01 nm  f=0.2947  <S**2>=0.000
     310 -> 316        0.17079
     311 -> 314       -0.12240
     312 -> 313        0.67504
     310 <- 316        0.10296
 This state for optimization and/or second-order correction.
 Total Energy, E(TD-HF/TD-DFT) =  -4069.75019587
 Copying the excited state density for this state as the 1-particle RhoCI density.

 Excited State   2:      Singlet-A      1.6800 eV  738.01 nm  f=0.4820  <S**2>=0.000
     309 -> 315        0.17274
     311 -> 314        0.67468
     312 -> 313        0.12237
     309 <- 315        0.10343

 Excited State   3:      Singlet-A      2.1861 eV  567.15 nm  f=0.0990  <S**2>=0.000
     310 -> 313        0.64231
     312 -> 316       -0.27306

 Excited State   4:      Singlet-A      2.1925 eV  565.49 nm  f=0.1016  <S**2>=0.000
     309 -> 314        0.64054
     311 -> 315       -0.27820

 Excited State   5:      Singlet-A      3.0657 eV  404.42 nm  f=0.0000  <S**2>=0.000
     311 -> 313        0.70711

 The electronic state is 1-A.
 Alpha  occ. eigenvalues --  -46.87796 -46.87661 -19.26352 -19.26279 -19.19163
 Alpha  occ. eigenvalues --  -19.19015 -19.18817 -19.18714 -19.18167 -19.18052
 Alpha  occ. eigenvalues --  -14.42498 -14.42449 -14.41449 -14.41359 -14.39402
 Alpha  occ. eigenvalues --  -14.39352 -14.38600 -14.38586 -10.39093 -10.39075
 Alpha  occ. eigenvalues --  -10.35450 -10.35391 -10.34387 -10.34229 -10.31760
 Alpha  occ. eigenvalues --  -10.31672 -10.31403 -10.31309 -10.31024 -10.30908
 Alpha  occ. eigenvalues --  -10.30569 -10.30507 -10.30398 -10.30361 -10.30207
 Alpha  occ. eigenvalues --  -10.30141 -10.29920 -10.29894 -10.29630 -10.29437
 Alpha  occ. eigenvalues --  -10.29401 -10.29254 -10.28746 -10.28721 -10.28659
 Alpha  occ. eigenvalues --  -10.28534 -10.28405 -10.28364 -10.28142 -10.28114
 Alpha  occ. eigenvalues --  -10.28001 -10.27792 -10.27726 -10.27670 -10.27584
 Alpha  occ. eigenvalues --  -10.27516 -10.27501 -10.27484 -10.27482 -10.27468
 Alpha  occ. eigenvalues --  -10.27465 -10.27450 -10.27402 -10.27374 -10.27155
 Alpha  occ. eigenvalues --  -10.27051 -10.26701 -10.26696 -10.26415 -10.26414
 Alpha  occ. eigenvalues --  -10.26232 -10.26185 -10.26135 -10.26026 -10.26019
 Alpha  occ. eigenvalues --  -10.25934 -10.25849 -10.25842 -10.25436 -10.25393
 Alpha  occ. eigenvalues --  -10.24873 -10.24832 -10.24787 -10.24730 -10.24690
 Alpha  occ. eigenvalues --  -10.24688  -3.16539  -3.16411  -1.91420  -1.91293
 Alpha  occ. eigenvalues --   -1.91007  -1.90881  -1.90849  -1.90718  -1.16646
 Alpha  occ. eigenvalues --   -1.16627  -1.08659  -1.08625  -1.07218  -1.06966
 Alpha  occ. eigenvalues --   -1.06948  -1.06638  -1.04580  -1.04496  -1.03760
 Alpha  occ. eigenvalues --   -1.03663  -1.03233  -1.03039  -1.02410  -1.02112
 Alpha  occ. eigenvalues --   -0.91988  -0.91971  -0.89519  -0.89494  -0.89186
 Alpha  occ. eigenvalues --   -0.89153  -0.88287  -0.88219  -0.87869  -0.87794
 Alpha  occ. eigenvalues --   -0.87684  -0.87672  -0.87274  -0.87120  -0.85001
 Alpha  occ. eigenvalues --   -0.84980  -0.83936  -0.83875  -0.82969  -0.82931
 Alpha  occ. eigenvalues --   -0.82654  -0.82647  -0.81598  -0.81583  -0.80595
 Alpha  occ. eigenvalues --   -0.80444  -0.78797  -0.78636  -0.77217  -0.77145
 Alpha  occ. eigenvalues --   -0.76932  -0.76899  -0.75921  -0.75840  -0.74898
 Alpha  occ. eigenvalues --   -0.74802  -0.72773  -0.72699  -0.71671  -0.71581
 Alpha  occ. eigenvalues --   -0.69907  -0.69756  -0.68872  -0.68828  -0.67640
 Alpha  occ. eigenvalues --   -0.67602  -0.67218  -0.67202  -0.65284  -0.65273
 Alpha  occ. eigenvalues --   -0.64852  -0.64771  -0.64655  -0.64619  -0.64269
 Alpha  occ. eigenvalues --   -0.64203  -0.62294  -0.62280  -0.60442  -0.60340
 Alpha  occ. eigenvalues --   -0.59802  -0.59798  -0.58993  -0.58986  -0.58502
 Alpha  occ. eigenvalues --   -0.58426  -0.57582  -0.57556  -0.57308  -0.57236
 Alpha  occ. eigenvalues --   -0.56309  -0.56205  -0.55975  -0.55888  -0.55520
 Alpha  occ. eigenvalues --   -0.55453  -0.55338  -0.55247  -0.54521  -0.54488
 Alpha  occ. eigenvalues --   -0.53914  -0.53893  -0.53298  -0.53228  -0.53221
 Alpha  occ. eigenvalues --   -0.53143  -0.52913  -0.52903  -0.52756  -0.52669
 Alpha  occ. eigenvalues --   -0.52438  -0.52400  -0.51913  -0.51884  -0.51660
 Alpha  occ. eigenvalues --   -0.51615  -0.51202  -0.51194  -0.50574  -0.50476
 Alpha  occ. eigenvalues --   -0.50032  -0.49980  -0.49919  -0.49866  -0.49514
 Alpha  occ. eigenvalues --   -0.49488  -0.49213  -0.49203  -0.49105  -0.49094
 Alpha  occ. eigenvalues --   -0.48591  -0.48559  -0.48461  -0.48445  -0.48375
 Alpha  occ. eigenvalues --   -0.48339  -0.47694  -0.47595  -0.47296  -0.47118
 Alpha  occ. eigenvalues --   -0.46796  -0.46709  -0.46555  -0.46553  -0.46358
 Alpha  occ. eigenvalues --   -0.46271  -0.46161  -0.46085  -0.45823  -0.45819
 Alpha  occ. eigenvalues --   -0.45208  -0.45201  -0.44576  -0.44515  -0.44507
 Alpha  occ. eigenvalues --   -0.44477  -0.44144  -0.44128  -0.44086  -0.44078
 Alpha  occ. eigenvalues --   -0.44018  -0.43940  -0.43554  -0.43492  -0.43386
 Alpha  occ. eigenvalues --   -0.43384  -0.43026  -0.42932  -0.42902  -0.42696
 Alpha  occ. eigenvalues --   -0.42653  -0.42553  -0.42008  -0.41964  -0.41703
 Alpha  occ. eigenvalues --   -0.41670  -0.41532  -0.41460  -0.41140  -0.40990
 Alpha  occ. eigenvalues --   -0.40868  -0.40824  -0.40723  -0.40699  -0.40571
 Alpha  occ. eigenvalues --   -0.40493  -0.40231  -0.40229  -0.39441  -0.39424
 Alpha  occ. eigenvalues --   -0.38469  -0.38350  -0.37746  -0.37656  -0.37320
 Alpha  occ. eigenvalues --   -0.37266  -0.37262  -0.37201  -0.36773  -0.36710
 Alpha  occ. eigenvalues --   -0.36217  -0.36190  -0.34285  -0.34254  -0.33864
 Alpha  occ. eigenvalues --   -0.33766  -0.33185  -0.33176  -0.31346  -0.31273
 Alpha  occ. eigenvalues --   -0.31035  -0.30973  -0.30026  -0.29956  -0.29449
 Alpha  occ. eigenvalues --   -0.29327  -0.29321  -0.29212  -0.24080  -0.24036
 Alpha  occ. eigenvalues --   -0.21127  -0.21117
 Alpha virt. eigenvalues --   -0.08792  -0.08774  -0.01749  -0.01684  -0.00058
 Alpha virt. eigenvalues --   -0.00029   0.02202   0.02207   0.03124   0.03227
 Alpha virt. eigenvalues --    0.04720   0.04729   0.05102   0.05163   0.06181

 Mulliken charges:
               1
     1  Mg   0.838781
     2  C   -0.002948
     3  C   -0.094127
     4  C   -0.045896
     5  C   -0.063966
     6  N   -0.256791
     7  C   -0.052460
     8  C   -0.014024
     9  C   -0.087004
    10  C    0.046338
    11  C    0.104811
    12  C    0.053472
    13  C   -0.071826
    14  H    0.036182
    15  N   -0.433148
    16  C    0.168408
    17  C   -0.177146
    18  C   -0.004031
    19  C    0.148708
    20  C    0.110177
    21  C    0.012263
    22  O   -0.249649
    23  C    0.062485
    24  N   -0.341151
    25  C    0.041251
    26  C   -0.028191
    27  C   -0.023962
    28  C    0.074845
    29  C    0.076177
    30  C    0.035129
    31  C   -0.004499
    32  N   -0.310483
    33  C    0.080430
    34  C   -0.169717
    35  C    0.008375
    36  C    0.082989
    37  C    0.127311
    38  C    0.046127
    39  O   -0.188399
    40  C   -0.005324
    41  C    0.212888
    42  O   -0.257100
    43  O   -0.304799
    44  C    0.157682
    45  H   -0.017605
    46  H   -0.016859
    47  H   -0.041487
    48  H    0.000959
    49  H   -0.004029
    50  H    0.025482
    51  H    0.016436
    52  H    0.016665
    53  H    0.011194
    54  H    0.044133
    55  H    0.017881
    56  H    0.017943
    57  H    0.005883
    58  H    0.026810
    59  H    0.039524
    60  H    0.037348
    61  H    0.035607
    62  H    0.031485
    63  H    0.016533
    64  H    0.009463
    65  H    0.023192
    66  H    0.012547
    67  H    0.004755
    68  H    0.006352
    69  H    0.004741
    70  H    0.008757
    71  H    0.018143
    72  H    0.028990
    73  H    0.047592
    74  H    0.009107
    75  H    0.046018
    76  H    0.035160
    77  H    0.042974
    78  H    0.046405
    79  H    0.053712
    80  Mg   0.837925
    81  C   -0.016842
    82  C   -0.087794
    83  C   -0.045504
    84  C   -0.064837
    85  N   -0.254568
    86  C   -0.049844
    87  C   -0.015100
    88  C   -0.090505
    89  C    0.045753
    90  C    0.114368
    91  C    0.062536
    92  C   -0.077893
    93  H    0.034880
    94  N   -0.423511
    95  C    0.162919
    96  C   -0.174628
    97  C   -0.007792
    98  C    0.152127
    99  C    0.099367
   100  C    0.015574
   101  O   -0.253161
   102  C    0.061198
   103  N   -0.350064
   104  C    0.037534
   105  C   -0.019847
   106  C   -0.034830
   107  C    0.088892
   108  C    0.073630
   109  C    0.034733
   110  C   -0.007683
   111  N   -0.324116
   112  C    0.078453
   113  C   -0.163115
   114  C    0.002253
   115  C    0.096180
   116  C    0.131485
   117  C    0.042387
   118  O   -0.187862
   119  C    0.000934
   120  C    0.211248
   121  O   -0.251025
   122  O   -0.305620
   123  C    0.152025
   124  H   -0.019659
   125  H   -0.015543
   126  H   -0.040415
   127  H   -0.000653
   128  H   -0.004343
   129  H    0.022480
   130  H    0.014459
   131  H    0.016268
   132  H    0.013919
   133  H    0.037677
   134  H    0.020778
   135  H    0.019584
   136  H    0.008749
   137  H    0.026164
   138  H    0.039788
   139  H    0.038262
   140  H    0.036411
   141  H    0.033885
   142  H    0.014403
   143  H    0.012481
   144  H    0.025167
   145  H    0.011663
   146  H    0.005742
   147  H    0.006298
   148  H    0.003674
   149  H    0.010934
   150  H    0.017938
   151  H    0.030080
   152  H    0.046005
   153  H    0.008538
   154  H    0.047000
   155  H    0.035039
   156  H    0.043908
   157  H    0.049481
   158  H    0.053582
 Sum of Mulliken charges =  -0.00000

 Dipole moment (field-independent basis, Debye):
    X=              3.8668    Y=             -2.2448    Z=              7.3285  Tot=              8.5848
 Quadrupole moment (field-independent basis, Debye-Ang):
   XX=           -516.6793   YY=           -537.3059   ZZ=           -461.5648
   XY=             48.7888   XZ=             14.7066   YZ=             35.0761

 Normal termination of Gaussian 16 at Sat Sep  4 19:34:32 2021.
