 Gaussian 16, Revision A.03,
 Gaussian 16:  ES64L-G16RevA.03 25-Dec-2016

 -----------------------------------
 #p cam-b3lyp/Def2SVP td=(nstates=5)
 -----------------------------------

 --------------------------------
 TDDFT excited states in gaussian
 --------------------------------
 Symbolic Z-matrix:
 Charge =  0 Multiplicity = 1

                         Standard orientation:
 ---------------------------------------------------------------------
 Center     Atomic      Atomic             Coordinates (Angstroms)
 Number     Number       Type             X           Y           Z
 ---------------------------------------------------------------------
      1         12           0        4.819230    1.330946    0.676158
      2          6           0        5.562033   -2.101529   -0.015635
      3          6           0        5.925337    2.049899   -2.470698
      4          6           0        4.600567    4.406099    1.419285
      5          6           0        4.856511    0.503419    4.061342
      6          7           0        5.616342    0.050293   -0.944085
      7          6           0        5.794094   -1.257395   -1.103859
      8          6           0        6.178071   -1.655288   -2.560435
      9          6           0        6.801448   -0.269751   -3.043846
     10          6           0        6.044588    0.671429   -2.123375
     11          6           0        8.294259   -0.140767   -2.758576
     12          6           0        4.928950   -2.051526   -3.417419
     13          6           0        5.241150   -2.760477   -4.738507
     14          1           0        4.339085   -3.803045   -5.203996
     15          7           0        4.738608    2.927065   -0.485201
     16          6           0        5.224828    3.037464   -1.744839
     17          6           0        4.918709    4.417039   -2.180434
     18          6           0        4.384582    5.157725   -1.003919
     19          6           0        4.580276    4.188384    0.043678
     20          6           0        5.091567    4.892153   -3.590447
     21          6           0        3.801516    6.526449   -0.846559
     22          8           0        3.614246    7.058179    0.300946
     23          6           0        3.533991    7.273358   -2.088976
     24          7           0        4.955810    2.368575    2.482343
     25          6           0        4.764807    3.691373    2.534380
     26          6           0        4.629999    4.168308    3.950113
     27          6           0        4.525729    2.854216    4.851247
     28          6           0        4.711354    1.791094    3.740578
     29          6           0        5.770960    5.054032    4.469451
     30          6           0        3.295111    2.737922    5.785310
     31          6           0        2.037340    2.582559    4.960100
     32          7           0        4.971005   -0.494171    1.841044
     33          6           0        4.987896   -0.603153    3.239082
     34          6           0        5.214598   -2.024565    3.558868
     35          6           0        5.331130   -2.645111    2.316617
     36          6           0        5.212584   -1.668830    1.286512
     37          6           0        5.346180   -2.574291    4.864595
     38          6           0        5.552802   -3.902027    1.620285
     39          8           0        5.628995   -5.082362    1.964520
     40          6           0        5.832782   -3.582061    0.085664
     41          6           0        4.979941   -4.510618   -0.735160
     42          8           0        3.735925   -4.412041   -0.726661
     43          8           0        5.761463   -5.205258   -1.576137
     44          6           0        4.974265   -6.124515   -2.440683
     45          1           0        6.464145    2.422701   -3.343993
     46          1           0        4.417213    5.439812    1.719712
     47          1           0        4.795978    0.157333    5.094789
     48          1           0        6.925475   -2.445508   -2.633687
     49          1           0        6.560651   -0.056423   -4.085110
     50          1           0        8.657317   -0.970985   -2.152896
     51          1           0        8.407546    0.800809   -2.220902
     52          1           0        8.857231   -0.026261   -3.685252
     53          1           0        4.453922   -1.147963   -3.799498
     54          1           0        4.239275   -2.662879   -2.834392
     55          1           0        6.274433   -3.107212   -4.770288
     56          1           0        5.176430   -2.027746   -5.542943
     57          1           0        5.655635    4.176902   -4.187764
     58          1           0        5.727814    5.776168   -3.552822
     59          1           0        4.139683    5.143956   -4.058257
     60          1           0        4.463401    7.387965   -2.647197
     61          1           0        3.036352    8.193685   -1.785325
     62          1           0        2.868478    6.683034   -2.719498
     63          1           0        3.725847    4.762021    4.078331
     64          1           0        5.379167    2.749138    5.521528
     65          1           0        5.439240    6.026784    4.833347
     66          1           0        6.502674    5.164442    3.669642
     67          1           0        6.376255    4.604969    5.256457
     68          1           0        3.180715    3.645827    6.376552
     69          1           0        3.357518    1.897530    6.476756
     70          1           0        1.783824    3.611321    4.706702
     71          1           0        1.247625    2.120709    5.553613
     72          1           0        2.236377    2.056518    4.026210
     73          1           0        4.762894   -3.495015    4.868121
     74          1           0        4.992270   -1.878254    5.624781
     75          1           0        6.423895   -2.730132    4.910417
     76          1           0        6.896579   -3.749089   -0.080351
     77          1           0        5.380594   -7.125913   -2.298087
     78          1           0        5.003585   -5.705063   -3.446468
     79          1           0        3.933656   -6.282054   -2.154934
     80         12           0       -5.614817   -0.093898   -0.383391
     81          6           0       -3.306198   -2.835813   -0.206683
     82          6           0       -3.336289    1.502612   -2.356723
     83          6           0       -7.420219    2.508254   -0.191755
     84          6           0       -7.156865   -1.390094    2.460497
     85          7           0       -3.616067   -0.692569   -1.117460
     86          6           0       -2.868092   -1.782661   -1.036354
     87          6           0       -1.617316   -1.774326   -1.955633
     88          6           0       -1.444621   -0.185461   -2.112309
     89          6           0       -2.893166    0.241531   -1.884071
     90          6           0       -0.586072    0.436825   -1.023734
     91          6           0       -1.888220   -2.461922   -3.339770
     92          6           0       -0.634728   -2.764980   -4.163571
     93          1           0       -0.611864   -3.978721   -4.975216
     94          7           0       -5.655671    1.527893   -1.526492
     95          6           0       -4.648319    2.019109   -2.278307
     96          6           0       -5.176127    3.237496   -2.911644
     97          6           0       -6.523150    3.515698   -2.343435
     98          6           0       -6.577691    2.517980   -1.293836
     99          6           0       -4.450870    3.965264   -4.006071
    100          6           0       -7.581171    4.522534   -2.679675
    101          8           0       -8.575662    4.739889   -1.900844
    102          6           0       -7.369728    5.312607   -3.901381
    103          7           0       -6.943795    0.597097    1.058373
    104          6           0       -7.638454    1.732921    0.870582
    105          6           0       -8.727269    1.883949    1.905980
    106          6           0       -8.775237    0.488467    2.685682
    107          6           0       -7.593954   -0.227928    1.995208
    108          6           0       -8.537766    3.021131    2.909617
    109          6           0      -10.147080   -0.237577    2.745353
    110          6           0      -10.543488   -0.706270    1.363839
    111          7           0       -5.431278   -1.889826    0.803626
    112          6           0       -6.157616   -2.220168    1.968699
    113          6           0       -5.600338   -3.487373    2.484505
    114          6           0       -4.565048   -3.796881    1.589599
    115          6           0       -4.469715   -2.782998    0.598411
    116          6           0       -6.023873   -4.163637    3.663240
    117          6           0       -3.524240   -4.745295    1.264157
    118          8           0       -3.185705   -5.846078    1.697078
    119          6           0       -2.580377   -4.100561    0.159690
    120          6           0       -2.365274   -5.123383   -0.922013
    121          8           0       -3.314376   -5.503896   -1.629833
    122          8           0       -1.044393   -5.320492   -1.085689
    123          6           0       -0.780050   -6.318863   -2.155836
    124          1           0       -2.601871    2.180731   -2.792251
    125          1           0       -8.139118    3.329257   -0.140581
    126          1           0       -7.646787   -1.909554    3.286817
    127          1           0       -0.726002   -2.203446   -1.513835
    128          1           0       -1.122539    0.079783   -3.115928
    129          1           0       -0.330177   -0.277107   -0.254995
    130          1           0       -1.175855    1.243944   -0.609307
    131          1           0        0.299078    0.905335   -1.463440
    132          1           0       -2.381780   -1.742934   -4.006250
    133          1           0       -2.463288   -3.358600   -3.213683
    134          1           0        0.280979   -2.685541   -3.565141
    135          1           0       -0.524747   -1.989922   -4.925940
    136          1           0       -3.412342    3.623748   -4.096699
    137          1           0       -4.366392    5.011538   -3.692928
    138          1           0       -4.978740    3.923762   -4.961219
    139          1           0       -6.428483    5.851687   -3.824430
    140          1           0       -8.273542    5.913153   -4.021104
    141          1           0       -7.270652    4.625825   -4.749387
    142          1           0       -9.687307    2.056654    1.435240
    143          1           0       -8.497962    0.603242    3.743885
    144          1           0       -9.382585    3.735365    2.924604
    145          1           0       -7.612580    3.531337    2.676678
    146          1           0       -8.375123    2.706283    3.938991
    147          1           0      -10.927192    0.453272    3.074443
    148          1           0      -10.158815   -1.083658    3.424331
    149          1           0      -10.993950    0.186640    0.920127
    150          1           0      -11.262064   -1.520927    1.427219
    151          1           0       -9.660543   -0.961602    0.766459
    152          1           0       -6.078850   -5.215475    3.415996
    153          1           0       -6.981782   -3.786643    4.015447
    154          1           0       -5.206329   -3.904424    4.341243
    155          1           0       -1.647054   -3.820224    0.649481
    156          1           0       -0.160413   -7.104978   -1.713386
    157          1           0       -0.344115   -5.747226   -2.996625
    158          1           0       -1.621559   -6.894499   -2.523193
 ---------------------------------------------------------------------

 SCF Done:  E(RCAM-B3LYP) =  -4069.81138130     A.U. after   19 cycles

 Excitation energies and oscillator strengths:

 Excited State   1:      Singlet-A      1.6544 eV  749.44 nm  f=0.0018  <S**2>=0.000
     309 -> 315       -0.11665
     310 -> 316        0.12140
     311 -> 313       -0.47367
     312 -> 314        0.49803
 This state for optimization and/or second-order correction.
 Total Energy, E(TD-HF/TD-DFT) =  -4069.75058471
 Copying the excited state density for this state as the 1-particle RhoCI density.

 Excited State   2:      Singlet-A      1.6975 eV  730.37 nm  f=0.7110  <S**2>=0.000
     309 -> 315        0.13071
     310 -> 316        0.12308
     311 -> 313        0.49595
     312 -> 314        0.47179

 Excited State   3:      Singlet-A      2.1825 eV  568.08 nm  f=0.0628  <S**2>=0.000
     309 -> 313        0.20449
     310 -> 314        0.61046
     312 -> 316       -0.25644

 Excited State   4:      Singlet-A      2.1942 eV  565.05 nm  f=0.1298  <S**2>=0.000
     309 -> 313        0.60709
     310 -> 314       -0.20207
     311 -> 315       -0.26545

 Excited State   5:      Singlet-A      2.3976 eV  517.11 nm  f=0.0000  <S**2>=0.000
     312 -> 313        0.70665

 The electronic state is 1-A.
 Alpha  occ. eigenvalues --  -46.88073 -46.87432 -19.26527 -19.25757 -19.19263
 Alpha  occ. eigenvalues --  -19.19077 -19.18691 -19.18534 -19.18366 -19.17721
 Alpha  occ. eigenvalues --  -14.42724 -14.42261 -14.41703 -14.41133 -14.39677
 Alpha  occ. eigenvalues --  -14.39128 -14.38846 -14.38363 -10.39321 -10.38607
 Alpha  occ. eigenvalues --  -10.35712 -10.35216 -10.34590 -10.33884 -10.31937
 Alpha  occ. eigenvalues --  -10.31663 -10.31207 -10.31195 -10.31052 -10.30822
 Alpha  occ. eigenvalues --  -10.30762 -10.30755 -10.30459 -10.30165 -10.30148
 Alpha  occ. eigenvalues --  -10.30116 -10.29949 -10.29876 -10.29668 -10.29517
 Alpha  occ. eigenvalues --  -10.29233 -10.29175 -10.29053 -10.28883 -10.28630
 Alpha  occ. eigenvalues --  -10.28394 -10.28358 -10.28346 -10.28155 -10.28034
 Alpha  occ. eigenvalues --  -10.27991 -10.27878 -10.27843 -10.27773 -10.27770
 Alpha  occ. eigenvalues --  -10.27697 -10.27664 -10.27645 -10.27451 -10.27388
 Alpha  occ. eigenvalues --  -10.27350 -10.27331 -10.27246 -10.27218 -10.27200
 Alpha  occ. eigenvalues --  -10.27093 -10.26703 -10.26619 -10.26471 -10.26391
 Alpha  occ. eigenvalues --  -10.26351 -10.26284 -10.26260 -10.25991 -10.25985
 Alpha  occ. eigenvalues --  -10.25789 -10.25722 -10.25637 -10.25608 -10.25241
 Alpha  occ. eigenvalues --  -10.25069 -10.25034 -10.24857 -10.24627 -10.24588
 Alpha  occ. eigenvalues --  -10.24463  -3.16816  -3.16182  -1.91698  -1.91284
 Alpha  occ. eigenvalues --   -1.91126  -1.91065  -1.90653  -1.90490  -1.16875
 Alpha  occ. eigenvalues --   -1.16085  -1.08819  -1.08306  -1.07478  -1.06883
 Alpha  occ. eigenvalues --   -1.06790  -1.06464  -1.04853  -1.04249  -1.04017
 Alpha  occ. eigenvalues --   -1.03491  -1.03431  -1.02815  -1.02666  -1.01881
 Alpha  occ. eigenvalues --   -0.92220  -0.91697  -0.89742  -0.89477  -0.89281
 Alpha  occ. eigenvalues --   -0.88871  -0.88504  -0.88086  -0.88023  -0.87940
 Alpha  occ. eigenvalues --   -0.87563  -0.87544  -0.87444  -0.86932  -0.85265
 Alpha  occ. eigenvalues --   -0.84739  -0.84142  -0.83670  -0.83228  -0.82916
 Alpha  occ. eigenvalues --   -0.82758  -0.82393  -0.81832  -0.81236  -0.80853
 Alpha  occ. eigenvalues --   -0.80137  -0.79052  -0.78429  -0.77465  -0.77189
 Alpha  occ. eigenvalues --   -0.76912  -0.76606  -0.76175  -0.75540  -0.75114
 Alpha  occ. eigenvalues --   -0.74574  -0.73012  -0.72471  -0.71914  -0.71333
 Alpha  occ. eigenvalues --   -0.70107  -0.69578  -0.69144  -0.68573  -0.67891
 Alpha  occ. eigenvalues --   -0.67524  -0.67355  -0.66945  -0.65566  -0.65102
 Alpha  occ. eigenvalues --   -0.64972  -0.64873  -0.64520  -0.64493  -0.64343
 Alpha  occ. eigenvalues --   -0.63981  -0.62540  -0.61871  -0.60697  -0.60141
 Alpha  occ. eigenvalues --   -0.60079  -0.59519  -0.59230  -0.58745  -0.58737
 Alpha  occ. eigenvalues --   -0.58155  -0.57817  -0.57541  -0.57197  -0.56971
 Alpha  occ. eigenvalues --   -0.56551  -0.56236  -0.55972  -0.55773  -0.55553
 Alpha  occ. eigenvalues --   -0.55501  -0.55178  -0.54970  -0.54743  -0.54185
 Alpha  occ. eigenvalues --   -0.54160  -0.53639  -0.53551  -0.53488  -0.53161
 Alpha  occ. eigenvalues --   -0.53035  -0.52997  -0.52872  -0.52630  -0.52593
 Alpha  occ. eigenvalues --   -0.52461  -0.52210  -0.52104  -0.51903  -0.51651
 Alpha  occ. eigenvalues --   -0.51426  -0.51394  -0.50921  -0.50854  -0.50313
 Alpha  occ. eigenvalues --   -0.50258  -0.50174  -0.49781  -0.49770  -0.49674
 Alpha  occ. eigenvalues --   -0.49458  -0.49344  -0.49257  -0.48932  -0.48827
 Alpha  occ. eigenvalues --   -0.48826  -0.48708  -0.48663  -0.48268  -0.48177
 Alpha  occ. eigenvalues --   -0.48090  -0.47948  -0.47543  -0.47343  -0.47037
 Alpha  occ. eigenvalues --   -0.46894  -0.46838  -0.46599  -0.46478  -0.46387
 Alpha  occ. eigenvalues --   -0.46301  -0.46047  -0.46039  -0.45816  -0.45505
 Alpha  occ. eigenvalues --   -0.45416  -0.44997  -0.44812  -0.44758  -0.44383
 Alpha  occ. eigenvalues --   -0.44351  -0.44256  -0.44234  -0.44227  -0.43884
 Alpha  occ. eigenvalues --   -0.43856  -0.43731  -0.43669  -0.43643  -0.43264
 Alpha  occ. eigenvalues --   -0.43232  -0.43102  -0.42935  -0.42869  -0.42662
 Alpha  occ. eigenvalues --   -0.42431  -0.42354  -0.42239  -0.41940  -0.41806
 Alpha  occ. eigenvalues --   -0.41730  -0.41388  -0.41385  -0.41198  -0.41136
 Alpha  occ. eigenvalues --   -0.41100  -0.40789  -0.40747  -0.40569  -0.40512
 Alpha  occ. eigenvalues --   -0.40467  -0.40267  -0.39920  -0.39639  -0.39250
 Alpha  occ. eigenvalues --   -0.38699  -0.38148  -0.38054  -0.37554  -0.37548
 Alpha  occ. eigenvalues --   -0.37391  -0.37049  -0.36947  -0.36939  -0.36431
 Alpha  occ. eigenvalues --   -0.36365  -0.35898  -0.34541  -0.34017  -0.34014
 Alpha  occ. eigenvalues --   -0.33445  -0.33439  -0.32928  -0.31605  -0.31290
 Alpha  occ. eigenvalues --   -0.31091  -0.30727  -0.30225  -0.29713  -0.29611
 Alpha  occ. eigenvalues --   -0.29559  -0.29111  -0.28969  -0.24341  -0.23793
 Alpha  occ. eigenvalues --   -0.21383  -0.20891
 Alpha virt. eigenvalues --   -0.09029  -0.08561  -0.02011  -0.01463  -0.00323
 Alpha virt. eigenvalues --    0.00180   0.01972   0.02400   0.02521   0.03440
 Alpha virt. eigenvalues --    0.04430   0.04830   0.05001   0.05618   0.05726

 Mulliken charges:
               1
     1  Mg   0.833644
     2  C   -0.003627
     3  C   -0.094806
     4  C   -0.045400
     5  C   -0.063372
     6  N   -0.256661
     7  C   -0.053418
     8  C   -0.013468
     9  C   -0.086629
    10  C    0.045108
    11  C    0.104687
    12  C    0.052649
    13  C   -0.071820
    14  H    0.035942
    15  N   -0.433424
    16  C    0.166966
    17  C   -0.178263
    18  C   -0.004708
    19  C    0.148312
    20  C    0.110262
    21  C    0.011674
    22  O   -0.248979
    23  C    0.063026
    24  N   -0.340792
    25  C    0.040889
    26  C   -0.028230
    27  C   -0.024211
    28  C    0.074949
    29  C    0.075968
    30  C    0.034914
    31  C   -0.004551
    32  N   -0.310876
    33  C    0.080560
    34  C   -0.168576
    35  C    0.009187
    36  C    0.082636
    37  C    0.126928
    38  C    0.047267
    39  O   -0.186338
    40  C   -0.005873
    41  C    0.213399
    42  O   -0.257306
    43  O   -0.304473
    44  C    0.157549
    45  H   -0.017514
    46  H   -0.016432
    47  H   -0.040399
    48  H    0.001759
    49  H   -0.004440
    50  H    0.025916
    51  H    0.016874
    52  H    0.017074
    53  H    0.008965
    54  H    0.043030
    55  H    0.019201
    56  H    0.017952
    57  H    0.005882
    58  H    0.027523
    59  H    0.037677
    60  H    0.037946
    61  H    0.036109
    62  H    0.029316
    63  H    0.016796
    64  H    0.010087
    65  H    0.023653
    66  H    0.012610
    67  H    0.005241
    68  H    0.006977
    69  H    0.005467
    70  H    0.008865
    71  H    0.019151
    72  H    0.027995
    73  H    0.049515
    74  H    0.009726
    75  H    0.046492
    76  H    0.035718
    77  H    0.044116
    78  H    0.045909
    79  H    0.052631
    80  Mg   0.837169
    81  C   -0.017206
    82  C   -0.087758
    83  C   -0.045828
    84  C   -0.065659
    85  N   -0.254427
    86  C   -0.049698
    87  C   -0.017099
    88  C   -0.091501
    89  C    0.045609
    90  C    0.110831
    91  C    0.062693
    92  C   -0.078425
    93  H    0.031575
    94  N   -0.423402
    95  C    0.162610
    96  C   -0.174962
    97  C   -0.008291
    98  C    0.151972
    99  C    0.099768
   100  C    0.015259
   101  O   -0.253718
   102  C    0.061344
   103  N   -0.350156
   104  C    0.037250
   105  C   -0.019621
   106  C   -0.034786
   107  C    0.089223
   108  C    0.073836
   109  C    0.034837
   110  C   -0.007572
   111  N   -0.324231
   112  C    0.078862
   113  C   -0.163608
   114  C    0.002897
   115  C    0.095846
   116  C    0.131563
   117  C    0.042265
   118  O   -0.186060
   119  C    0.001641
   120  C    0.210008
   121  O   -0.253571
   122  O   -0.299591
   123  C    0.155009
   124  H   -0.020874
   125  H   -0.016190
   126  H   -0.040940
   127  H    0.008740
   128  H   -0.006030
   129  H    0.026785
   130  H    0.013934
   131  H    0.017613
   132  H    0.012150
   133  H    0.037669
   134  H    0.027773
   135  H    0.016226
   136  H    0.007392
   137  H    0.025455
   138  H    0.038784
   139  H    0.037873
   140  H    0.035808
   141  H    0.033432
   142  H    0.013974
   143  H    0.012032
   144  H    0.024641
   145  H    0.011726
   146  H    0.005172
   147  H    0.005819
   148  H    0.003455
   149  H    0.010710
   150  H    0.017575
   151  H    0.030397
   152  H    0.046085
   153  H    0.007898
   154  H    0.047070
   155  H    0.041273
   156  H    0.044827
   157  H    0.048310
   158  H    0.050431
 Sum of Mulliken charges =  -0.00000

 Dipole moment (field-independent basis, Debye):
    X=              4.7687    Y=              5.4548    Z=             -4.3884  Tot=              8.4707
 Quadrupole moment (field-independent basis, Debye-Ang):
   XX=           -503.0694   YY=           -566.2109   ZZ=           -453.9547
   XY=              8.0417   XZ=            -37.0780   YZ=              6.2229

 Normal termination of Gaussian 16 at Fri Sep 10 21:02:35 2021.
