 Gaussian 16, Revision A.03,
 Gaussian 16:  ES64L-G16RevA.03 25-Dec-2016

 -----------------------------------
 #p cam-b3lyp/Def2SVP td=(nstates=5)
 -----------------------------------

 --------------------------------
 TDDFT excited states in gaussian
 --------------------------------
 Symbolic Z-matrix:
 Charge =  0 Multiplicity = 1

                         Standard orientation:
 ---------------------------------------------------------------------
 Center     Atomic      Atomic             Coordinates (Angstroms)
 Number     Number       Type             X           Y           Z
 ---------------------------------------------------------------------
      1         12           0       -3.499349    1.365411    0.245306
      2          6           0       -4.384398   -1.608665   -1.539007
      3          6           0       -4.536857   -0.210157    3.088584
      4          6           0       -3.154192    4.124439    1.770184
      5          6           0       -3.611538    3.050735   -2.803096
      6          7           0       -4.333477   -0.654013    0.601402
      7          6           0       -4.566712   -1.719360   -0.158734
      8          6           0       -4.951191   -2.989036    0.658256
      9          6           0       -5.507507   -2.282359    1.974735
     10          6           0       -4.720541   -0.985521    1.905325
     11          6           0       -6.996359   -1.957530    1.909083
     12          6           0       -3.711013   -3.891602    0.973001
     13          6           0       -4.039006   -5.299989    1.477205
     14          1           0       -3.178400   -6.404066    1.080067
     15          7           0       -3.335412    1.750392    2.176048
     16          6           0       -3.801926    0.990360    3.195852
     17          6           0       -3.430513    1.702145    4.437663
     18          6           0       -2.877780    3.030476    4.052803
     19          6           0       -3.127820    3.032128    2.634052
     20          6           0       -3.566241    1.100706    5.802800
     21          6           0       -2.236938    4.129083    4.840532
     22          8           0       -2.039560    5.292669    4.348919
     23          6           0       -1.922700    3.830157    6.249411
     24          7           0       -3.610751    3.355087   -0.376313
     25          6           0       -3.362387    4.358246    0.472788
     26          6           0       -3.222881    5.664512   -0.251192
     27          6           0       -3.186754    5.306086   -1.806820
     28          6           0       -3.406269    3.776692   -1.701769
     29          6           0       -4.329645    6.695624    0.009369
     30          6           0       -1.973160    5.822929   -2.619520
     31          6           0       -0.714114    5.118780   -2.165564
     32          7           0       -3.744473    0.816195   -1.840196
     33          6           0       -3.782065    1.683404   -2.941655
     34          6           0       -4.074663    0.860462   -4.129603
     35          6           0       -4.204201   -0.434345   -3.631063
     36          6           0       -4.031124   -0.417147   -2.217542
     37          6           0       -4.245152    1.343904   -5.456875
     38          6           0       -4.472966   -1.824703   -3.960494
     39          8           0       -4.604891   -2.457536   -5.009118
     40          6           0       -4.721108   -2.621979   -2.604542
     41          6           0       -3.900615   -3.881693   -2.661308
     42          8           0       -2.653645   -3.834097   -2.648351
     43          8           0       -4.702286   -4.942805   -2.482686
     44          6           0       -3.946461   -6.223678   -2.498498
     45          1           0       -5.048771   -0.514278    4.003677
     46          1           0       -2.929007    5.083470    2.241341
     47          1           0       -3.578056    3.494755   -3.799679
     48          1           0       -5.731727   -3.601268    0.206195
     49          1           0       -5.245718   -2.836709    2.875782
     50          1           0       -7.402439   -2.148783    0.915886
     51          1           0       -7.074262   -0.898244    2.154724
     52          1           0       -7.543157   -2.487129    2.689668
     53          1           0       -3.192401   -3.497729    1.847052
     54          1           0       -3.055567   -3.963203    0.104329
     55          1           0       -5.086103   -5.551008    1.305493
     56          1           0       -3.932976   -5.307689    2.562055
     57          1           0       -4.154365    0.184118    5.779950
     58          1           0       -4.163399    1.791854    6.397296
     59          1           0       -2.598941    0.945544    6.280908
     60          1           0       -2.839753    3.559221    6.773010
     61          1           0       -1.388575    4.700260    6.629518
     62          1           0       -1.276641    2.952647    6.288568
     63          1           0       -2.295023    6.165627    0.021550
     64          1           0       -4.051567    5.703844   -2.338384
     65          1           0       -3.959650    7.649167    0.386948
     66          1           0       -5.046638    6.253100    0.700299
     67          1           0       -4.963023    6.913408   -0.850177
     68          1           0       -1.825705    6.888132   -2.444744
     69          1           0       -2.080325    5.674882   -3.694159
     70          1           0       -0.412748    5.697324   -1.293040
     71          1           0        0.047720    5.161742   -2.944650
     72          1           0       -0.925432    4.104353   -1.826789
     73          1           0       -3.702983    0.654941   -6.104450
     74          1           0       -3.869670    2.361855   -5.558808
     75          1           0       -5.329128    1.286900   -5.554866
     76          1           0       -5.789258   -2.831033   -2.554803
     77          1           0       -4.398018   -6.853386   -3.265178
     78          1           0       -3.945853   -6.595786   -1.473832
     79          1           0       -2.917107   -6.171600   -2.854946
     80         12           0        4.282852   -0.153555   -0.201341
     81          6           0        1.411335   -2.140489    0.626639
     82          6           0        6.198371   -2.615908    1.177866
     83          6           0        6.792127    1.764082   -0.507398
     84          6           0        2.141821    2.584434   -0.456448
     85          7           0        3.756772   -2.081332    0.746910
     86          6           0        2.637017   -2.758987    0.950061
     87          6           0        2.846927   -4.210730    1.457933
     88          6           0        4.298234   -4.026323    2.120174
     89          6           0        4.804929   -2.857913    1.277102
     90          6           0        4.245039   -3.580136    3.571871
     91          6           0        2.878244   -5.254894    0.287141
     92          6           0        2.769971   -6.716829    0.726202
     93          1           0        2.040393   -7.648392   -0.129595
     94          7           0        6.223930   -0.566654   -0.189384
     95          6           0        6.828044   -1.620193    0.399155
     96          6           0        8.266398   -1.457239    0.136965
     97          6           0        8.477919   -0.135257   -0.512922
     98          6           0        7.146251    0.426501   -0.407256
     99          6           0        9.272986   -2.533062    0.424745
    100          6           0        9.682737    0.520613   -1.116630
    101          8           0        9.693913    1.768121   -1.410618
    102          6           0       10.880069   -0.319187   -1.267013
    103          7           0        4.479726    1.915789   -0.238821
    104          6           0        5.677949    2.492760   -0.437014
    105          6           0        5.533894    3.972786   -0.699994
    106          6           0        3.964970    4.226895   -0.877477
    107          6           0        3.443317    2.802892   -0.585130
    108          6           0        6.079171    4.897892    0.387776
    109          6           0        3.509090    4.926722   -2.187095
    110          6           0        3.753231    4.017616   -3.370011
    111          7           0        2.145871    0.160192   -0.147284
    112          6           0        1.461677    1.391355   -0.248299
    113          6           0        0.026265    1.109994   -0.041258
    114          6           0       -0.022835   -0.272880    0.190536
    115          6           0        1.291507   -0.811874    0.152110
    116          6           0       -1.018266    2.076959   -0.033225
    117          6           0       -0.886568   -1.397524    0.469525
    118          8           0       -2.104139   -1.563970    0.529055
    119          6           0        0.016466   -2.636211    0.889730
    120          6           0       -0.456739   -3.838474    0.119566
    121          8           0       -0.339628   -3.882707   -1.117750
    122          8           0       -0.767355   -4.821424    0.984259
    123          6           0       -1.231561   -6.038976    0.267398
    124          1           0        6.874117   -3.217848    1.786079
    125          1           0        7.611182    2.453721   -0.724229
    126          1           0        1.399467    3.369044   -0.617605
    127          1           0        2.135327   -4.537382    2.206731
    128          1           0        4.917935   -4.905634    1.964746
    129          1           0        3.238372   -3.345832    3.884709
    130          1           0        4.874290   -2.701860    3.632917
    131          1           0        4.712954   -4.331383    4.214527
    132          1           0        3.882284   -5.265742   -0.156194
    133          1           0        2.117563   -5.037899   -0.437352
    134          1           0        2.438182   -6.811035    1.767352
    135          1           0        3.770928   -7.155109    0.723201
    136          1           0        8.846677   -3.325286    1.052481
    137          1           0       10.052968   -2.082688    1.048178
    138          1           0        9.732270   -2.933500   -0.481547
    139          1           0       11.178136   -0.700783   -0.293363
    140          1           0       11.606336    0.299683   -1.797493
    141          1           0       10.622108   -1.189554   -1.880638
    142          1           0        6.041155    4.254216   -1.614648
    143          1           0        3.565278    4.876805   -0.085196
    144          1           0        6.838801    5.610368    0.014392
    145          1           0        6.488310    4.287240    1.181662
    146          1           0        5.328497    5.486413    0.912500
    147          1           0        4.101842    5.828168   -2.360898
    148          1           0        2.465840    5.224229   -2.177244
    149          1           0        4.808458    4.191349   -3.601125
    150          1           0        3.114949    4.296816   -4.205879
    151          1           0        3.647202    2.964332   -3.085379
    152          1           0       -1.836336    1.656295   -0.602703
    153          1           0       -0.686344    3.024249   -0.453031
    154          1           0       -1.209568    2.148500    1.040805
    155          1           0       -0.092692   -2.770872    1.966550
    156          1           0       -2.217882   -6.290036    0.669672
    157          1           0       -0.428183   -6.787915    0.399402
    158          1           0       -1.451914   -5.944886   -0.789511
 ---------------------------------------------------------------------

 SCF Done:  E(RCAM-B3LYP) =  -4069.75247330     A.U. after   19 cycles

 Excitation energies and oscillator strengths:

 Excited State   1:      Singlet-A      1.6298 eV  760.75 nm  f=0.4233  <S**2>=0.000
     309 -> 315        0.13726
     311 -> 313        0.54130
     312 -> 313        0.32050
     312 -> 314       -0.27148
 This state for optimization and/or second-order correction.
 Total Energy, E(TD-HF/TD-DFT) =  -4069.69258096
 Copying the excited state density for this state as the 1-particle RhoCI density.

 Excited State   2:      Singlet-A      1.6724 eV  741.34 nm  f=0.3726  <S**2>=0.000
     310 -> 316        0.13943
     311 -> 313        0.35646
     312 -> 313       -0.12641
     312 -> 314        0.56887

 Excited State   3:      Singlet-A      1.7807 eV  696.28 nm  f=0.0430  <S**2>=0.000
     311 -> 313       -0.21176
     312 -> 313        0.61046
     312 -> 314        0.26146

 Excited State   4:      Singlet-A      2.1029 eV  589.59 nm  f=0.0346  <S**2>=0.000
     309 -> 313       -0.19500
     310 -> 313       -0.12379
     310 -> 314        0.59309
     311 -> 314        0.16621
     312 -> 316       -0.21836

 Excited State   5:      Singlet-A      2.1719 eV  570.86 nm  f=0.1267  <S**2>=0.000
     309 -> 313        0.61625
     310 -> 314        0.16989
     311 -> 315       -0.24735

 The electronic state is 1-A.
 Alpha  occ. eigenvalues --  -46.87971 -46.86048 -19.26464 -19.25476 -19.19144
 Alpha  occ. eigenvalues --  -19.19014 -19.18945 -19.18036 -19.17841 -19.17143
 Alpha  occ. eigenvalues --  -14.42792 -14.41640 -14.40458 -14.39910 -14.39683
 Alpha  occ. eigenvalues --  -14.38988 -14.37920 -14.37239 -10.38868 -10.37867
 Alpha  occ. eigenvalues --  -10.35683 -10.35106 -10.34687 -10.33336 -10.31691
 Alpha  occ. eigenvalues --  -10.31437 -10.31284 -10.30867 -10.30789 -10.30785
 Alpha  occ. eigenvalues --  -10.30334 -10.30236 -10.29836 -10.29830 -10.29815
 Alpha  occ. eigenvalues --  -10.29366 -10.29317 -10.29178 -10.29169 -10.28939
 Alpha  occ. eigenvalues --  -10.28848 -10.28804 -10.28749 -10.28580 -10.28569
 Alpha  occ. eigenvalues --  -10.28409 -10.28156 -10.27995 -10.27852 -10.27790
 Alpha  occ. eigenvalues --  -10.27760 -10.27614 -10.27534 -10.27526 -10.27264
 Alpha  occ. eigenvalues --  -10.27247 -10.27060 -10.26937 -10.26834 -10.26809
 Alpha  occ. eigenvalues --  -10.26789 -10.26733 -10.26680 -10.26667 -10.26646
 Alpha  occ. eigenvalues --  -10.26561 -10.26431 -10.26315 -10.26168 -10.26151
 Alpha  occ. eigenvalues --  -10.26083 -10.26029 -10.26011 -10.25827 -10.25523
 Alpha  occ. eigenvalues --  -10.25508 -10.25094 -10.25074 -10.25074 -10.25012
 Alpha  occ. eigenvalues --  -10.24996 -10.24988 -10.24863 -10.24796 -10.23732
 Alpha  occ. eigenvalues --  -10.23657  -3.16718  -3.14899  -1.91599  -1.91187
 Alpha  occ. eigenvalues --   -1.91028  -1.89815  -1.89345  -1.89220  -1.16659
 Alpha  occ. eigenvalues --   -1.15774  -1.10088  -1.07602  -1.07257  -1.06781
 Alpha  occ. eigenvalues --   -1.06463  -1.05524  -1.04815  -1.03989  -1.03380
 Alpha  occ. eigenvalues --   -1.03094  -1.02496  -1.02332  -1.02041  -1.01127
 Alpha  occ. eigenvalues --   -0.92391  -0.90749  -0.89759  -0.89441  -0.88988
 Alpha  occ. eigenvalues --   -0.88824  -0.88412  -0.87969  -0.87762  -0.87480
 Alpha  occ. eigenvalues --   -0.87458  -0.86813  -0.86472  -0.86302  -0.85280
 Alpha  occ. eigenvalues --   -0.84109  -0.83895  -0.83430  -0.83184  -0.82917
 Alpha  occ. eigenvalues --   -0.82256  -0.82103  -0.81696  -0.80933  -0.80606
 Alpha  occ. eigenvalues --   -0.79537  -0.79205  -0.77784  -0.77589  -0.77298
 Alpha  occ. eigenvalues --   -0.76488  -0.76368  -0.75718  -0.75094  -0.74896
 Alpha  occ. eigenvalues --   -0.74132  -0.73303  -0.71935  -0.71716  -0.70615
 Alpha  occ. eigenvalues --   -0.69928  -0.69542  -0.69186  -0.68042  -0.67840
 Alpha  occ. eigenvalues --   -0.67463  -0.66639  -0.66205  -0.65575  -0.65147
 Alpha  occ. eigenvalues --   -0.64966  -0.64476  -0.64256  -0.63817  -0.63712
 Alpha  occ. eigenvalues --   -0.63230  -0.62533  -0.61426  -0.60702  -0.60284
 Alpha  occ. eigenvalues --   -0.59724  -0.59485  -0.59134  -0.58569  -0.58445
 Alpha  occ. eigenvalues --   -0.58004  -0.57578  -0.57411  -0.57228  -0.56935
 Alpha  occ. eigenvalues --   -0.56514  -0.56333  -0.56008  -0.55873  -0.55405
 Alpha  occ. eigenvalues --   -0.55181  -0.55047  -0.54726  -0.54585  -0.54288
 Alpha  occ. eigenvalues --   -0.54176  -0.54025  -0.53698  -0.53398  -0.53211
 Alpha  occ. eigenvalues --   -0.53086  -0.52931  -0.52641  -0.52406  -0.52311
 Alpha  occ. eigenvalues --   -0.52200  -0.52013  -0.51970  -0.51830  -0.51575
 Alpha  occ. eigenvalues --   -0.50962  -0.50797  -0.50667  -0.50527  -0.50284
 Alpha  occ. eigenvalues --   -0.50199  -0.50056  -0.49845  -0.49787  -0.49723
 Alpha  occ. eigenvalues --   -0.49413  -0.49301  -0.49134  -0.48862  -0.48675
 Alpha  occ. eigenvalues --   -0.48258  -0.48147  -0.48116  -0.47949  -0.47883
 Alpha  occ. eigenvalues --   -0.47725  -0.47605  -0.47522  -0.47330  -0.47088
 Alpha  occ. eigenvalues --   -0.46854  -0.46772  -0.46686  -0.46425  -0.46211
 Alpha  occ. eigenvalues --   -0.45930  -0.45678  -0.45473  -0.45396  -0.45155
 Alpha  occ. eigenvalues --   -0.45132  -0.44799  -0.44746  -0.44659  -0.44325
 Alpha  occ. eigenvalues --   -0.44287  -0.44243  -0.43871  -0.43704  -0.43628
 Alpha  occ. eigenvalues --   -0.43490  -0.43415  -0.43299  -0.43112  -0.42999
 Alpha  occ. eigenvalues --   -0.42795  -0.42592  -0.42419  -0.42361  -0.42274
 Alpha  occ. eigenvalues --   -0.42124  -0.42047  -0.41777  -0.41635  -0.41553
 Alpha  occ. eigenvalues --   -0.41310  -0.41091  -0.40964  -0.40906  -0.40720
 Alpha  occ. eigenvalues --   -0.40410  -0.40392  -0.40204  -0.39928  -0.39715
 Alpha  occ. eigenvalues --   -0.39604  -0.39559  -0.39161  -0.38956  -0.38496
 Alpha  occ. eigenvalues --   -0.38320  -0.37882  -0.37589  -0.37473  -0.37418
 Alpha  occ. eigenvalues --   -0.37063  -0.36551  -0.36219  -0.36101  -0.35711
 Alpha  occ. eigenvalues --   -0.35214  -0.34608  -0.33836  -0.33448  -0.33402
 Alpha  occ. eigenvalues --   -0.32946  -0.32468  -0.32014  -0.31557  -0.31298
 Alpha  occ. eigenvalues --   -0.30713  -0.30571  -0.30263  -0.29642  -0.29291
 Alpha  occ. eigenvalues --   -0.28964  -0.28336  -0.28194  -0.24335  -0.22549
 Alpha  occ. eigenvalues --   -0.21443  -0.19949
 Alpha virt. eigenvalues --   -0.09204  -0.07525  -0.01980  -0.00718  -0.00429
 Alpha virt. eigenvalues --    0.01028   0.01574   0.03057   0.03234   0.04463
 Alpha virt. eigenvalues --    0.04726   0.05902   0.05957   0.06322   0.06655

 Mulliken charges:
               1
     1  Mg   0.486150
     2  C    0.016302
     3  C   -0.097614
     4  C   -0.048800
     5  C   -0.054607
     6  N   -0.213467
     7  C   -0.026619
     8  C   -0.001981
     9  C   -0.085994
    10  C    0.058881
    11  C    0.107816
    12  C    0.049438
    13  C   -0.081071
    14  H    0.049626
    15  N   -0.415146
    16  C    0.173683
    17  C   -0.180390
    18  C   -0.009195
    19  C    0.137102
    20  C    0.111510
    21  C    0.008582
    22  O   -0.253795
    23  C    0.064184
    24  N   -0.302865
    25  C    0.041140
    26  C   -0.025099
    27  C   -0.022115
    28  C    0.055477
    29  C    0.078306
    30  C    0.056436
    31  C   -0.037136
    32  N   -0.304867
    33  C    0.075728
    34  C   -0.174486
    35  C    0.013589
    36  C    0.080865
    37  C    0.129055
    38  C    0.044643
    39  O   -0.192065
    40  C   -0.013607
    41  C    0.206778
    42  O   -0.235533
    43  O   -0.306132
    44  C    0.154619
    45  H   -0.023768
    46  H   -0.023357
    47  H   -0.048224
    48  H   -0.011953
    49  H   -0.010918
    50  H    0.023184
    51  H    0.015026
    52  H    0.011085
    53  H    0.011873
    54  H    0.050580
    55  H    0.008035
    56  H    0.013507
    57  H    0.004919
    58  H    0.023789
    59  H    0.034618
    60  H    0.036796
    61  H    0.032101
    62  H    0.028970
    63  H    0.009186
    64  H    0.008159
    65  H    0.019973
    66  H    0.014334
    67  H    0.002897
    68  H    0.004120
    69  H    0.002784
    70  H    0.014309
    71  H    0.025688
    72  H    0.030484
    73  H    0.044911
    74  H    0.005639
    75  H    0.043615
    76  H    0.032048
    77  H    0.041524
    78  H    0.034377
    79  H    0.064802
    80  Mg   0.843133
    81  C   -0.021494
    82  C   -0.087823
    83  C   -0.045237
    84  C   -0.063924
    85  N   -0.255217
    86  C   -0.052982
    87  C   -0.015203
    88  C   -0.090626
    89  C    0.047552
    90  C    0.114375
    91  C    0.062683
    92  C   -0.077272
    93  H    0.036237
    94  N   -0.423818
    95  C    0.164914
    96  C   -0.173565
    97  C   -0.006555
    98  C    0.153386
    99  C    0.099020
   100  C    0.016537
   101  O   -0.251559
   102  C    0.060774
   103  N   -0.350022
   104  C    0.039788
   105  C   -0.021010
   106  C   -0.034500
   107  C    0.085854
   108  C    0.072965
   109  C    0.033952
   110  C   -0.007077
   111  N   -0.324468
   112  C    0.079252
   113  C   -0.121526
   114  C    0.012772
   115  C    0.100933
   116  C    0.107763
   117  C    0.082637
   118  O   -0.189280
   119  C    0.027609
   120  C    0.203350
   121  O   -0.213902
   122  O   -0.320557
   123  C    0.223049
   124  H   -0.018793
   125  H   -0.014245
   126  H   -0.040175
   127  H   -0.001582
   128  H   -0.003415
   129  H    0.021763
   130  H    0.014566
   131  H    0.016871
   132  H    0.013851
   133  H    0.041843
   134  H    0.019326
   135  H    0.019170
   136  H    0.009604
   137  H    0.027277
   138  H    0.041337
   139  H    0.038548
   140  H    0.037558
   141  H    0.034607
   142  H    0.015129
   143  H    0.015193
   144  H    0.025655
   145  H    0.011419
   146  H    0.008121
   147  H    0.005457
   148  H    0.002218
   149  H    0.010590
   150  H    0.017284
   151  H    0.030392
   152  H    0.149477
   153  H    0.005970
   154  H    0.150671
   155  H    0.031059
   156  H   -0.043103
   157  H    0.043348
   158  H    0.049652
 Sum of Mulliken charges =  -0.00000

 Dipole moment (field-independent basis, Debye):
    X=              3.9343    Y=             -3.3834    Z=              5.7020  Tot=              7.7097
 Quadrupole moment (field-independent basis, Debye-Ang):
   XX=           -498.0842   YY=           -477.0671   ZZ=           -516.8718
   XY=            -25.6123   XZ=             -7.5553   YZ=            -42.3937

 Normal termination of Gaussian 16 at Thu Sep  9 01:20:40 2021.
