 Gaussian 16, Revision A.03,
 Gaussian 16:  ES64L-G16RevA.03 25-Dec-2016

 -----------------------------------
 #p cam-b3lyp/Def2SVP td=(nstates=5)
 -----------------------------------

 --------------------------------
 TDDFT excited states in gaussian
 --------------------------------
 Symbolic Z-matrix:
 Charge =  0 Multiplicity = 1

                         Standard orientation:
 ---------------------------------------------------------------------
 Center     Atomic      Atomic             Coordinates (Angstroms)
 Number     Number       Type             X           Y           Z
 ---------------------------------------------------------------------
      1         12           0      -15.790765    0.718758    0.260668
      2          6           0      -16.032812   -2.411843   -1.457750
      3          6           0      -16.607712   -0.956510    3.118839
      4          6           0      -16.028667    3.529048    1.710598
      5          6           0      -16.115660    2.277436   -2.839433
      6          7           0      -16.238017   -1.413485    0.653287
      7          6           0      -16.238321   -2.521843   -0.080684
      8          6           0      -16.402662   -3.821394    0.762839
      9          6           0      -17.128157   -3.202173    2.040423
     10          6           0      -16.599858   -1.781086    1.954774
     11          6           0      -18.648431   -3.169033    1.921387
     12          6           0      -15.025273   -4.462899    1.140993
     13          6           0      -15.097053   -5.895367    1.677870
     14          1           0      -14.029259   -6.824267    1.339774
     15          7           0      -15.769663    1.174564    2.182814
     16          6           0      -16.118279    0.364402    3.211110
     17          6           0      -15.931880    1.163818    4.441098
     18          6           0      -15.628502    2.563488    4.032467
     19          6           0      -15.825183    2.483066    2.607606
     20          6           0      -15.997966    0.580754    5.819292
     21          6           0      -15.235524    3.782914    4.804930
     22          8           0      -15.245850    4.950537    4.284235
     23          6           0      -14.919061    3.583619    6.230824
     24          7           0      -16.256451    2.634999   -0.424018
     25          6           0      -16.232564    3.687368    0.401168
     26          6           0      -16.318748    4.978343   -0.357710
     27          6           0      -16.161539    4.595845   -1.900024
     28          6           0      -16.090124    3.055661   -1.755099
     29          6           0      -17.609501    5.785372   -0.161062
     30          6           0      -15.040859    5.314894   -2.692150
     31          6           0      -13.687440    4.875071   -2.180376
     32          7           0      -15.854998    0.082550   -1.813496
     33          6           0      -16.018545    0.899739   -2.941383
     34          6           0      -16.108361    0.007581   -4.111877
     35          6           0      -16.006790   -1.275703   -3.578294
     36          6           0      -15.889025   -1.191592   -2.161485
     37          6           0      -16.321633    0.417347   -5.457626
     38          6           0      -15.995105   -2.699359   -3.873124
     39          8           0      -15.968179   -3.370930   -4.905480
     40          6           0      -16.133984   -3.496272   -2.501457
     41          6           0      -15.087743   -4.577316   -2.495937
     42          8           0      -13.873706   -4.292404   -2.447927
     43          8           0      -15.679003   -5.767239   -2.308755
     44          6           0      -14.693610   -6.880394   -2.263568
     45          1           0      -17.083836   -1.330466    4.027356
     46          1           0      -16.006098    4.524543    2.158836
     47          1           0      -16.132726    2.695433   -3.847620
     48          1           0      -17.036657   -4.582049    0.306901
     49          1           0      -16.797122   -3.674422    2.965150
     50          1           0      -18.976275   -3.458228    0.922985
     51          1           0      -18.934505   -2.138435    2.132394
     52          1           0      -19.111323   -3.774169    2.701335
     53          1           0      -14.621379   -3.956282    2.017502
     54          1           0      -14.338570   -4.429147    0.294455
     55          1           0      -16.070867   -6.345619    1.483270
     56          1           0      -15.029001   -5.856436    2.765093
     57          1           0      -16.400184   -0.431479    5.807049
     58          1           0      -16.735664    1.159469    6.374810
     59          1           0      -15.035892    0.624599    6.330001
     60          1           0      -15.785494    3.155462    6.735329
     61          1           0      -14.573331    4.548581    6.599836
     62          1           0      -14.119864    2.846688    6.315481
     63          1           0      -15.512911    5.653720   -0.073247
     64          1           0      -17.067276    4.808326   -2.468501
     65          1           0      -17.440572    6.800843    0.198087
     66          1           0      -18.252827    5.231047    0.521686
     67          1           0      -18.242656    5.857452   -1.044994
     68          1           0      -15.104489    6.392576   -2.545526
     69          1           0      -15.080800    5.123153   -3.764480
     70          1           0      -13.531722    5.521430   -1.317355
     71          1           0      -12.921197    5.043713   -2.937768
     72          1           0      -13.713840    3.847465   -1.817315
     73          1           0      -15.636474   -0.170998   -6.067852
     74          1           0      -16.143000    1.485465   -5.579355
     75          1           0      -17.371020    0.152239   -5.585536
     76          1           0      -17.144068   -3.903997   -2.476692
     77          1           0      -14.990631   -7.603052   -3.023684
     78          1           0      -14.657719   -7.220638   -1.228507
     79          1           0      -13.681195   -6.641540   -2.591143
     80         12           0       15.960149    0.685863   -0.400475
     81          6           0       15.778953   -2.633345    0.951970
     82          6           0       15.149510    1.835376    2.706943
     83          6           0       15.669546    3.584744   -1.657257
     84          6           0       15.624670   -0.734873   -3.565071
     85          7           0       15.543220   -0.361673    1.502438
     86          6           0       15.564382   -1.621471    1.910880
     87          6           0       15.422935   -1.802345    3.446078
     88          6           0       14.671560   -0.423519    3.782445
     89          6           0       15.175588    0.420895    2.613854
     90          6           0       13.158457   -0.522733    3.682382
     91          6           0       16.813210   -1.889900    4.168215
     92          6           0       16.755092   -2.374034    5.618735
     93          1           0       17.846584   -3.204938    6.119440
     94          7           0       15.964223    2.469334    0.470026
     95          6           0       15.628527    2.752754    1.746060
     96          6           0       15.777730    4.209451    1.887258
     97          6           0       16.069936    4.783292    0.545610
     98          6           0       15.888015    3.611604   -0.287546
     99          6           0       15.720662    4.908398    3.214534
    100          6           0       16.438053    6.161742    0.086729
    101          8           0       16.413191    6.487922   -1.152552
    102          6           0       16.738093    7.144458    1.138264
    103          7           0       15.475252    1.353154   -2.308866
    104          6           0       15.470726    2.665391   -2.602021
    105          6           0       15.365205    2.891228   -4.091402
    106          6           0       15.544087    1.448768   -4.758402
    107          6           0       15.637024    0.588243   -3.479239
    108          6           0       14.059018    3.518324   -4.578258
    109          6           0       16.658637    1.302374   -5.830317
    110          6           0       18.017712    1.452952   -5.185625
    111          7           0       15.925528   -1.316768   -1.210610
    112          6           0       15.748978   -1.687381   -2.561750
    113          6           0       15.682336   -3.162598   -2.603412
    114          6           0       15.802605   -3.550009   -1.260304
    115          6           0       15.914588   -2.396827   -0.437424
    116          6           0       15.481758   -3.953663   -3.769645
    117          6           0       15.849614   -4.671910   -0.350441
    118          8           0       15.887554   -5.894778   -0.480419
    119          6           0       15.709329   -4.124066    1.135017
    120          6           0       16.773528   -4.777466    1.973494
    121          8           0       17.976762   -4.546643    1.760065
    122          8           0       16.193897   -5.391925    3.020800
    123          6           0       17.209908   -6.045598    3.888133
    124          1           0       14.679751    2.289293    3.579963
    125          1           0       15.672078    4.557583   -2.154292
    126          1           0       15.619489   -1.257640   -4.523913
    127          1           0       14.810865   -2.643059    3.749945
    128          1           0       15.012058   -0.008496    4.727528
    129          1           0       12.842601   -1.475968    3.285267
    130          1           0       12.853823    0.280808    3.024698
    131          1           0       12.701610   -0.307671    4.652623
    132          1           0       17.200158   -0.874688    4.324352
    133          1           0       17.494623   -2.502011    3.609989
    134          1           0       15.785567   -2.824098    5.864526
    135          1           0       16.821846   -1.504868    6.277597
    136          1           0       15.328310    4.249961    3.999345
    137          1           0       14.970953    5.702101    3.125978
    138          1           0       16.676448    5.354964    3.496854
    139          1           0       15.876944    7.245423    1.794528
    140          1           0       17.065857    8.043635    0.612992
    141          1           0       17.559009    6.759130    1.753277
    142          1           0       16.158109    3.540902   -4.441160
    143          1           0       14.634214    1.128651   -5.287069
    144          1           0       14.210084    4.454990   -5.147386
    145          1           0       13.423619    3.693012   -3.720182
    146          1           0       13.438971    2.871995   -5.197117
    147          1           0       16.577191    2.100092   -6.572725
    148          1           0       16.622004    0.359388   -6.365515
    149          1           0       18.151273    2.538009   -5.141946
    150          1           0       18.786046    0.985026   -5.797787
    151          1           0       18.007775    1.080289   -4.154762
    152          1           0       16.173591   -4.783012   -3.706077
    153          1           0       15.638692   -3.372604   -4.676020
    154          1           0       14.433100   -4.233241   -3.637702
    155          1           0       14.705364   -4.371530    1.481997
    156          1           0       16.926753   -7.099268    3.973538
    157          1           0       17.231726   -5.452607    4.821750
    158          1           0       18.219345   -6.128450    3.502625
 ---------------------------------------------------------------------

 SCF Done:  E(RCAM-B3LYP) =  -4069.81176196     A.U. after   19 cycles

 Excitation energies and oscillator strengths:

 Excited State   1:      Singlet-A      1.6755 eV  740.00 nm  f=0.3176  <S**2>=0.000
     310 -> 316        0.17145
     311 -> 314       -0.10740
     312 -> 313        0.67759
     310 <- 316        0.10335
 This state for optimization and/or second-order correction.
 Total Energy, E(TD-HF/TD-DFT) =  -4069.75018995
 Copying the excited state density for this state as the 1-particle RhoCI density.

 Excited State   2:      Singlet-A      1.6799 eV  738.03 nm  f=0.4590  <S**2>=0.000
     309 -> 315        0.17339
     311 -> 314        0.67723
     312 -> 313        0.10737
     309 <- 315        0.10382

 Excited State   3:      Singlet-A      2.1861 eV  567.15 nm  f=0.0999  <S**2>=0.000
     310 -> 313        0.64236
     312 -> 316       -0.27308

 Excited State   4:      Singlet-A      2.1925 eV  565.50 nm  f=0.1008  <S**2>=0.000
     309 -> 314        0.64059
     311 -> 315       -0.27821

 Excited State   5:      Singlet-A      3.0657 eV  404.42 nm  f=0.0000  <S**2>=0.000
     311 -> 313        0.70711

 The electronic state is 1-A.
 Alpha  occ. eigenvalues --  -46.87796 -46.87661 -19.26353 -19.26278 -19.19164
 Alpha  occ. eigenvalues --  -19.19015 -19.18817 -19.18714 -19.18167 -19.18052
 Alpha  occ. eigenvalues --  -14.42498 -14.42449 -14.41449 -14.41359 -14.39402
 Alpha  occ. eigenvalues --  -14.39352 -14.38600 -14.38586 -10.39093 -10.39075
 Alpha  occ. eigenvalues --  -10.35450 -10.35391 -10.34387 -10.34230 -10.31761
 Alpha  occ. eigenvalues --  -10.31672 -10.31403 -10.31310 -10.31024 -10.30908
 Alpha  occ. eigenvalues --  -10.30569 -10.30507 -10.30398 -10.30361 -10.30207
 Alpha  occ. eigenvalues --  -10.30140 -10.29920 -10.29894 -10.29630 -10.29437
 Alpha  occ. eigenvalues --  -10.29401 -10.29254 -10.28746 -10.28721 -10.28659
 Alpha  occ. eigenvalues --  -10.28533 -10.28405 -10.28364 -10.28142 -10.28114
 Alpha  occ. eigenvalues --  -10.28001 -10.27792 -10.27726 -10.27670 -10.27584
 Alpha  occ. eigenvalues --  -10.27516 -10.27502 -10.27484 -10.27482 -10.27468
 Alpha  occ. eigenvalues --  -10.27465 -10.27450 -10.27402 -10.27373 -10.27155
 Alpha  occ. eigenvalues --  -10.27052 -10.26701 -10.26696 -10.26415 -10.26414
 Alpha  occ. eigenvalues --  -10.26232 -10.26185 -10.26135 -10.26026 -10.26019
 Alpha  occ. eigenvalues --  -10.25934 -10.25850 -10.25842 -10.25437 -10.25393
 Alpha  occ. eigenvalues --  -10.24873 -10.24832 -10.24787 -10.24729 -10.24690
 Alpha  occ. eigenvalues --  -10.24689  -3.16539  -3.16411  -1.91420  -1.91293
 Alpha  occ. eigenvalues --   -1.91007  -1.90881  -1.90849  -1.90718  -1.16647
 Alpha  occ. eigenvalues --   -1.16627  -1.08659  -1.08625  -1.07218  -1.06966
 Alpha  occ. eigenvalues --   -1.06948  -1.06637  -1.04580  -1.04496  -1.03760
 Alpha  occ. eigenvalues --   -1.03663  -1.03233  -1.03039  -1.02410  -1.02111
 Alpha  occ. eigenvalues --   -0.91988  -0.91970  -0.89520  -0.89494  -0.89185
 Alpha  occ. eigenvalues --   -0.89153  -0.88287  -0.88219  -0.87869  -0.87794
 Alpha  occ. eigenvalues --   -0.87684  -0.87672  -0.87274  -0.87120  -0.85001
 Alpha  occ. eigenvalues --   -0.84980  -0.83936  -0.83875  -0.82969  -0.82931
 Alpha  occ. eigenvalues --   -0.82654  -0.82647  -0.81598  -0.81583  -0.80595
 Alpha  occ. eigenvalues --   -0.80444  -0.78797  -0.78636  -0.77217  -0.77145
 Alpha  occ. eigenvalues --   -0.76932  -0.76899  -0.75921  -0.75840  -0.74898
 Alpha  occ. eigenvalues --   -0.74802  -0.72773  -0.72699  -0.71671  -0.71581
 Alpha  occ. eigenvalues --   -0.69908  -0.69756  -0.68871  -0.68828  -0.67640
 Alpha  occ. eigenvalues --   -0.67602  -0.67218  -0.67202  -0.65284  -0.65273
 Alpha  occ. eigenvalues --   -0.64852  -0.64771  -0.64655  -0.64619  -0.64269
 Alpha  occ. eigenvalues --   -0.64203  -0.62294  -0.62280  -0.60442  -0.60340
 Alpha  occ. eigenvalues --   -0.59802  -0.59798  -0.58993  -0.58986  -0.58502
 Alpha  occ. eigenvalues --   -0.58426  -0.57582  -0.57556  -0.57308  -0.57236
 Alpha  occ. eigenvalues --   -0.56309  -0.56205  -0.55974  -0.55889  -0.55520
 Alpha  occ. eigenvalues --   -0.55453  -0.55338  -0.55247  -0.54521  -0.54488
 Alpha  occ. eigenvalues --   -0.53914  -0.53892  -0.53298  -0.53228  -0.53221
 Alpha  occ. eigenvalues --   -0.53143  -0.52913  -0.52904  -0.52756  -0.52669
 Alpha  occ. eigenvalues --   -0.52439  -0.52400  -0.51913  -0.51885  -0.51660
 Alpha  occ. eigenvalues --   -0.51615  -0.51202  -0.51194  -0.50574  -0.50475
 Alpha  occ. eigenvalues --   -0.50032  -0.49980  -0.49918  -0.49866  -0.49513
 Alpha  occ. eigenvalues --   -0.49489  -0.49213  -0.49203  -0.49106  -0.49094
 Alpha  occ. eigenvalues --   -0.48591  -0.48560  -0.48462  -0.48445  -0.48375
 Alpha  occ. eigenvalues --   -0.48339  -0.47694  -0.47595  -0.47296  -0.47118
 Alpha  occ. eigenvalues --   -0.46796  -0.46709  -0.46555  -0.46553  -0.46358
 Alpha  occ. eigenvalues --   -0.46271  -0.46161  -0.46085  -0.45823  -0.45819
 Alpha  occ. eigenvalues --   -0.45208  -0.45201  -0.44576  -0.44515  -0.44507
 Alpha  occ. eigenvalues --   -0.44477  -0.44144  -0.44128  -0.44086  -0.44078
 Alpha  occ. eigenvalues --   -0.44018  -0.43940  -0.43555  -0.43492  -0.43386
 Alpha  occ. eigenvalues --   -0.43384  -0.43026  -0.42932  -0.42902  -0.42696
 Alpha  occ. eigenvalues --   -0.42653  -0.42553  -0.42008  -0.41964  -0.41703
 Alpha  occ. eigenvalues --   -0.41670  -0.41531  -0.41460  -0.41140  -0.40990
 Alpha  occ. eigenvalues --   -0.40868  -0.40824  -0.40723  -0.40699  -0.40571
 Alpha  occ. eigenvalues --   -0.40493  -0.40231  -0.40229  -0.39442  -0.39424
 Alpha  occ. eigenvalues --   -0.38469  -0.38349  -0.37745  -0.37656  -0.37320
 Alpha  occ. eigenvalues --   -0.37266  -0.37261  -0.37201  -0.36773  -0.36710
 Alpha  occ. eigenvalues --   -0.36217  -0.36190  -0.34285  -0.34254  -0.33864
 Alpha  occ. eigenvalues --   -0.33766  -0.33185  -0.33176  -0.31346  -0.31273
 Alpha  occ. eigenvalues --   -0.31035  -0.30973  -0.30026  -0.29957  -0.29449
 Alpha  occ. eigenvalues --   -0.29327  -0.29321  -0.29212  -0.24080  -0.24036
 Alpha  occ. eigenvalues --   -0.21127  -0.21117
 Alpha virt. eigenvalues --   -0.08792  -0.08774  -0.01749  -0.01684  -0.00058
 Alpha virt. eigenvalues --   -0.00029   0.02202   0.02207   0.03123   0.03226
 Alpha virt. eigenvalues --    0.04720   0.04729   0.05103   0.05163   0.06180

 Mulliken charges:
               1
     1  Mg   0.838791
     2  C   -0.002948
     3  C   -0.094116
     4  C   -0.045905
     5  C   -0.063952
     6  N   -0.256773
     7  C   -0.052474
     8  C   -0.014005
     9  C   -0.087019
    10  C    0.046331
    11  C    0.104816
    12  C    0.053478
    13  C   -0.071834
    14  H    0.036190
    15  N   -0.433161
    16  C    0.168413
    17  C   -0.177156
    18  C   -0.004023
    19  C    0.148710
    20  C    0.110181
    21  C    0.012266
    22  O   -0.249656
    23  C    0.062483
    24  N   -0.341157
    25  C    0.041266
    26  C   -0.028165
    27  C   -0.023976
    28  C    0.074829
    29  C    0.076167
    30  C    0.035135
    31  C   -0.004500
    32  N   -0.310478
    33  C    0.080421
    34  C   -0.169717
    35  C    0.008373
    36  C    0.082993
    37  C    0.127310
    38  C    0.046128
    39  O   -0.188400
    40  C   -0.005349
    41  C    0.212887
    42  O   -0.257098
    43  O   -0.304799
    44  C    0.157673
    45  H   -0.017602
    46  H   -0.016861
    47  H   -0.041492
    48  H    0.000958
    49  H   -0.004024
    50  H    0.025481
    51  H    0.016434
    52  H    0.016667
    53  H    0.011194
    54  H    0.044135
    55  H    0.017881
    56  H    0.017947
    57  H    0.005886
    58  H    0.026810
    59  H    0.039527
    60  H    0.037351
    61  H    0.035604
    62  H    0.031487
    63  H    0.016529
    64  H    0.009464
    65  H    0.023190
    66  H    0.012550
    67  H    0.004755
    68  H    0.006347
    69  H    0.004738
    70  H    0.008755
    71  H    0.018140
    72  H    0.028994
    73  H    0.047590
    74  H    0.009105
    75  H    0.046018
    76  H    0.035163
    77  H    0.042975
    78  H    0.046411
    79  H    0.053714
    80  Mg   0.837878
    81  C   -0.016837
    82  C   -0.087794
    83  C   -0.045504
    84  C   -0.064854
    85  N   -0.254577
    86  C   -0.049843
    87  C   -0.015082
    88  C   -0.090505
    89  C    0.045747
    90  C    0.114387
    91  C    0.062517
    92  C   -0.077879
    93  H    0.034879
    94  N   -0.423502
    95  C    0.162928
    96  C   -0.174618
    97  C   -0.007794
    98  C    0.152124
    99  C    0.099364
   100  C    0.015582
   101  O   -0.253152
   102  C    0.061201
   103  N   -0.350066
   104  C    0.037543
   105  C   -0.019863
   106  C   -0.034821
   107  C    0.088931
   108  C    0.073636
   109  C    0.034714
   110  C   -0.007674
   111  N   -0.324108
   112  C    0.078446
   113  C   -0.163114
   114  C    0.002237
   115  C    0.096193
   116  C    0.131491
   117  C    0.042397
   118  O   -0.187876
   119  C    0.000924
   120  C    0.211240
   121  O   -0.251016
   122  O   -0.305629
   123  C    0.152022
   124  H   -0.019662
   125  H   -0.015543
   126  H   -0.040414
   127  H   -0.000661
   128  H   -0.004342
   129  H    0.022471
   130  H    0.014458
   131  H    0.016267
   132  H    0.013922
   133  H    0.037673
   134  H    0.020775
   135  H    0.019584
   136  H    0.008753
   137  H    0.026170
   138  H    0.039790
   139  H    0.038263
   140  H    0.036412
   141  H    0.033885
   142  H    0.014406
   143  H    0.012481
   144  H    0.025170
   145  H    0.011664
   146  H    0.005743
   147  H    0.006302
   148  H    0.003675
   149  H    0.010935
   150  H    0.017935
   151  H    0.030078
   152  H    0.045999
   153  H    0.008538
   154  H    0.046994
   155  H    0.035036
   156  H    0.043903
   157  H    0.049483
   158  H    0.053581
 Sum of Mulliken charges =  -0.00000

 Dipole moment (field-independent basis, Debye):
    X=             -3.8481    Y=              2.1805    Z=              7.1504  Tot=              8.4078
 Quadrupole moment (field-independent basis, Debye-Ang):
   XX=           -516.8125   YY=           -532.4266   ZZ=           -466.4387
   XY=             55.9000   XZ=            -16.9030   YZ=            -30.5371

 Normal termination of Gaussian 16 at Sun Sep 12 18:06:53 2021.
