 Gaussian 16, Revision A.03,
 Gaussian 16:  ES64L-G16RevA.03 25-Dec-2016

 -----------------------------------
 #p cam-b3lyp/Def2SVP td=(nstates=5)
 -----------------------------------

 --------------------------------
 TDDFT excited states in gaussian
 --------------------------------
 Symbolic Z-matrix:
 Charge =  0 Multiplicity = 1

                         Standard orientation:
 ---------------------------------------------------------------------
 Center     Atomic      Atomic             Coordinates (Angstroms)
 Number     Number       Type             X           Y           Z
 ---------------------------------------------------------------------
      1         12           0        4.344441   -0.753097    0.555278
      2          6           0        5.047507    1.824648   -1.826558
      3          6           0        5.532629    1.353110    2.962594
      4          6           0        4.158427   -3.165975    2.604678
      5          6           0        4.292088   -2.997603   -2.110263
      6          7           0        5.157249    1.303650    0.456384
      7          6           0        5.317561    2.202853   -0.509487
      8          6           0        5.727861    3.610102    0.018412
      9          6           0        6.384125    3.177140    1.405445
     10          6           0        5.621891    1.885261    1.642034
     11          6           0        7.871999    2.857689    1.302091
     12          6           0        4.492190    4.546650    0.236876
     13          6           0        4.822694    6.028741    0.435689
     14          1           0        3.914750    7.027691   -0.107530
     15          7           0        4.315644   -0.756937    2.530628
     16          6           0        4.831858    0.190457    3.349928
     17          6           0        4.557808   -0.269459    4.728353
     18          6           0        4.009231   -1.651637    4.646254
     19          6           0        4.165676   -1.926891    3.240857
     20          6           0        4.770021    0.586809    5.938940
     21          6           0        3.444793   -2.581370    5.673453
     22          8           0        3.240244   -3.819840    5.430707
     23          6           0        3.217372   -2.016950    7.016118
     24          7           0        4.456877   -2.824673    0.323837
     25          6           0        4.285991   -3.645711    1.365797
     26          6           0        4.126955   -5.068818    0.919240
     27          6           0        3.981324   -5.019753   -0.670142
     28          6           0        4.174875   -3.497381   -0.877968
     29          6           0        5.269973   -6.020756    1.297835
     30          6           0        2.728246   -5.694351   -1.282622
     31          6           0        1.487075   -4.925538   -0.888262
     32          7           0        4.440613   -0.617574   -1.608845
     33          6           0        4.424218   -1.681922   -2.521845
     34          6           0        4.620823   -1.103138   -3.863644
     35          6           0        4.755373    0.264850   -3.634840
     36          6           0        4.675765    0.521213   -2.236187
     37          6           0        4.714088   -1.833851   -5.080934
     38          6           0        4.972505    1.566823   -4.244412
     39          8           0        5.021973    1.984905   -5.402104
     40          6           0        5.292121    2.614306   -3.088362
     41          6           0        4.443225    3.832370   -3.331269
     42          8           0        3.201075    3.778206   -3.224054
     43          8           0        5.232273    4.914358   -3.416409
     44          6           0        4.450130    6.161653   -3.627747
     45          1           0        6.096906    1.833315    3.764427
     46          1           0        3.984948   -4.016969    3.266608
     47          1           0        4.202720   -3.627033   -2.997553
     48          1           0        6.463955    4.129078   -0.595798
     49          1           0        6.170326    3.893867    2.198108
     50          1           0        8.207941    2.855586    0.265240
     51          1           0        7.988219    1.866970    1.741934
     52          1           0        8.457491    3.533215    1.926302
     53          1           0        4.040454    4.325950    1.203978
     54          1           0        3.779824    4.442864   -0.582324
     55          1           0        5.850736    6.250002    0.147450
     56          1           0        4.787894    6.246211    1.503254
     57          1           0        5.335872    1.486177    5.699158
     58          1           0        5.419355    0.029139    6.613534
     59          1           0        3.833091    0.824144    6.443091
     60          1           0        4.160854   -1.642109    7.413466
     61          1           0        2.727837   -2.800879    7.592886
     62          1           0        2.556866   -1.153760    6.929037
     63          1           0        3.229780   -5.514816    1.346545
     64          1           0        4.817632   -5.506260   -1.172708
     65          1           0        4.945775   -6.885708    1.877024
     66          1           0        6.021216   -5.446697    1.839481
     67          1           0        5.850084   -6.396300    0.455306
     68          1           0        2.615121   -6.706448   -0.895572
     69          1           0        2.761555   -5.757052   -2.370377
     70          1           0        1.255873   -5.325939    0.098175
     71          1           0        0.676870   -5.125148   -1.590354
     72          1           0        1.698661   -3.862961   -0.767228
     73          1           0        4.116178   -1.288195   -5.810819
     74          1           0        4.354333   -2.855186   -4.958242
     75          1           0        5.787857   -1.788285   -5.262040
     76          1           0        6.356575    2.837594   -3.153184
     77          1           0        4.837026    6.634009   -4.530756
     78          1           0        4.508851    6.725727   -2.696738
     79          1           0        3.400948    6.033067   -3.896114
     80         12           0       -4.513596    0.751339    0.342098
     81          6           0       -4.504590   -1.744375   -2.236732
     82          6           0       -5.330172   -1.730913    2.534410
     83          6           0       -4.970928    2.985837    2.547845
     84          6           0       -4.828763    3.146633   -2.169651
     85          7           0       -4.845765   -1.417737    0.064562
     86          6           0       -4.754266   -2.264639   -0.949707
     87          6           0       -4.861158   -3.760759   -0.550034
     88          6           0       -5.675635   -3.585325    0.822812
     89          6           0       -5.234189   -2.169992    1.189759
     90          6           0       -7.183232   -3.580995    0.631821
     91          6           0       -3.456575   -4.415798   -0.304930
     92          6           0       -3.466329   -5.943376   -0.214541
     93          1           0       -2.326166   -6.679794   -0.753233
     94          7           0       -4.585380    0.607633    2.320175
     95          6           0       -4.913979   -0.481948    3.045497
     96          6           0       -4.836288   -0.065818    4.454383
     97          6           0       -4.595520    1.402138    4.497319
     98          6           0       -4.731638    1.732776    3.092944
     99          6           0       -4.906806   -1.038822    5.595310
    100          6           0       -4.305122    2.353247    5.618597
    101          8           0       -4.366775    3.623284    5.457292
    102          6           0       -4.037903    1.753750    6.934156
    103          7           0       -5.062866    2.753270    0.228408
    104          6           0       -5.138517    3.513308    1.334997
    105          6           0       -5.279759    4.975248    0.984041
    106          6           0       -5.039180    5.063298   -0.594551
    107          6           0       -4.881880    3.559766   -0.910818
    108          6           0       -6.623779    5.615665    1.330245
    109          6           0       -3.936403    6.041099   -1.084930
    110          6           0       -2.576265    5.545447   -0.649302
    111          7           0       -4.460265    0.756450   -1.817806
    112          6           0       -4.640014    1.865798   -2.672854
    113          6           0       -4.632695    1.353255   -4.058376
    114          6           0       -4.470968   -0.032627   -3.911174
    115          6           0       -4.403915   -0.362995   -2.530648
    116          6           0       -4.812155    2.133832   -5.235071
    117          6           0       -4.352390   -1.292436   -4.609410
    118          8           0       -4.254833   -1.625601   -5.789758
    119          6           0       -4.495783   -2.471232   -3.552874
    120          6           0       -3.386289   -3.455841   -3.802074
    121          8           0       -2.199927   -3.130963   -3.618756
    122          8           0       -3.916856   -4.675674   -4.004243
    123          6           0       -2.855018   -5.688787   -4.244894
    124          1           0       -5.807881   -2.387809    3.261851
    125          1           0       -5.025730    3.808942    3.264066
    126          1           0       -4.823247    3.841329   -3.012298
    127          1           0       -5.424892   -4.376307   -1.240748
    128          1           0       -5.341085   -4.295922    1.574137
    129          1           0       -7.456988   -3.578102   -0.412778
    130          1           0       -7.538844   -2.682327    1.118633
    131          1           0       -7.634379   -4.416508    1.174696
    132          1           0       -3.118917   -4.169677    0.710037
    133          1           0       -2.754353   -4.102540   -1.052849
    134          1           0       -4.407708   -6.371873   -0.579448
    135          1           0       -3.432779   -6.228835    0.839688
    136          1           0       -5.252437   -2.025159    5.262028
    137          1           0       -5.697013   -0.686902    6.267304
    138          1           0       -3.970300   -1.101957    6.153553
    139          1           0       -4.892162    1.153245    7.237609
    140          1           0       -3.764663    2.586733    7.584820
    141          1           0       -3.188575    1.067890    6.840076
    142          1           0       -4.526542    5.568439    1.487932
    143          1           0       -5.940268    5.403548   -1.125687
    144          1           0       -6.529611    6.497245    1.992085
    145          1           0       -7.253020    4.863088    1.786562
    146          1           0       -7.220452    5.928068    0.474930
    147          1           0       -4.070230    7.023777   -0.626046
    148          1           0       -3.934102    6.185398   -2.160181
    149          1           0       -2.497017    5.913217    0.378091
    150          1           0       -1.795416    5.965344   -1.280177
    151          1           0       -2.550441    4.450247   -0.610291
    152          1           0       -4.078346    1.789851   -5.951803
    153          1           0       -4.699688    3.196119   -5.028481
    154          1           0       -5.843038    1.871676   -5.487695
    155          1           0       -5.480121   -2.919375   -3.693626
    156          1           0       -3.083112   -6.169722   -5.201123
    157          1           0       -2.847865   -6.333390   -3.345901
    158          1           0       -1.849147   -5.327631   -4.424436
 ---------------------------------------------------------------------

 SCF Done:  E(RCAM-B3LYP) =  -4069.81162079     A.U. after   19 cycles

 Excitation energies and oscillator strengths:

 Excited State   1:      Singlet-A      1.6467 eV  752.94 nm  f=0.0040  <S**2>=0.000
     309 -> 315        0.11312
     310 -> 316       -0.10649
     311 -> 313        0.50168
     312 -> 314       -0.47040
 This state for optimization and/or second-order correction.
 Total Energy, E(TD-HF/TD-DFT) =  -4069.75110673
 Copying the excited state density for this state as the 1-particle RhoCI density.

 Excited State   2:      Singlet-A      1.7025 eV  728.24 nm  f=0.6982  <S**2>=0.000
     309 -> 315        0.11631
     310 -> 316        0.12460
     311 -> 313        0.46812
     312 -> 314        0.49905

 Excited State   3:      Singlet-A      2.1807 eV  568.55 nm  f=0.0141  <S**2>=0.000
     309 -> 313        0.54385
     310 -> 314        0.34608
     311 -> 315       -0.21333
     312 -> 316       -0.13541

 Excited State   4:      Singlet-A      2.1937 eV  565.17 nm  f=0.1631  <S**2>=0.000
     309 -> 313       -0.34246
     310 -> 314        0.53948
     311 -> 315        0.14102
     312 -> 316       -0.22243

 Excited State   5:      Singlet-A      2.4581 eV  504.39 nm  f=0.0000  <S**2>=0.000
     312 -> 313        0.70708

 The electronic state is 1-A.
 Alpha  occ. eigenvalues --  -46.87555 -46.87492 -19.26320 -19.26100 -19.19106
 Alpha  occ. eigenvalues --  -19.18809 -19.18688 -19.18625 -19.17925 -19.17892
 Alpha  occ. eigenvalues --  -14.42338 -14.42217 -14.41215 -14.41192 -14.39193
 Alpha  occ. eigenvalues --  -14.39176 -14.38419 -14.38327 -10.39022 -10.38869
 Alpha  occ. eigenvalues --  -10.35329 -10.35308 -10.34145 -10.34073 -10.31802
 Alpha  occ. eigenvalues --  -10.31535 -10.31154 -10.31138 -10.30889 -10.30706
 Alpha  occ. eigenvalues --  -10.30309 -10.30263 -10.30229 -10.30180 -10.29991
 Alpha  occ. eigenvalues --  -10.29983 -10.29720 -10.29675 -10.29388 -10.29276
 Alpha  occ. eigenvalues --  -10.29234 -10.29028 -10.28608 -10.28602 -10.28554
 Alpha  occ. eigenvalues --  -10.28378 -10.28249 -10.28138 -10.28007 -10.27912
 Alpha  occ. eigenvalues --  -10.27832 -10.27552 -10.27505 -10.27493 -10.27363
 Alpha  occ. eigenvalues --  -10.27343 -10.27333 -10.27332 -10.27312 -10.27308
 Alpha  occ. eigenvalues --  -10.27281 -10.27255 -10.27223 -10.27174 -10.26936
 Alpha  occ. eigenvalues --  -10.26929 -10.26589 -10.26517 -10.26390 -10.26365
 Alpha  occ. eigenvalues --  -10.26047 -10.25925 -10.25919 -10.25905 -10.25760
 Alpha  occ. eigenvalues --  -10.25751 -10.25604 -10.25497 -10.25285 -10.25278
 Alpha  occ. eigenvalues --  -10.24699 -10.24581 -10.24567 -10.24533 -10.24440
 Alpha  occ. eigenvalues --  -10.24303  -3.16297  -3.16241  -1.91178  -1.91123
 Alpha  occ. eigenvalues --   -1.90766  -1.90712  -1.90607  -1.90549  -1.16606
 Alpha  occ. eigenvalues --   -1.16443  -1.08503  -1.08380  -1.07097  -1.06883
 Alpha  occ. eigenvalues --   -1.06882  -1.06433  -1.04351  -1.04339  -1.03529
 Alpha  occ. eigenvalues --   -1.03502  -1.02993  -1.02870  -1.02172  -1.01943
 Alpha  occ. eigenvalues --   -0.91835  -0.91738  -0.89319  -0.89276  -0.89020
 Alpha  occ. eigenvalues --   -0.88982  -0.88060  -0.88050  -0.87602  -0.87593
 Alpha  occ. eigenvalues --   -0.87524  -0.87445  -0.87088  -0.86991  -0.84872
 Alpha  occ. eigenvalues --   -0.84779  -0.83704  -0.83697  -0.82824  -0.82820
 Alpha  occ. eigenvalues --   -0.82535  -0.82453  -0.81494  -0.81373  -0.80386
 Alpha  occ. eigenvalues --   -0.80321  -0.78581  -0.78481  -0.76996  -0.76987
 Alpha  occ. eigenvalues --   -0.76775  -0.76725  -0.75717  -0.75711  -0.74685
 Alpha  occ. eigenvalues --   -0.74656  -0.72528  -0.72527  -0.71457  -0.71438
 Alpha  occ. eigenvalues --   -0.69645  -0.69560  -0.68698  -0.68668  -0.67461
 Alpha  occ. eigenvalues --   -0.67427  -0.67090  -0.67036  -0.65143  -0.65073
 Alpha  occ. eigenvalues --   -0.64625  -0.64624  -0.64526  -0.64405  -0.64036
 Alpha  occ. eigenvalues --   -0.64034  -0.62182  -0.62090  -0.60246  -0.60200
 Alpha  occ. eigenvalues --   -0.59654  -0.59587  -0.58839  -0.58759  -0.58281
 Alpha  occ. eigenvalues --   -0.58278  -0.57433  -0.57357  -0.57096  -0.57089
 Alpha  occ. eigenvalues --   -0.56085  -0.56055  -0.55805  -0.55787  -0.55345
 Alpha  occ. eigenvalues --   -0.55329  -0.55113  -0.55103  -0.54355  -0.54302
 Alpha  occ. eigenvalues --   -0.53788  -0.53692  -0.53108  -0.53093  -0.53019
 Alpha  occ. eigenvalues --   -0.53012  -0.52784  -0.52706  -0.52591  -0.52571
 Alpha  occ. eigenvalues --   -0.52192  -0.52166  -0.51675  -0.51616  -0.51545
 Alpha  occ. eigenvalues --   -0.51421  -0.51049  -0.50958  -0.50428  -0.50366
 Alpha  occ. eigenvalues --   -0.49860  -0.49801  -0.49741  -0.49702  -0.49376
 Alpha  occ. eigenvalues --   -0.49328  -0.49078  -0.49001  -0.48966  -0.48887
 Alpha  occ. eigenvalues --   -0.48435  -0.48373  -0.48293  -0.48238  -0.48234
 Alpha  occ. eigenvalues --   -0.48227  -0.47496  -0.47467  -0.47097  -0.46988
 Alpha  occ. eigenvalues --   -0.46561  -0.46549  -0.46431  -0.46359  -0.46125
 Alpha  occ. eigenvalues --   -0.46115  -0.45935  -0.45925  -0.45682  -0.45577
 Alpha  occ. eigenvalues --   -0.45055  -0.44985  -0.44391  -0.44371  -0.44327
 Alpha  occ. eigenvalues --   -0.44293  -0.44005  -0.43928  -0.43911  -0.43881
 Alpha  occ. eigenvalues --   -0.43830  -0.43804  -0.43451  -0.43272  -0.43254
 Alpha  occ. eigenvalues --   -0.43173  -0.42845  -0.42802  -0.42752  -0.42498
 Alpha  occ. eigenvalues --   -0.42407  -0.42380  -0.41790  -0.41753  -0.41519
 Alpha  occ. eigenvalues --   -0.41481  -0.41328  -0.41321  -0.40931  -0.40846
 Alpha  occ. eigenvalues --   -0.40700  -0.40639  -0.40627  -0.40566  -0.40342
 Alpha  occ. eigenvalues --   -0.40323  -0.40125  -0.40053  -0.39223  -0.39168
 Alpha  occ. eigenvalues --   -0.38250  -0.38194  -0.37554  -0.37544  -0.37107
 Alpha  occ. eigenvalues --   -0.37091  -0.37058  -0.37048  -0.36694  -0.36503
 Alpha  occ. eigenvalues --   -0.36076  -0.35974  -0.34091  -0.34045  -0.33780
 Alpha  occ. eigenvalues --   -0.33554  -0.33013  -0.32947  -0.31218  -0.31183
 Alpha  occ. eigenvalues --   -0.30821  -0.30811  -0.29797  -0.29782  -0.29233
 Alpha  occ. eigenvalues --   -0.29176  -0.29060  -0.29030  -0.23872  -0.23842
 Alpha  occ. eigenvalues --   -0.20950  -0.20887
 Alpha virt. eigenvalues --   -0.08630  -0.08542  -0.01527  -0.01525   0.00099
 Alpha virt. eigenvalues --    0.00129   0.02369   0.02443   0.02982   0.03875
 Alpha virt. eigenvalues --    0.04761   0.04938   0.05208   0.05309   0.05876

 Mulliken charges:
               1
     1  Mg   0.839877
     2  C   -0.003117
     3  C   -0.094171
     4  C   -0.046305
     5  C   -0.061385
     6  N   -0.256730
     7  C   -0.052276
     8  C   -0.014105
     9  C   -0.086919
    10  C    0.046004
    11  C    0.104952
    12  C    0.053429
    13  C   -0.071329
    14  H    0.035067
    15  N   -0.432834
    16  C    0.167956
    17  C   -0.177739
    18  C   -0.004906
    19  C    0.148368
    20  C    0.110338
    21  C    0.011159
    22  O   -0.251170
    23  C    0.062946
    24  N   -0.341297
    25  C    0.041230
    26  C   -0.027711
    27  C   -0.023892
    28  C    0.075215
    29  C    0.076515
    30  C    0.034614
    31  C   -0.006053
    32  N   -0.311252
    33  C    0.082629
    34  C   -0.166086
    35  C    0.008440
    36  C    0.084553
    37  C    0.127019
    38  C    0.047209
    39  O   -0.188019
    40  C   -0.005837
    41  C    0.212857
    42  O   -0.256418
    43  O   -0.304895
    44  C    0.158052
    45  H   -0.018287
    46  H   -0.018106
    47  H   -0.040546
    48  H    0.000624
    49  H   -0.004280
    50  H    0.025201
    51  H    0.016299
    52  H    0.016132
    53  H    0.011688
    54  H    0.044136
    55  H    0.017615
    56  H    0.018091
    57  H    0.005859
    58  H    0.025932
    59  H    0.038628
    60  H    0.037692
    61  H    0.033711
    62  H    0.030372
    63  H    0.015378
    64  H    0.008813
    65  H    0.021928
    66  H    0.012334
    67  H    0.004363
    68  H    0.003337
    69  H    0.005040
    70  H    0.004530
    71  H    0.023959
    72  H    0.032944
    73  H    0.050223
    74  H    0.010383
    75  H    0.044805
    76  H    0.034662
    77  H    0.042633
    78  H    0.046018
    79  H    0.052986
    80  Mg   0.838775
    81  C   -0.016975
    82  C   -0.087416
    83  C   -0.045748
    84  C   -0.063736
    85  N   -0.254530
    86  C   -0.049767
    87  C   -0.015575
    88  C   -0.090436
    89  C    0.045495
    90  C    0.114465
    91  C    0.061565
    92  C   -0.077571
    93  H    0.032570
    94  N   -0.423278
    95  C    0.162672
    96  C   -0.174932
    97  C   -0.008536
    98  C    0.151941
    99  C    0.099567
   100  C    0.014745
   101  O   -0.254062
   102  C    0.061616
   103  N   -0.350201
   104  C    0.037546
   105  C   -0.019549
   106  C   -0.034991
   107  C    0.089347
   108  C    0.073916
   109  C    0.034628
   110  C   -0.007472
   111  N   -0.324651
   112  C    0.079948
   113  C   -0.160606
   114  C    0.002447
   115  C    0.097502
   116  C    0.131151
   117  C    0.043489
   118  O   -0.187630
   119  C    0.000146
   120  C    0.211178
   121  O   -0.250564
   122  O   -0.305344
   123  C    0.151782
   124  H   -0.020044
   125  H   -0.016313
   126  H   -0.039633
   127  H   -0.001111
   128  H   -0.004166
   129  H    0.022173
   130  H    0.014388
   131  H    0.015947
   132  H    0.015436
   133  H    0.038623
   134  H    0.020649
   135  H    0.020568
   136  H    0.009055
   137  H    0.025406
   138  H    0.039381
   139  H    0.038530
   140  H    0.035018
   141  H    0.032813
   142  H    0.013861
   143  H    0.012017
   144  H    0.024360
   145  H    0.011347
   146  H    0.005426
   147  H    0.004856
   148  H    0.004359
   149  H    0.008597
   150  H    0.020673
   151  H    0.032144
   152  H    0.048123
   153  H    0.009422
   154  H    0.046072
   155  H    0.034687
   156  H    0.044081
   157  H    0.048880
   158  H    0.052378
 Sum of Mulliken charges =  -0.00000

 Dipole moment (field-independent basis, Debye):
    X=              0.1177    Y=             -0.6289    Z=              6.6229  Tot=              6.6537
 Quadrupole moment (field-independent basis, Debye-Ang):
   XX=           -480.9604   YY=           -463.6093   ZZ=           -539.9908
   XY=             20.2162   XZ=              9.1914   YZ=              3.1314

 Normal termination of Gaussian 16 at Thu Sep  9 18:13:24 2021.
