 Gaussian 16, Revision A.03,
 Gaussian 16:  ES64L-G16RevA.03 25-Dec-2016

 -----------------------------------
 #p cam-b3lyp/Def2SVP td=(nstates=5)
 -----------------------------------

 --------------------------------
 TDDFT excited states in gaussian
 --------------------------------
 Symbolic Z-matrix:
 Charge =  0 Multiplicity = 1

                         Standard orientation:
 ---------------------------------------------------------------------
 Center     Atomic      Atomic             Coordinates (Angstroms)
 Number     Number       Type             X           Y           Z
 ---------------------------------------------------------------------
      1         12           0       -6.620316   -0.526018    0.056288
      2          6           0       -6.686395    3.049396    0.212050
      3          6           0       -7.467784   -0.249731   -3.237422
      4          6           0       -7.012523   -3.672478    0.005447
      5          6           0       -6.900783   -0.535331    3.530034
      6          7           0       -6.999308    1.231779   -1.234898
      7          6           0       -6.933247    2.548993   -1.068303
      8          6           0       -7.076206    3.347876   -2.398237
      9          6           0       -7.866689    2.263680   -3.259430
     10          6           0       -7.390027    1.003113   -2.559654
     11          6           0       -9.382331    2.360631   -3.118250
     12          6           0       -5.688842    3.688153   -3.039458
     13          6           0       -5.724132    4.737166   -4.154663
     14          1           0       -4.611283    5.666620   -4.277259
     15          7           0       -6.680386   -1.785214   -1.464786
     16          6           0       -7.032058   -1.497364   -2.741013
     17          6           0       -6.917047   -2.766279   -3.491551
     18          6           0       -6.653475   -3.853900   -2.508848
     19          6           0       -6.799503   -3.142245   -1.264821
     20          6           0       -7.006777   -2.850291   -4.984414
     21          6           0       -6.332845   -5.306720   -2.665827
     22          8           0       -6.370067   -6.121697   -1.681448
     23          6           0       -6.056629   -5.774147   -4.036322
     24          7           0       -7.135216   -1.916779    1.525402
     25          6           0       -7.178635   -3.225332    1.251928
     26          6           0       -7.288372   -4.041768    2.505454
     27          6           0       -7.065618   -3.024862    3.716254
     28          6           0       -6.940788   -1.713032    2.902749
     29          6           0       -8.614581   -4.788676    2.703717
     30          6           0       -5.947261   -3.373121    4.730361
     31          6           0       -4.595917   -3.271390    4.059081
     32          7           0       -6.591438    0.964068    1.634216
     33          6           0       -6.748234    0.738890    3.009492
     34          6           0       -6.765250    2.059857    3.664340
     35          6           0       -6.632949    2.968280    2.615956
     36          6           0       -6.565608    2.260722    1.381809
     37          6           0       -6.949040    2.298324    5.054947
     38          6           0       -6.557570    4.373109    2.249035
     39          8           0       -6.470936    5.429753    2.876322
     40          6           0       -6.711686    4.487050    0.668183
     41          6           0       -5.626021    5.401871    0.170444
     42          8           0       -4.425911    5.066384    0.237889
     43          8           0       -6.177693    6.413575   -0.517055
     44          6           0       -5.152902    7.342575   -1.063787
     45          1           0       -7.959339   -0.293377   -4.211286
     46          1           0       -7.042577   -4.763348    0.044642
     47          1           0       -6.900147   -0.463051    4.619175
     48          1           0       -7.665437    4.261587   -2.318475
     49          1           0       -7.548927    2.261612   -4.301901
     50          1           0       -9.665624    3.077072   -2.347290
     51          1           0       -9.714080    1.358246   -2.846846
     52          1           0       -9.847643    2.580238   -4.079517
     53          1           0       -5.333777    2.827186   -3.605784
     54          1           0       -4.976154    3.998830   -2.274683
     55          1           0       -6.673192    5.273859   -4.167131
     56          1           0       -5.693777    4.218231   -5.112778
     57          1           0       -7.369748   -1.918744   -5.416868
     58          1           0       -7.783916   -3.578327   -5.216210
     59          1           0       -6.064560   -3.162214   -5.435261
     60          1           0       -6.922517   -5.571604   -4.667007
     61          1           0       -5.760143   -6.818368   -3.943859
     62          1           0       -5.233357   -5.190484   -4.449248
     63          1           0       -6.518588   -4.811645    2.539351
     64          1           0       -7.959356   -2.919703    4.331759
     65          1           0       -8.496256   -5.865166    2.829711
     66          1           0       -9.258792   -4.562813    1.854442
     67          1           0       -9.220283   -4.431550    3.536185
     68          1           0       -6.056493   -4.400032    5.077445
     69          1           0       -5.944251   -2.725283    5.607029
     70          1           0       -4.493556   -4.239465    3.570016
     71          1           0       -3.811859   -3.124811    4.802707
     72          1           0       -4.595438   -2.510320    3.278531
     73          1           0       -6.222191    3.061732    5.332194
     74          1           0       -6.807034    1.386849    5.635164
     75          1           0       -7.982804    2.643391    5.065752
     76          1           0       -7.705871    4.890421    0.478418
     77          1           0       -5.396918    8.340360   -0.698936
     78          1           0       -5.138575    7.187861   -2.142797
     79          1           0       -4.139931    7.224231   -0.677493
     80         12           0        6.607639   -1.032807    0.121423
     81          6           0        7.028465    2.527484    0.283621
     82          6           0        6.224856   -0.683972   -3.249992
     83          6           0        5.787690   -4.095461   -0.002279
     84          6           0        5.888479   -0.963649    3.530780
     85          7           0        6.643365    0.743656   -1.195822
     86          6           0        6.872997    2.037521   -1.029857
     87          6           0        7.019677    2.839366   -2.350875
     88          6           0        6.190922    1.861977   -3.318720
     89          6           0        6.389614    0.547439   -2.566926
     90          6           0        4.703472    2.170974   -3.355639
     91          6           0        8.514897    2.968679   -2.808714
     92          6           0        8.761797    3.995275   -3.916369
     93          1           0       10.007940    4.756290   -3.894866
     94          7           0        6.566185   -2.290216   -1.413431
     95          6           0        6.426951   -1.976718   -2.718658
     96          6           0        6.437419   -3.256953   -3.443263
     97          6           0        6.428605   -4.360883   -2.445274
     98          6           0        6.235253   -3.608652   -1.221819
     99          6           0        6.534137   -3.344773   -4.938703
    100          6           0        6.558255   -5.848567   -2.572458
    101          8           0        6.283968   -6.634165   -1.597548
    102          6           0        6.925721   -6.363538   -3.899589
    103          7           0        5.729989   -2.314394    1.503309
    104          6           0        5.530795   -3.612143    1.213340
    105          6           0        5.145367   -4.393717    2.446615
    106          6           0        5.363612   -3.393166    3.674968
    107          6           0        5.770110   -2.122339    2.897060
    108          6           0        3.713868   -4.928889    2.474631
    109          6           0        6.285422   -3.881984    4.825623
    110          6           0        7.710565   -3.992672    4.333593
    111          7           0        6.653684    0.451278    1.690941
    112          6           0        6.288127    0.274131    3.043372
    113          6           0        6.377688    1.596724    3.695414
    114          6           0        6.770028    2.462621    2.663529
    115          6           0        6.895185    1.734938    1.449323
    116          6           0        6.066723    1.876175    5.056040
    117          6           0        7.096450    3.828717    2.323027
    118          8           0        7.245429    4.870846    2.959818
    119          6           0        7.155643    3.954526    0.739656
    120          6           0        8.413940    4.695726    0.379321
    121          8           0        9.529461    4.195925    0.608280
    122          8           0        8.095028    5.767678   -0.368719
    123          6           0        9.311156    6.528955   -0.760278
    124          1           0        5.866041   -0.662302   -4.279389
    125          1           0        5.597451   -5.170583    0.035096
    126          1           0        5.775146   -0.876185    4.613452
    127          1           0        6.565406    3.822850   -2.338125
    128          1           0        6.641918    1.808415   -4.306186
    129          1           0        4.430362    2.924179   -2.631598
    130          1           0        4.203411    1.236637   -3.136567
    131          1           0        4.400331    2.444358   -4.370377
    132          1           0        8.809140    2.050991   -3.334088
    133          1           0        9.152643    3.179126   -1.972282
    134          1           0        7.904703    4.665239   -4.055941
    135          1           0        8.845530    3.465321   -4.868285
    136          1           0        6.358013   -2.370497   -5.411099
    137          1           0        5.697857   -3.965950   -5.277288
    138          1           0        7.469429   -3.797767   -5.274420
    139          1           0        6.185114   -6.043784   -4.628786
    140          1           0        7.057038   -7.439501   -3.769453
    141          1           0        7.877820   -5.911351   -4.198990
    142          1           0        5.789697   -5.254663    2.575891
    143          1           0        4.416817   -3.160535    4.184179
    144          1           0        3.660524   -6.025820    2.608707
    145          1           0        3.221001   -4.633433    1.557929
    146          1           0        3.070994   -4.488500    3.234874
    147          1           0        5.989825   -4.883320    5.148278
    148          1           0        6.260646   -3.241238    5.700729
    149          1           0        7.729686   -4.974762    3.851697
    150          1           0        8.408239   -3.948531    5.167462
    151          1           0        7.919885   -3.242731    3.561943
    152          1           0        6.845961    2.529360    5.425687
    153          1           0        5.999916    0.963278    5.644197
    154          1           0        5.093779    2.360690    4.938208
    155          1           0        6.260078    4.488573    0.419758
    156          1           0        9.164462    7.560165   -0.424464
    157          1           0        9.428709    6.365315   -1.848004
    158          1           0       10.241703    6.275861   -0.265828
 ---------------------------------------------------------------------

 SCF Done:  E(RCAM-B3LYP) =  -4069.81160708     A.U. after   19 cycles

 Excitation energies and oscillator strengths:

 Excited State   1:      Singlet-A      1.6655 eV  744.44 nm  f=0.0069  <S**2>=0.000
     309 -> 315        0.10980
     310 -> 316       -0.13158
     311 -> 313        0.43838
     312 -> 314        0.52846
 This state for optimization and/or second-order correction.
 Total Energy, E(TD-HF/TD-DFT) =  -4069.75040209
 Copying the excited state density for this state as the 1-particle RhoCI density.

 Excited State   2:      Singlet-A      1.6893 eV  733.93 nm  f=0.7369  <S**2>=0.000
     309 -> 315        0.13705
     310 -> 316        0.11302
     311 -> 313        0.52726
     312 -> 314       -0.43747

 Excited State   3:      Singlet-A      2.1846 eV  567.53 nm  f=0.0418  <S**2>=0.000
     309 -> 313       -0.19879
     310 -> 314        0.61161
     312 -> 316        0.25875

 Excited State   4:      Singlet-A      2.1934 eV  565.25 nm  f=0.1473  <S**2>=0.000
     309 -> 313        0.60917
     310 -> 314        0.19700
     311 -> 315       -0.26549

 Excited State   5:      Singlet-A      2.6549 eV  467.00 nm  f=0.0000  <S**2>=0.000
     312 -> 313        0.70710

 The electronic state is 1-A.
 Alpha  occ. eigenvalues --  -46.87837 -46.87551 -19.26311 -19.26245 -19.19056
 Alpha  occ. eigenvalues --  -19.19048 -19.18848 -19.18628 -19.18195 -19.17927
 Alpha  occ. eigenvalues --  -14.42492 -14.42390 -14.41489 -14.41250 -14.39442
 Alpha  occ. eigenvalues --  -14.39246 -14.38624 -14.38487 -10.39108 -10.38984
 Alpha  occ. eigenvalues --  -10.35482 -10.35308 -10.34416 -10.34104 -10.31704
 Alpha  occ. eigenvalues --  -10.31663 -10.31446 -10.31197 -10.30952 -10.30922
 Alpha  occ. eigenvalues --  -10.30608 -10.30544 -10.30286 -10.30248 -10.30247
 Alpha  occ. eigenvalues --  -10.30040 -10.29956 -10.29780 -10.29668 -10.29333
 Alpha  occ. eigenvalues --  -10.29294 -10.29294 -10.28801 -10.28620 -10.28614
 Alpha  occ. eigenvalues --  -10.28585 -10.28403 -10.28296 -10.28166 -10.28038
 Alpha  occ. eigenvalues --  -10.27890 -10.27828 -10.27769 -10.27622 -10.27566
 Alpha  occ. eigenvalues --  -10.27540 -10.27533 -10.27485 -10.27442 -10.27417
 Alpha  occ. eigenvalues --  -10.27400 -10.27374 -10.27364 -10.27271 -10.27189
 Alpha  occ. eigenvalues --  -10.26926 -10.26771 -10.26610 -10.26448 -10.26354
 Alpha  occ. eigenvalues --  -10.26277 -10.26229 -10.26059 -10.26050 -10.25907
 Alpha  occ. eigenvalues --  -10.25866 -10.25826 -10.25709 -10.25465 -10.25285
 Alpha  occ. eigenvalues --  -10.24867 -10.24825 -10.24757 -10.24742 -10.24649
 Alpha  occ. eigenvalues --  -10.24581  -3.16580  -3.16301  -1.91461  -1.91183
 Alpha  occ. eigenvalues --   -1.91048  -1.90890  -1.90772  -1.90609  -1.16660
 Alpha  occ. eigenvalues --   -1.16539  -1.08652  -1.08533  -1.07249  -1.06881
 Alpha  occ. eigenvalues --   -1.06840  -1.06670  -1.04622  -1.04387  -1.03800
 Alpha  occ. eigenvalues --   -1.03555  -1.03272  -1.02929  -1.02450  -1.02001
 Alpha  occ. eigenvalues --   -0.92008  -0.91874  -0.89559  -0.89391  -0.89238
 Alpha  occ. eigenvalues --   -0.89050  -0.88326  -0.88117  -0.87903  -0.87716
 Alpha  occ. eigenvalues --   -0.87673  -0.87580  -0.87315  -0.87031  -0.85030
 Alpha  occ. eigenvalues --   -0.84901  -0.83975  -0.83775  -0.83007  -0.82848
 Alpha  occ. eigenvalues --   -0.82692  -0.82557  -0.81620  -0.81491  -0.80634
 Alpha  occ. eigenvalues --   -0.80340  -0.78837  -0.78536  -0.77261  -0.77044
 Alpha  occ. eigenvalues --   -0.76978  -0.76798  -0.75963  -0.75734  -0.74935
 Alpha  occ. eigenvalues --   -0.74697  -0.72812  -0.72589  -0.71710  -0.71472
 Alpha  occ. eigenvalues --   -0.69950  -0.69661  -0.68918  -0.68729  -0.67679
 Alpha  occ. eigenvalues --   -0.67497  -0.67271  -0.67112  -0.65332  -0.65170
 Alpha  occ. eigenvalues --   -0.64891  -0.64664  -0.64661  -0.64551  -0.64309
 Alpha  occ. eigenvalues --   -0.64101  -0.62330  -0.62174  -0.60481  -0.60244
 Alpha  occ. eigenvalues --   -0.59849  -0.59692  -0.59025  -0.58885  -0.58541
 Alpha  occ. eigenvalues --   -0.58319  -0.57616  -0.57438  -0.57345  -0.57133
 Alpha  occ. eigenvalues --   -0.56347  -0.56099  -0.56013  -0.55787  -0.55558
 Alpha  occ. eigenvalues --   -0.55375  -0.55355  -0.55142  -0.54558  -0.54385
 Alpha  occ. eigenvalues --   -0.53944  -0.53814  -0.53337  -0.53264  -0.53127
 Alpha  occ. eigenvalues --   -0.53043  -0.52952  -0.52802  -0.52800  -0.52585
 Alpha  occ. eigenvalues --   -0.52481  -0.52308  -0.51943  -0.51754  -0.51663
 Alpha  occ. eigenvalues --   -0.51565  -0.51233  -0.51093  -0.50616  -0.50397
 Alpha  occ. eigenvalues --   -0.50073  -0.49959  -0.49884  -0.49768  -0.49556
 Alpha  occ. eigenvalues --   -0.49393  -0.49251  -0.49138  -0.49098  -0.48995
 Alpha  occ. eigenvalues --   -0.48628  -0.48497  -0.48479  -0.48452  -0.48270
 Alpha  occ. eigenvalues --   -0.48246  -0.47736  -0.47498  -0.47335  -0.47022
 Alpha  occ. eigenvalues --   -0.46838  -0.46606  -0.46603  -0.46458  -0.46397
 Alpha  occ. eigenvalues --   -0.46197  -0.46168  -0.45974  -0.45854  -0.45708
 Alpha  occ. eigenvalues --   -0.45239  -0.45103  -0.44611  -0.44552  -0.44409
 Alpha  occ. eigenvalues --   -0.44376  -0.44185  -0.44133  -0.44055  -0.44023
 Alpha  occ. eigenvalues --   -0.43981  -0.43842  -0.43528  -0.43450  -0.43429
 Alpha  occ. eigenvalues --   -0.43281  -0.43064  -0.42827  -0.42790  -0.42733
 Alpha  occ. eigenvalues --   -0.42692  -0.42456  -0.42053  -0.41867  -0.41740
 Alpha  occ. eigenvalues --   -0.41582  -0.41558  -0.41363  -0.41181  -0.40917
 Alpha  occ. eigenvalues --   -0.40883  -0.40864  -0.40635  -0.40612  -0.40606
 Alpha  occ. eigenvalues --   -0.40391  -0.40293  -0.40142  -0.39486  -0.39331
 Alpha  occ. eigenvalues --   -0.38511  -0.38249  -0.37803  -0.37563  -0.37361
 Alpha  occ. eigenvalues --   -0.37310  -0.37163  -0.37098  -0.36745  -0.36668
 Alpha  occ. eigenvalues --   -0.36229  -0.36113  -0.34325  -0.34144  -0.33800
 Alpha  occ. eigenvalues --   -0.33756  -0.33224  -0.33067  -0.31378  -0.31186
 Alpha  occ. eigenvalues --   -0.31074  -0.30865  -0.30054  -0.29831  -0.29487
 Alpha  occ. eigenvalues --   -0.29356  -0.29225  -0.29095  -0.24119  -0.23925
 Alpha  occ. eigenvalues --   -0.21167  -0.21009
 Alpha virt. eigenvalues --   -0.08812  -0.08684  -0.01789  -0.01578  -0.00096
 Alpha virt. eigenvalues --    0.00069   0.02169   0.02325   0.03074   0.03324
 Alpha virt. eigenvalues --    0.04671   0.04834   0.05069   0.05273   0.06119

 Mulliken charges:
               1
     1  Mg   0.838630
     2  C   -0.003016
     3  C   -0.094366
     4  C   -0.045787
     5  C   -0.063962
     6  N   -0.256747
     7  C   -0.052525
     8  C   -0.013983
     9  C   -0.086959
    10  C    0.046242
    11  C    0.104810
    12  C    0.053577
    13  C   -0.071610
    14  H    0.035703
    15  N   -0.433145
    16  C    0.168349
    17  C   -0.177307
    18  C   -0.003979
    19  C    0.148678
    20  C    0.110226
    21  C    0.012357
    22  O   -0.249407
    23  C    0.062493
    24  N   -0.341124
    25  C    0.041181
    26  C   -0.028193
    27  C   -0.024010
    28  C    0.074839
    29  C    0.076126
    30  C    0.035133
    31  C   -0.004491
    32  N   -0.310517
    33  C    0.080424
    34  C   -0.169611
    35  C    0.008500
    36  C    0.082997
    37  C    0.127272
    38  C    0.046266
    39  O   -0.188014
    40  C   -0.005378
    41  C    0.212951
    42  O   -0.257090
    43  O   -0.304803
    44  C    0.157585
    45  H   -0.017687
    46  H   -0.016725
    47  H   -0.041413
    48  H    0.001065
    49  H   -0.004290
    50  H    0.025582
    51  H    0.016527
    52  H    0.016619
    53  H    0.010801
    54  H    0.044116
    55  H    0.018122
    56  H    0.017632
    57  H    0.005705
    58  H    0.026904
    59  H    0.039146
    60  H    0.037280
    61  H    0.035894
    62  H    0.031212
    63  H    0.016603
    64  H    0.009579
    65  H    0.023318
    66  H    0.012586
    67  H    0.004816
    68  H    0.006435
    69  H    0.004761
    70  H    0.008893
    71  H    0.017642
    72  H    0.029028
    73  H    0.047860
    74  H    0.009089
    75  H    0.046129
    76  H    0.035222
    77  H    0.043250
    78  H    0.046092
    79  H    0.053892
    80  Mg   0.838093
    81  C   -0.016726
    82  C   -0.087909
    83  C   -0.045526
    84  C   -0.064542
    85  N   -0.254528
    86  C   -0.049455
    87  C   -0.015122
    88  C   -0.090603
    89  C    0.045883
    90  C    0.114400
    91  C    0.062579
    92  C   -0.077682
    93  H    0.034607
    94  N   -0.423441
    95  C    0.162865
    96  C   -0.174971
    97  C   -0.007984
    98  C    0.152022
    99  C    0.099560
   100  C    0.015399
   101  O   -0.253285
   102  C    0.061291
   103  N   -0.349981
   104  C    0.037554
   105  C   -0.019844
   106  C   -0.034847
   107  C    0.089088
   108  C    0.073657
   109  C    0.034730
   110  C   -0.007622
   111  N   -0.324252
   112  C    0.078688
   113  C   -0.162679
   114  C    0.002650
   115  C    0.096259
   116  C    0.131326
   117  C    0.042871
   118  O   -0.187446
   119  C    0.000729
   120  C    0.211152
   121  O   -0.251266
   122  O   -0.305434
   123  C    0.152121
   124  H   -0.020229
   125  H   -0.015688
   126  H   -0.040355
   127  H   -0.000413
   128  H   -0.004854
   129  H    0.023538
   130  H    0.014613
   131  H    0.015489
   132  H    0.013742
   133  H    0.037661
   134  H    0.020773
   135  H    0.019270
   136  H    0.008384
   137  H    0.025537
   138  H    0.039452
   139  H    0.037910
   140  H    0.036162
   141  H    0.033746
   142  H    0.014156
   143  H    0.012624
   144  H    0.024943
   145  H    0.012017
   146  H    0.005713
   147  H    0.006051
   148  H    0.003631
   149  H    0.010819
   150  H    0.017744
   151  H    0.030157
   152  H    0.045859
   153  H    0.008257
   154  H    0.048348
   155  H    0.035963
   156  H    0.043948
   157  H    0.049237
   158  H    0.053414
 Sum of Mulliken charges =  -0.00000

 Dipole moment (field-independent basis, Debye):
    X=             -3.7616    Y=             -2.0572    Z=             -7.8002  Tot=              8.9008
 Quadrupole moment (field-independent basis, Debye-Ang):
   XX=           -513.0081   YY=           -552.3670   ZZ=           -447.0348
   XY=             -3.5292   XZ=            -10.7221   YZ=            -46.1793

 Normal termination of Gaussian 16 at Sat Sep 11 03:40:18 2021.
