 Gaussian 16, Revision A.03,
 Gaussian 16:  ES64L-G16RevA.03 25-Dec-2016

 -----------------------------------
 #p cam-b3lyp/Def2SVP td=(nstates=5)
 -----------------------------------

 --------------------------------
 TDDFT excited states in gaussian
 --------------------------------
 Symbolic Z-matrix:
 Charge =  0 Multiplicity = 1

                         Standard orientation:
 ---------------------------------------------------------------------
 Center     Atomic      Atomic             Coordinates (Angstroms)
 Number     Number       Type             X           Y           Z
 ---------------------------------------------------------------------
      1         12           0        4.069967   -0.422460    0.896528
      2          6           0        4.499110    2.612116   -0.952633
      3          6           0        4.239689    1.459706    3.737604
      4          6           0        4.148771   -3.125735    2.552643
      5          6           0        5.060860   -2.136759   -1.971393
      6          7           0        4.335479    1.751128    1.221587
      7          6           0        4.428122    2.813307    0.427631
      8          6           0        4.366543    4.166818    1.196779
      9          6           0        4.857428    3.665367    2.628414
     10          6           0        4.420698    2.213675    2.540191
     11          6           0        6.371792    3.712884    2.804327
     12          6           0        2.914341    4.748858    1.260572
     13          6           0        2.815586    6.211762    1.702739
     14          1           0        1.792831    7.056571    1.104726
     15          7           0        3.696690   -0.766659    2.805727
     16          6           0        3.801962    0.120392    3.824227
     17          6           0        3.416661   -0.615856    5.047405
     18          6           0        3.262082   -2.051967    4.684383
     19          6           0        3.727845   -2.043006    3.321166
     20          6           0        3.187415    0.048866    6.370031
     21          6           0        2.782203   -3.245199    5.448612
     22          8           0        2.946284   -4.438483    5.019981
     23          6           0        2.186198   -2.982207    6.770979
     24          7           0        4.745998   -2.345169    0.445078
     25          6           0        4.609999   -3.347621    1.320052
     26          6           0        4.900248   -4.673273    0.681038
     27          6           0        5.028360   -4.390399   -0.885271
     28          6           0        4.860516   -2.851069   -0.861578
     29          6           0        6.163435   -5.391985    1.174823
     30          6           0        4.116542   -5.217373   -1.826080
     31          6           0        2.671014   -4.827228   -1.613165
     32          7           0        4.506862    0.095219   -1.165553
     33          6           0        4.923125   -0.775146   -2.183326
     34          6           0        5.198031    0.051425   -3.372979
     35          6           0        4.936799    1.355482   -2.957002
     36          6           0        4.550097    1.346917   -1.586353
     37          6           0        5.686882   -0.422632   -4.622271
     38          6           0        4.918150    2.756645   -3.344626
     39          8           0        5.061822    3.364650   -4.406314
     40          6           0        4.751822    3.638312   -2.029017
     41          6           0        3.676578    4.655894   -2.296758
     42          8           0        2.490492    4.304885   -2.462164
     43          8           0        4.165754    5.886693   -2.081391
     44          6           0        3.140981    6.942075   -2.300852
     45          1           0        4.512913    1.912405    4.692776
     46          1           0        4.084683   -4.093253    3.054878
     47          1           0        5.292271   -2.610757   -2.927023
     48          1           0        5.041906    4.934999    0.819676
     49          1           0        4.332103    4.170546    3.438691
     50          1           0        6.873826    3.962159    1.869584
     51          1           0        6.657803    2.714397    3.135557
     52          1           0        6.646549    4.387787    3.615370
     53          1           0        2.371294    4.271453    2.076198
     54          1           0        2.407330    4.626704    0.302791
     55          1           0        3.787251    6.705254    1.667506
     56          1           0        2.539551    6.232002    2.757061
     57          1           0        3.538112    1.080147    6.366088
     58          1           0        3.828631   -0.453323    7.094157
     59          1           0        2.147475   -0.020596    6.689458
     60          1           0        2.917891   -2.476432    7.401350
     61          1           0        1.819440   -3.942467    7.131864
     62          1           0        1.353250   -2.288799    6.651264
     63          1           0        4.085929   -5.376274    0.851625
     64          1           0        6.035914   -4.582994   -1.254616
     65          1           0        5.974129   -6.392988    1.563233
     66          1           0        6.636178   -4.762974    1.928580
     67          1           0        6.958778   -5.478591    0.434995
     68          1           0        4.199210   -6.279310   -1.597165
     69          1           0        4.355222   -5.086067   -2.881561
     70          1           0        2.380106   -5.430414   -0.753880
     71          1           0        2.074856   -5.083234   -2.489674
     72          1           0        2.579869   -3.780508   -1.322380
     73          1           0        5.107337    0.089009   -5.390593
     74          1           0        5.583825   -1.504509   -4.703042
     75          1           0        6.728035   -0.105458   -4.565196
     76          1           0        5.718359    4.104207   -1.839623
     77          1           0        3.546921    7.635392   -3.037573
     78          1           0        2.889426    7.339053   -1.317220
     79          1           0        2.223314    6.626819   -2.798688
     80         12           0       -3.669426   -0.874090   -0.775782
     81          6           0       -6.323285    1.315262    0.245405
     82          6           0       -1.996486    1.898099   -1.848566
     83          6           0       -1.519480   -2.802003   -2.090444
     84          6           0       -5.975652   -3.485351   -0.684564
     85          7           0       -4.195540    1.274115   -0.749611
     86          6           0       -5.204004    1.993427   -0.280656
     87          6           0       -4.967243    3.527303   -0.307669
     88          6           0       -3.872858    3.581059   -1.481675
     89          6           0       -3.288141    2.177727   -1.335209
     90          6           0       -4.483065    3.701917   -2.868170
     91          6           0       -4.384517    4.066086    1.045911
     92          6           0       -4.418192    5.588209    1.200020
     93          1           0       -4.665912    6.148266    2.525705
     94          7           0       -1.810241   -0.510918   -1.367483
     95          6           0       -1.293944    0.677408   -1.745110
     96          6           0        0.106641    0.410627   -2.107521
     97          6           0        0.328750   -1.060427   -2.070372
     98          6           0       -1.026774   -1.526364   -1.856912
     99          6           0        1.102378    1.503613   -2.366964
    100          6           0        1.555910   -1.908203   -2.217104
    101          8           0        1.481755   -3.176295   -2.388226
    102          6           0        2.843130   -1.198541   -2.248117
    103          7           0       -3.780306   -2.813999   -1.515229
    104          6           0       -2.685772   -3.438932   -1.983611
    105          6           0       -2.949050   -4.909709   -2.202422
    106          6           0       -4.382770   -5.190927   -1.552080
    107          6           0       -4.755843   -3.752751   -1.130365
    108          6           0       -2.950537   -5.375896   -3.658121
    109          6           0       -4.463309   -6.318092   -0.486396
    110          6           0       -3.698875   -5.912090    0.753043
    111          7           0       -5.718273   -1.118040   -0.134877
    112          6           0       -6.501360   -2.290782   -0.209151
    113          6           0       -7.862894   -1.934318    0.239844
    114          6           0       -7.782694   -0.562820    0.524552
    115          6           0       -6.469546   -0.093044    0.251685
    116          6           0       -8.978560   -2.816608    0.294293
    117          6           0       -8.513119    0.596623    0.983770
    118          8           0       -9.639155    0.789093    1.440650
    119          6           0       -7.634532    1.891133    0.703246
    120          6           0       -7.633336    2.731052    1.951066
    121          8           0       -7.096380    2.314715    2.992673
    122          8           0       -8.070859    3.967407    1.650445
    123          6           0       -8.077208    4.841050    2.853988
    124          1           0       -1.487276    2.672961   -2.422307
    125          1           0       -0.787293   -3.533595   -2.439954
    126          1           0       -6.726122   -4.264413   -0.534434
    127          1           0       -5.834719    4.116105   -0.580745
    128          1           0       -3.114351    4.333082   -1.280471
    129          1           0       -5.558970    3.612488   -2.844024
    130          1           0       -4.049737    2.899844   -3.451221
    131          1           0       -4.156431    4.630968   -3.344105
    132          1           0       -3.299677    3.899754    1.060157
    133          1           0       -4.875957    3.607297    1.881758
    134          1           0       -5.067118    6.063727    0.454546
    135          1           0       -3.422985    5.981493    0.978892
    136          1           0        0.609978    2.476873   -2.484064
    137          1           0        1.547349    1.304563   -3.347902
    138          1           0        1.896953    1.535913   -1.618455
    139          1           0        2.844523   -0.488937   -3.072078
    140          1           0        3.606542   -1.978717   -2.267974
    141          1           0        2.941655   -0.612259   -1.327691
    142          1           0       -2.208062   -5.514938   -1.694741
    143          1           0       -5.120103   -5.497904   -2.308352
    144          1           0       -2.223546   -6.185625   -3.857851
    145          1           0       -2.750831   -4.521050   -4.290496
    146          1           0       -3.913440   -5.719846   -4.031902
    147          1           0       -3.987256   -7.227768   -0.860577
    148          1           0       -5.479277   -6.577447   -0.207937
    149          1           0       -2.666173   -6.172454    0.502393
    150          1           0       -4.047923   -6.471333    1.618754
    151          1           0       -3.738347   -4.826761    0.901895
    152          1           0       -9.481677   -2.624795    1.232685
    153          1           0       -8.667607   -3.856161    0.214251
    154          1           0       -9.532794   -2.484857   -0.587769
    155          1           0       -8.082929    2.414512   -0.142095
    156          1           0       -9.092831    5.235477    2.957110
    157          1           0       -7.265438    5.575426    2.694356
    158          1           0       -7.935516    4.367001    3.818175
 ---------------------------------------------------------------------

 SCF Done:  E(RCAM-B3LYP) =  -4069.62529603     A.U. after   19 cycles

 Excitation energies and oscillator strengths:

 Excited State   1:      Singlet-A      1.5475 eV  801.18 nm  f=0.2556  <S**2>=0.000
     309 -> 315        0.14567
     311 -> 313        0.65031
     312 -> 314        0.23202
 This state for optimization and/or second-order correction.
 Total Energy, E(TD-HF/TD-DFT) =  -4069.56842550
 Copying the excited state density for this state as the 1-particle RhoCI density.

 Excited State   2:      Singlet-A      1.6718 eV  741.64 nm  f=0.4876  <S**2>=0.000
     310 -> 316        0.12594
     311 -> 313       -0.22365
     312 -> 314        0.63910

 Excited State   3:      Singlet-A      1.8457 eV  671.76 nm  f=0.0037  <S**2>=0.000
     312 -> 313        0.69452

 Excited State   4:      Singlet-A      1.9386 eV  639.56 nm  f=0.0819  <S**2>=0.000
     309 -> 313        0.65716
     311 -> 315       -0.21212

 Excited State   5:      Singlet-A      2.1987 eV  563.90 nm  f=0.0870  <S**2>=0.000
     310 -> 314        0.63378
     312 -> 316       -0.22331
     312 -> 317       -0.16335

 The electronic state is 1-A.
 Alpha  occ. eigenvalues --  -46.88884 -46.86999 -19.27257 -19.26015 -19.20249
 Alpha  occ. eigenvalues --  -19.19555 -19.18788 -19.18494 -19.17430 -19.17321
 Alpha  occ. eigenvalues --  -14.43353 -14.41847 -14.41845 -14.40717 -14.40246
 Alpha  occ. eigenvalues --  -14.39295 -14.38627 -14.37937 -10.40189 -10.38702
 Alpha  occ. eigenvalues --  -10.36160 -10.34823 -10.33630 -10.33397 -10.32518
 Alpha  occ. eigenvalues --  -10.32504 -10.31822 -10.31648 -10.31514 -10.31387
 Alpha  occ. eigenvalues --  -10.30923 -10.30763 -10.30698 -10.30294 -10.29975
 Alpha  occ. eigenvalues --  -10.29724 -10.29641 -10.29609 -10.29421 -10.29416
 Alpha  occ. eigenvalues --  -10.29386 -10.29176 -10.28884 -10.28764 -10.28670
 Alpha  occ. eigenvalues --  -10.28660 -10.28629 -10.28416 -10.28385 -10.28298
 Alpha  occ. eigenvalues --  -10.28285 -10.28200 -10.27880 -10.27762 -10.27661
 Alpha  occ. eigenvalues --  -10.27577 -10.27396 -10.27282 -10.27231 -10.27022
 Alpha  occ. eigenvalues --  -10.26950 -10.26931 -10.26912 -10.26901 -10.26896
 Alpha  occ. eigenvalues --  -10.26831 -10.26513 -10.26402 -10.26321 -10.26208
 Alpha  occ. eigenvalues --  -10.26108 -10.25715 -10.25478 -10.25403 -10.25395
 Alpha  occ. eigenvalues --  -10.25287 -10.25261 -10.25191 -10.25081 -10.25060
 Alpha  occ. eigenvalues --  -10.24351 -10.24327 -10.24150 -10.24113 -10.21919
 Alpha  occ. eigenvalues --  -10.20520  -3.17648  -3.15753  -1.92536  -1.92094
 Alpha  occ. eigenvalues --   -1.91968  -1.90637  -1.90224  -1.90058  -1.17636
 Alpha  occ. eigenvalues --   -1.16298  -1.09074  -1.08077  -1.07922  -1.07776
 Alpha  occ. eigenvalues --   -1.07026  -1.06566  -1.05543  -1.04584  -1.04476
 Alpha  occ. eigenvalues --   -1.03840  -1.03192  -1.03011  -1.02370  -1.01434
 Alpha  occ. eigenvalues --   -0.93456  -0.91349  -0.90254  -0.89963  -0.88979
 Alpha  occ. eigenvalues --   -0.88914  -0.88618  -0.88459  -0.88164  -0.87928
 Alpha  occ. eigenvalues --   -0.87695  -0.87148  -0.87013  -0.86202  -0.85676
 Alpha  occ. eigenvalues --   -0.84686  -0.84378  -0.83489  -0.83386  -0.82714
 Alpha  occ. eigenvalues --   -0.82429  -0.82217  -0.81226  -0.81148  -0.80867
 Alpha  occ. eigenvalues --   -0.79812  -0.79515  -0.77921  -0.77694  -0.77212
 Alpha  occ. eigenvalues --   -0.76693  -0.76429  -0.76312  -0.75168  -0.74858
 Alpha  occ. eigenvalues --   -0.74199  -0.73442  -0.72444  -0.71993  -0.70986
 Alpha  occ. eigenvalues --   -0.69813  -0.69285  -0.69181  -0.68678  -0.68135
 Alpha  occ. eigenvalues --   -0.67975  -0.66996  -0.66693  -0.66030  -0.65909
 Alpha  occ. eigenvalues --   -0.65313  -0.64767  -0.64355  -0.64180  -0.63966
 Alpha  occ. eigenvalues --   -0.63634  -0.62888  -0.61782  -0.61196  -0.60583
 Alpha  occ. eigenvalues --   -0.60131  -0.59684  -0.59238  -0.59205  -0.58448
 Alpha  occ. eigenvalues --   -0.58300  -0.57803  -0.57670  -0.57137  -0.57029
 Alpha  occ. eigenvalues --   -0.56839  -0.56746  -0.56303  -0.55966  -0.55598
 Alpha  occ. eigenvalues --   -0.55393  -0.55250  -0.54816  -0.54630  -0.54467
 Alpha  occ. eigenvalues --   -0.54341  -0.54079  -0.54008  -0.53840  -0.53613
 Alpha  occ. eigenvalues --   -0.53449  -0.53188  -0.52751  -0.52639  -0.52411
 Alpha  occ. eigenvalues --   -0.52358  -0.52259  -0.52014  -0.51755  -0.51415
 Alpha  occ. eigenvalues --   -0.51285  -0.51217  -0.50878  -0.50679  -0.50559
 Alpha  occ. eigenvalues --   -0.50350  -0.50196  -0.49985  -0.49794  -0.49657
 Alpha  occ. eigenvalues --   -0.49351  -0.49264  -0.49171  -0.49163  -0.48915
 Alpha  occ. eigenvalues --   -0.48782  -0.48526  -0.48461  -0.48238  -0.48067
 Alpha  occ. eigenvalues --   -0.47961  -0.47865  -0.47620  -0.47379  -0.47195
 Alpha  occ. eigenvalues --   -0.46938  -0.46692  -0.46439  -0.46207  -0.46084
 Alpha  occ. eigenvalues --   -0.45959  -0.45705  -0.45604  -0.45463  -0.45314
 Alpha  occ. eigenvalues --   -0.45184  -0.45093  -0.44818  -0.44751  -0.44704
 Alpha  occ. eigenvalues --   -0.44383  -0.44225  -0.44165  -0.44091  -0.43946
 Alpha  occ. eigenvalues --   -0.43805  -0.43710  -0.43509  -0.43463  -0.43407
 Alpha  occ. eigenvalues --   -0.43201  -0.43061  -0.42823  -0.42467  -0.42314
 Alpha  occ. eigenvalues --   -0.42270  -0.42114  -0.41965  -0.41754  -0.41599
 Alpha  occ. eigenvalues --   -0.41484  -0.41414  -0.41230  -0.41191  -0.41017
 Alpha  occ. eigenvalues --   -0.40892  -0.40787  -0.40417  -0.40194  -0.39995
 Alpha  occ. eigenvalues --   -0.39954  -0.39657  -0.38966  -0.38658  -0.38193
 Alpha  occ. eigenvalues --   -0.38106  -0.37866  -0.37600  -0.37548  -0.37265
 Alpha  occ. eigenvalues --   -0.37000  -0.36733  -0.36674  -0.36452  -0.36363
 Alpha  occ. eigenvalues --   -0.35735  -0.35459  -0.34857  -0.34338  -0.33635
 Alpha  occ. eigenvalues --   -0.33424  -0.32539  -0.32052  -0.31695  -0.30738
 Alpha  occ. eigenvalues --   -0.30466  -0.30382  -0.30187  -0.29364  -0.29050
 Alpha  occ. eigenvalues --   -0.28889  -0.28562  -0.27117  -0.24127  -0.23386
 Alpha  occ. eigenvalues --   -0.21750  -0.20401
 Alpha virt. eigenvalues --   -0.09817  -0.08044  -0.02395  -0.01141  -0.00857
 Alpha virt. eigenvalues --    0.00484   0.01597   0.02400   0.02854   0.03794
 Alpha virt. eigenvalues --    0.04034   0.04105   0.05255   0.05387   0.05579

 Mulliken charges:
               1
     1  Mg   0.808933
     2  C    0.007732
     3  C   -0.092693
     4  C   -0.052301
     5  C    0.276115
     6  N   -0.256721
     7  C   -0.063360
     8  C   -0.012254
     9  C   -0.088312
    10  C    0.051288
    11  C    0.104272
    12  C    0.053113
    13  C   -0.072507
    14  H    0.035218
    15  N   -0.423072
    16  C    0.171929
    17  C   -0.172169
    18  C   -0.000551
    19  C    0.155130
    20  C    0.108839
    21  C    0.015770
    22  O   -0.242986
    23  C    0.060978
    24  N   -0.339571
    25  C    0.061862
    26  C   -0.031281
    27  C   -0.007323
    28  C   -0.057760
    29  C    0.077684
    30  C    0.046224
    31  C    0.066867
    32  N   -0.316255
    33  C   -0.216970
    34  C   -0.135946
    35  C    0.019868
    36  C    0.048193
    37  C    0.131389
    38  C    0.029198
    39  O   -0.188948
    40  C   -0.005799
    41  C    0.220812
    42  O   -0.255891
    43  O   -0.302003
    44  C    0.156612
    45  H   -0.014783
    46  H   -0.012747
    47  H   -0.026086
    48  H    0.001490
    49  H   -0.002091
    50  H    0.027987
    51  H    0.017362
    52  H    0.019104
    53  H    0.012127
    54  H    0.040658
    55  H    0.019194
    56  H    0.019850
    57  H    0.008742
    58  H    0.031105
    59  H    0.045591
    60  H    0.037850
    61  H    0.039628
    62  H    0.034126
    63  H    0.022979
    64  H    0.005278
    65  H    0.023984
    66  H    0.008855
    67  H    0.006780
    68  H   -0.008852
    69  H   -0.009181
    70  H   -0.034560
    71  H    0.014964
    72  H    0.026007
    73  H    0.041816
    74  H    0.008937
    75  H    0.047229
    76  H    0.037598
    77  H    0.046183
    78  H    0.048329
    79  H    0.051604
    80  Mg   0.832727
    81  C   -0.017167
    82  C   -0.088915
    83  C   -0.049516
    84  C   -0.065528
    85  N   -0.254109
    86  C   -0.052766
    87  C   -0.014700
    88  C   -0.089565
    89  C    0.044362
    90  C    0.114552
    91  C    0.063007
    92  C   -0.076173
    93  H    0.030702
    94  N   -0.423566
    95  C    0.160801
    96  C   -0.185259
    97  C    0.024366
    98  C    0.148964
    99  C    0.106511
   100  C    0.095609
   101  O   -0.275583
   102  C    0.099969
   103  N   -0.349916
   104  C    0.038956
   105  C   -0.019657
   106  C   -0.033761
   107  C    0.087192
   108  C    0.073997
   109  C    0.035309
   110  C   -0.007111
   111  N   -0.323231
   112  C    0.075446
   113  C   -0.165583
   114  C    0.001143
   115  C    0.093920
   116  C    0.132031
   117  C    0.040456
   118  O   -0.191800
   119  C    0.001331
   120  C    0.210948
   121  O   -0.252717
   122  O   -0.305434
   123  C    0.152721
   124  H   -0.012046
   125  H   -0.019008
   126  H   -0.042882
   127  H   -0.002166
   128  H   -0.003872
   129  H    0.021293
   130  H    0.015725
   131  H    0.015823
   132  H    0.012801
   133  H    0.036215
   134  H    0.020812
   135  H    0.018129
   136  H    0.018399
   137  H    0.028642
   138  H    0.051969
   139  H    0.036532
   140  H   -0.085913
   141  H    0.055670
   142  H    0.012575
   143  H    0.010952
   144  H    0.022239
   145  H    0.011854
   146  H    0.005309
   147  H    0.004304
   148  H    0.002778
   149  H    0.010370
   150  H    0.016582
   151  H    0.030542
   152  H    0.043628
   153  H    0.006765
   154  H    0.045053
   155  H    0.033790
   156  H    0.042945
   157  H    0.048642
   158  H    0.052168
 Sum of Mulliken charges =  -0.00000

 Dipole moment (field-independent basis, Debye):
    X=              5.7598    Y=              3.6358    Z=              3.1688  Tot=              7.5124
 Quadrupole moment (field-independent basis, Debye-Ang):
   XX=           -554.6171   YY=           -468.6572   ZZ=           -506.2913
   XY=              9.1805   XZ=             41.8474   YZ=             29.2387

 Normal termination of Gaussian 16 at Wed Sep  8 14:51:48 2021.
