 Gaussian 16, Revision A.03,
 Gaussian 16:  ES64L-G16RevA.03 25-Dec-2016

 -----------------------------------
 #p cam-b3lyp/Def2SVP td=(nstates=5)
 -----------------------------------

 --------------------------------
 TDDFT excited states in gaussian
 --------------------------------
 Symbolic Z-matrix:
 Charge =  0 Multiplicity = 1

                         Standard orientation:
 ---------------------------------------------------------------------
 Center     Atomic      Atomic             Coordinates (Angstroms)
 Number     Number       Type             X           Y           Z
 ---------------------------------------------------------------------
      1         12           0        6.530662   -0.649945   -0.405320
      2          6           0        6.729388    2.812476    0.480321
      3          6           0        7.579453   -1.366881    2.761556
      4          6           0        6.799972   -3.681162   -1.297407
      5          6           0        6.607064    0.351305   -3.742583
      6          7           0        7.053930    0.645006    1.312218
      7          6           0        7.030581    1.954425    1.540357
      8          6           0        7.282608    2.326216    3.032211
      9          6           0        8.078409    1.021268    3.485871
     10          6           0        7.512011    0.030752    2.483876
     11          6           0        9.585863    1.123562    3.277013
     12          6           0        5.949688    2.492994    3.836722
     13          6           0        6.091696    3.168976    5.203557
     14          1           0        5.025682    4.044981    5.665701
     15          7           0        6.629489   -2.299936    0.676628
     16          6           0        7.066286   -2.405368    1.954665
     17          6           0        6.945057   -3.835621    2.310141
     18          6           0        6.581548   -4.582495    1.073964
     19          6           0        6.682760   -3.541318    0.083466
     20          6           0        7.118467   -4.354455    3.704591
     21          6           0        6.213228   -6.010662    0.823342
     22          8           0        6.160484   -6.502676   -0.355519
     23          6           0        5.999236   -6.852616    2.014292
     24          7           0        6.903223   -1.560642   -2.246370
     25          6           0        6.910577   -2.892568   -2.368450
     26          6           0        6.914381   -3.308773   -3.809525
     27          6           0        6.661791   -1.977771   -4.654738
     28          6           0        6.636880   -0.958935   -3.488710
     29          6           0        8.196045   -3.992586   -4.305254
     30          6           0        5.473144   -1.990728   -5.648403
     31          6           0        4.168441   -2.061555   -4.886936
     32          7           0        6.468791    1.236762   -1.476560
     33          6           0        6.535890    1.420452   -2.865239
     34          6           0        6.567027    2.874528   -3.107645
     35          6           0        6.532378    3.439148   -1.834127
     36          6           0        6.509241    2.403133   -0.857178
     37          6           0        6.678561    3.505401   -4.378075
     38          6           0        6.534389    4.676480   -1.070672
     39          8           0        6.453255    5.871960   -1.356573
     40          6           0        6.785023    4.319816    0.460928
     41          6           0        5.767467    5.071540    1.275054
     42          8           0        4.553098    4.795618    1.194189
     43          8           0        6.398092    5.826155    2.187967
     44          6           0        5.444684    6.575832    3.048869
     45          1           0        8.124957   -1.703726    3.645242
     46          1           0        6.784362   -4.713244   -1.653778
     47          1           0        6.545652    0.738977   -4.761107
     48          1           0        7.901973    3.210772    3.181782
     49          1           0        7.822278    0.721028    4.501733
     50          1           0        9.851832    2.028080    2.730179
     51          1           0        9.861136    0.237686    2.704352
     52          1           0       10.114902    1.042632    4.226931
     53          1           0        5.594431    1.511655    4.151091
     54          1           0        5.206420    3.028599    3.245109
     55          1           0        7.060415    3.658588    5.307344
     56          1           0        6.096808    2.393253    5.969343
     57          1           0        7.542776   -3.597932    4.363513
     58          1           0        7.878312   -5.134532    3.661879
     59          1           0        6.192569   -4.764833    4.107871
     60          1           0        6.907855   -6.861545    2.616688
     61          1           0        5.656641   -7.817691    1.642664
     62          1           0        5.225317   -6.398172    2.633548
     63          1           0        6.113982   -4.018798   -4.013610
     64          1           0        7.521502   -1.715894   -5.271982
     65          1           0        8.027926   -4.982430   -4.730283
     66          1           0        8.897241   -4.038520   -3.472484
     67          1           0        8.765762   -3.420338   -5.036945
     68          1           0        5.521060   -2.873266   -6.285410
     69          1           0        5.444625   -1.114893   -6.296747
     70          1           0        4.056491   -3.127979   -4.694482
     71          1           0        3.348705   -1.687528   -5.501223
     72          1           0        4.243785   -1.562230   -3.920767
     73          1           0        5.967627    4.331538   -4.371862
     74          1           0        6.466825    2.806667   -5.187113
     75          1           0        7.722807    3.816847   -4.357891
     76          1           0        7.803823    4.629167    0.692163
     77          1           0        5.706373    7.631367    2.974047
     78          1           0        5.487306    6.112624    4.034783
     79          1           0        4.406972    6.596853    2.714127
     80         12           0       -6.687102   -0.833581    0.277277
     81          6           0       -6.596727    2.494665   -1.062005
     82          6           0       -5.675484    0.496047    3.251050
     83          6           0       -6.321816   -3.792652    1.362591
     84          6           0       -6.570606   -2.007196   -3.002168
     85          7           0       -6.228852    1.241491    0.890752
     86          6           0       -6.289307    2.431885    0.313130
     87          6           0       -6.083020    3.627713    1.281110
     88          6           0       -5.252694    2.868870    2.427239
     89          6           0       -5.772125    1.449688    2.206384
     90          6           0       -3.752437    2.871436    2.185287
     91          6           0       -7.439632    4.191431    1.832326
     92          6           0       -7.334716    5.546763    2.535049
     93          1           0       -8.438615    6.492037    2.392412
     94          7           0       -6.565992   -1.513270    2.137900
     95          6           0       -6.156592   -0.831494    3.228245
     96          6           0       -6.230538   -1.782195    4.348445
     97          6           0       -6.559592   -3.126638    3.801718
     98          6           0       -6.472847   -2.861369    2.379677
     99          6           0       -6.077251   -1.364089    5.782015
    100          6           0       -6.884409   -4.437611    4.451363
    101          8           0       -6.903776   -5.532598    3.785427
    102          6           0       -7.087375   -4.415313    5.907312
    103          7           0       -6.263599   -2.638360   -0.663870
    104          6           0       -6.211762   -3.786492    0.033997
    105          6           0       -6.167346   -4.982795   -0.886483
    106          6           0       -6.445286   -4.407411   -2.352517
    107          6           0       -6.516923   -2.900116   -2.023404
    108          6           0       -4.858110   -5.771651   -0.889416
    109          6           0       -7.615593   -5.046473   -3.149171
    110          6           0       -8.933649   -4.707923   -2.490771
    111          7           0       -6.785088    0.045793   -1.693799
    112          6           0       -6.691084   -0.625142   -2.932779
    113          6           0       -6.695588    0.407958   -3.988778
    114          6           0       -6.769292    1.619037   -3.284275
    115          6           0       -6.787623    1.359983   -1.887113
    116          6           0       -6.588403    0.168032   -5.387730
    117          6           0       -6.825046    3.058185   -3.404514
    118          8           0       -6.926343    3.848282   -4.342173
    119          6           0       -6.588210    3.694892   -1.967537
    120          6           0       -7.640371    4.746842   -1.746453
    121          8           0       -8.840335    4.432065   -1.659303
    122          8           0       -7.040561    5.916332   -1.458540
    123          6           0       -8.043258    6.988517   -1.220159
    124          1           0       -5.143673    0.775413    4.161001
    125          1           0       -6.302668   -4.837976    1.679455
    126          1           0       -6.635878   -2.296384   -4.053254
    127          1           0       -5.497071    4.444084    0.876159
    128          1           0       -5.527683    3.225951    3.416303
    129          1           0       -3.500916    3.282152    1.218756
    130          1           0       -3.442433    1.836597    2.248929
    131          1           0       -3.240018    3.390233    3.000532
    132          1           0       -7.770722    3.568825    2.673437
    133          1           0       -8.174915    4.244365    1.053111
    134          1           0       -6.376640    6.041742    2.334966
    135          1           0       -7.329061    5.378361    3.614686
    136          1           0       -5.678946   -0.345206    5.863477
    137          1           0       -5.296353   -1.996644    6.217825
    138          1           0       -6.996467   -1.489989    6.358084
    139          1           0       -6.191962   -4.032152    6.390938
    140          1           0       -7.397532   -5.427337    6.174669
    141          1           0       -7.894972   -3.711360    6.137225
    142          1           0       -6.944848   -5.693559   -0.634679
    143          1           0       -5.577781   -4.543554   -3.014887
    144          1           0       -4.992312   -6.841034   -0.639441
    145          1           0       -4.174810   -5.301573   -0.194668
    146          1           0       -4.299367   -5.735673   -1.823068
    147          1           0       -7.532615   -6.135999   -3.135463
    148          1           0       -7.648818   -4.739090   -4.189084
    149          1           0       -9.014059   -5.458772   -1.699030
    150          1           0       -9.751511   -4.796261   -3.203047
    151          1           0       -8.891728   -3.724133   -2.009051
    152          1           0       -7.314420    0.808934   -5.870058
    153          1           0       -6.761265   -0.879435   -5.625868
    154          1           0       -5.548842    0.461287   -5.556823
    155          1           0       -5.581438    4.114271   -1.956929
    156          1           0       -7.805935    7.806429   -1.907462
    157          1           0       -7.992515    7.209635   -0.137445
    158          1           0       -9.072795    6.780192   -1.486811
 ---------------------------------------------------------------------

 SCF Done:  E(RCAM-B3LYP) =  -4069.81179767     A.U. after   19 cycles

 Excitation energies and oscillator strengths:

 Excited State   1:      Singlet-A      1.6675 eV  743.53 nm  f=0.0735  <S**2>=0.000
     309 -> 315       -0.10633
     310 -> 316        0.13487
     311 -> 313       -0.42315
     312 -> 314        0.54059
 This state for optimization and/or second-order correction.
 Total Energy, E(TD-HF/TD-DFT) =  -4069.75051751
 Copying the excited state density for this state as the 1-particle RhoCI density.

 Excited State   2:      Singlet-A      1.6868 eV  735.04 nm  f=0.6672  <S**2>=0.000
     309 -> 315        0.13982
     310 -> 316        0.10841
     311 -> 313        0.53955
     312 -> 314        0.42240

 Excited State   3:      Singlet-A      2.1843 eV  567.60 nm  f=0.0592  <S**2>=0.000
     309 -> 313       -0.16667
     310 -> 314        0.62114
     312 -> 316       -0.26222

 Excited State   4:      Singlet-A      2.1936 eV  565.21 nm  f=0.1325  <S**2>=0.000
     309 -> 313        0.61865
     310 -> 314        0.16515
     311 -> 315       -0.26964

 Excited State   5:      Singlet-A      2.6474 eV  468.32 nm  f=0.0000  <S**2>=0.000
     312 -> 313        0.70710

 The electronic state is 1-A.
 Alpha  occ. eigenvalues --  -46.87857 -46.87545 -19.26394 -19.26200 -19.19127
 Alpha  occ. eigenvalues --  -19.19023 -19.18861 -19.18639 -19.18230 -19.17924
 Alpha  occ. eigenvalues --  -14.42514 -14.42374 -14.41506 -14.41246 -14.39461
 Alpha  occ. eigenvalues --  -14.39241 -14.38645 -14.38484 -10.39183 -10.38950
 Alpha  occ. eigenvalues --  -10.35494 -10.35319 -10.34452 -10.34098 -10.31807
 Alpha  occ. eigenvalues --  -10.31610 -10.31471 -10.31175 -10.30979 -10.30899
 Alpha  occ. eigenvalues --  -10.30629 -10.30562 -10.30288 -10.30259 -10.30243
 Alpha  occ. eigenvalues --  -10.30039 -10.29973 -10.29783 -10.29685 -10.29332
 Alpha  occ. eigenvalues --  -10.29309 -10.29295 -10.28841 -10.28680 -10.28561
 Alpha  occ. eigenvalues --  -10.28519 -10.28426 -10.28288 -10.28197 -10.27970
 Alpha  occ. eigenvalues --  -10.27890 -10.27847 -10.27789 -10.27639 -10.27548
 Alpha  occ. eigenvalues --  -10.27542 -10.27538 -10.27492 -10.27468 -10.27424
 Alpha  occ. eigenvalues --  -10.27396 -10.27365 -10.27362 -10.27280 -10.27233
 Alpha  occ. eigenvalues --  -10.26904 -10.26827 -10.26556 -10.26448 -10.26368
 Alpha  occ. eigenvalues --  -10.26305 -10.26217 -10.26071 -10.26058 -10.25873
 Alpha  occ. eigenvalues --  -10.25826 -10.25786 -10.25747 -10.25472 -10.25301
 Alpha  occ. eigenvalues --  -10.24888 -10.24844 -10.24759 -10.24724 -10.24656
 Alpha  occ. eigenvalues --  -10.24580  -3.16600  -3.16295  -1.91481  -1.91177
 Alpha  occ. eigenvalues --   -1.91068  -1.90910  -1.90765  -1.90602  -1.16742
 Alpha  occ. eigenvalues --   -1.16497  -1.08690  -1.08528  -1.07261  -1.06893
 Alpha  occ. eigenvalues --   -1.06807  -1.06748  -1.04646  -1.04371  -1.03819
 Alpha  occ. eigenvalues --   -1.03548  -1.03291  -1.02928  -1.02469  -1.01997
 Alpha  occ. eigenvalues --   -0.92037  -0.91862  -0.89570  -0.89390  -0.89272
 Alpha  occ. eigenvalues --   -0.88995  -0.88336  -0.88119  -0.87919  -0.87739
 Alpha  occ. eigenvalues --   -0.87682  -0.87564  -0.87327  -0.87033  -0.85063
 Alpha  occ. eigenvalues --   -0.84864  -0.83985  -0.83777  -0.83015  -0.82854
 Alpha  occ. eigenvalues --   -0.82723  -0.82527  -0.81667  -0.81468  -0.80666
 Alpha  occ. eigenvalues --   -0.80323  -0.78851  -0.78536  -0.77282  -0.77025
 Alpha  occ. eigenvalues --   -0.77014  -0.76767  -0.75999  -0.75696  -0.74952
 Alpha  occ. eigenvalues --   -0.74693  -0.72830  -0.72585  -0.71734  -0.71452
 Alpha  occ. eigenvalues --   -0.69952  -0.69663  -0.68948  -0.68698  -0.67703
 Alpha  occ. eigenvalues --   -0.67490  -0.67305  -0.67084  -0.65367  -0.65134
 Alpha  occ. eigenvalues --   -0.64921  -0.64691  -0.64652  -0.64528  -0.64322
 Alpha  occ. eigenvalues --   -0.64098  -0.62382  -0.62150  -0.60494  -0.60245
 Alpha  occ. eigenvalues --   -0.59878  -0.59656  -0.59048  -0.58876  -0.58566
 Alpha  occ. eigenvalues --   -0.58308  -0.57660  -0.57421  -0.57366  -0.57131
 Alpha  occ. eigenvalues --   -0.56369  -0.56093  -0.56073  -0.55756  -0.55579
 Alpha  occ. eigenvalues --   -0.55400  -0.55344  -0.55136  -0.54594  -0.54372
 Alpha  occ. eigenvalues --   -0.53980  -0.53763  -0.53355  -0.53293  -0.53123
 Alpha  occ. eigenvalues --   -0.53022  -0.52990  -0.52818  -0.52780  -0.52569
 Alpha  occ. eigenvalues --   -0.52482  -0.52311  -0.51959  -0.51775  -0.51696
 Alpha  occ. eigenvalues --   -0.51534  -0.51260  -0.51082  -0.50622  -0.50398
 Alpha  occ. eigenvalues --   -0.50081  -0.49976  -0.49861  -0.49767  -0.49583
 Alpha  occ. eigenvalues --   -0.49374  -0.49278  -0.49170  -0.49080  -0.48958
 Alpha  occ. eigenvalues --   -0.48664  -0.48513  -0.48504  -0.48427  -0.48274
 Alpha  occ. eigenvalues --   -0.48241  -0.47760  -0.47479  -0.47356  -0.47015
 Alpha  occ. eigenvalues --   -0.46858  -0.46639  -0.46593  -0.46418  -0.46417
 Alpha  occ. eigenvalues --   -0.46222  -0.46164  -0.45972  -0.45890  -0.45695
 Alpha  occ. eigenvalues --   -0.45252  -0.45102  -0.44643  -0.44570  -0.44393
 Alpha  occ. eigenvalues --   -0.44349  -0.44202  -0.44162  -0.44083  -0.43991
 Alpha  occ. eigenvalues --   -0.43979  -0.43832  -0.43570  -0.43454  -0.43426
 Alpha  occ. eigenvalues --   -0.43259  -0.43089  -0.42804  -0.42788  -0.42773
 Alpha  occ. eigenvalues --   -0.42711  -0.42456  -0.42071  -0.41853  -0.41767
 Alpha  occ. eigenvalues --   -0.41615  -0.41545  -0.41332  -0.41205  -0.40943
 Alpha  occ. eigenvalues --   -0.40882  -0.40857  -0.40627  -0.40625  -0.40576
 Alpha  occ. eigenvalues --   -0.40380  -0.40336  -0.40097  -0.39485  -0.39334
 Alpha  occ. eigenvalues --   -0.38525  -0.38242  -0.37846  -0.37525  -0.37375
 Alpha  occ. eigenvalues --   -0.37343  -0.37155  -0.37071  -0.36802  -0.36640
 Alpha  occ. eigenvalues --   -0.36265  -0.36099  -0.34346  -0.34136  -0.33869
 Alpha  occ. eigenvalues --   -0.33729  -0.33248  -0.33061  -0.31391  -0.31196
 Alpha  occ. eigenvalues --   -0.31096  -0.30855  -0.30090  -0.29826  -0.29504
 Alpha  occ. eigenvalues --   -0.29377  -0.29226  -0.29098  -0.24141  -0.23918
 Alpha  occ. eigenvalues --   -0.21185  -0.21003
 Alpha virt. eigenvalues --   -0.08831  -0.08681  -0.01807  -0.01573  -0.00115
 Alpha virt. eigenvalues --    0.00074   0.02144   0.02324   0.03052   0.03331
 Alpha virt. eigenvalues --    0.04641   0.04860   0.05000   0.05304   0.06066

 Mulliken charges:
               1
     1  Mg   0.838562
     2  C   -0.003226
     3  C   -0.094354
     4  C   -0.045768
     5  C   -0.063732
     6  N   -0.256762
     7  C   -0.052607
     8  C   -0.013991
     9  C   -0.086960
    10  C    0.046181
    11  C    0.104790
    12  C    0.053587
    13  C   -0.071426
    14  H    0.034901
    15  N   -0.433152
    16  C    0.168345
    17  C   -0.177196
    18  C   -0.003906
    19  C    0.148673
    20  C    0.110175
    21  C    0.012354
    22  O   -0.249506
    23  C    0.062454
    24  N   -0.341099
    25  C    0.041238
    26  C   -0.028199
    27  C   -0.024032
    28  C    0.074776
    29  C    0.076138
    30  C    0.035097
    31  C   -0.004547
    32  N   -0.310503
    33  C    0.080362
    34  C   -0.169426
    35  C    0.008397
    36  C    0.082949
    37  C    0.127260
    38  C    0.046138
    39  O   -0.188305
    40  C   -0.005379
    41  C    0.212980
    42  O   -0.257642
    43  O   -0.304595
    44  C    0.157858
    45  H   -0.017624
    46  H   -0.016703
    47  H   -0.041160
    48  H    0.000981
    49  H   -0.004277
    50  H    0.025553
    51  H    0.016646
    52  H    0.016662
    53  H    0.010925
    54  H    0.043658
    55  H    0.018253
    56  H    0.017863
    57  H    0.005705
    58  H    0.026979
    59  H    0.039489
    60  H    0.037349
    61  H    0.035907
    62  H    0.031527
    63  H    0.016571
    64  H    0.009634
    65  H    0.023305
    66  H    0.012556
    67  H    0.004895
    68  H    0.006449
    69  H    0.005048
    70  H    0.008602
    71  H    0.018399
    72  H    0.028863
    73  H    0.047897
    74  H    0.009418
    75  H    0.046093
    76  H    0.035260
    77  H    0.043169
    78  H    0.046145
    79  H    0.053061
    80  Mg   0.837979
    81  C   -0.016692
    82  C   -0.087718
    83  C   -0.045746
    84  C   -0.064958
    85  N   -0.254637
    86  C   -0.049275
    87  C   -0.015232
    88  C   -0.090621
    89  C    0.045952
    90  C    0.114402
    91  C    0.062529
    92  C   -0.077781
    93  H    0.034425
    94  N   -0.423444
    95  C    0.162864
    96  C   -0.174875
    97  C   -0.008155
    98  C    0.152151
    99  C    0.099546
   100  C    0.015281
   101  O   -0.253507
   102  C    0.061313
   103  N   -0.350046
   104  C    0.037562
   105  C   -0.019813
   106  C   -0.034797
   107  C    0.089046
   108  C    0.073675
   109  C    0.034790
   110  C   -0.007621
   111  N   -0.324168
   112  C    0.078663
   113  C   -0.163149
   114  C    0.002526
   115  C    0.096201
   116  C    0.131424
   117  C    0.042562
   118  O   -0.187616
   119  C    0.000833
   120  C    0.211130
   121  O   -0.251393
   122  O   -0.305156
   123  C    0.152159
   124  H   -0.019786
   125  H   -0.015936
   126  H   -0.040676
   127  H    0.000354
   128  H   -0.004835
   129  H    0.024351
   130  H    0.014379
   131  H    0.016741
   132  H    0.013533
   133  H    0.037468
   134  H    0.021457
   135  H    0.019241
   136  H    0.008685
   137  H    0.025435
   138  H    0.039430
   139  H    0.037826
   140  H    0.035986
   141  H    0.033863
   142  H    0.014117
   143  H    0.012442
   144  H    0.024841
   145  H    0.011713
   146  H    0.005875
   147  H    0.006083
   148  H    0.003525
   149  H    0.010794
   150  H    0.017716
   151  H    0.030214
   152  H    0.045879
   153  H    0.008224
   154  H    0.047247
   155  H    0.036418
   156  H    0.044100
   157  H    0.049475
   158  H    0.053207
 Sum of Mulliken charges =  -0.00000

 Dipole moment (field-independent basis, Debye):
    X=              4.4983    Y=             -2.1670    Z=              6.9644  Tot=              8.5693
 Quadrupole moment (field-independent basis, Debye-Ang):
   XX=           -517.8589   YY=           -541.5081   ZZ=           -457.9353
   XY=             -9.9065   XZ=             -2.0852   YZ=             39.4350

 Normal termination of Gaussian 16 at Sat Sep  4 10:57:17 2021.
