 Gaussian 16, Revision A.03,
 Gaussian 16:  ES64L-G16RevA.03 25-Dec-2016

 -----------------------------------
 #p cam-b3lyp/Def2SVP td=(nstates=5)
 -----------------------------------

 --------------------------------
 TDDFT excited states in gaussian
 --------------------------------
 Symbolic Z-matrix:
 Charge =  0 Multiplicity = 1

                         Standard orientation:
 ---------------------------------------------------------------------
 Center     Atomic      Atomic             Coordinates (Angstroms)
 Number     Number       Type             X           Y           Z
 ---------------------------------------------------------------------
      1         12           0        5.384907    0.457319    1.152670
      2          6           0        5.996972   -2.470200   -0.813856
      3          6           0        6.804748    2.266237   -1.368229
      4          6           0        5.269932    2.992825    3.053883
      5          6           0        5.074990   -1.643509    3.916026
      6          7           0        6.251745   -0.139957   -0.794764
      7          6           0        6.371019   -1.287345   -1.455406
      8          6           0        6.860834   -1.106999   -2.923374
      9          6           0        7.599864    0.297542   -2.771395
     10          6           0        6.816782    0.858269   -1.597389
     11          6           0        9.066142    0.174176   -2.369759
     12          6           0        5.673183   -1.022376   -3.940259
     13          6           0        6.062478   -1.173892   -5.413638
     14          1           0        5.149644   -1.865029   -6.311642
     15          7           0        5.495757    2.383436    0.727659
     16          6           0        6.097590    2.941627   -0.350072
     17          6           0        5.907640    4.401633   -0.212293
     18          6           0        5.312257    4.658504    1.128465
     19          6           0        5.360367    3.340535    1.708139
     20          6           0        6.231235    5.379725   -1.299662
     21          6           0        4.793456    5.897466    1.787215
     22          8           0        4.534148    5.945014    3.038243
     23          6           0        4.679064    7.095455    0.935876
     24          7           0        5.416740    0.678550    3.228165
     25          6           0        5.294716    1.883572    3.795630
     26          6           0        5.060678    1.770255    5.272899
     27          6           0        4.804607    0.220932    5.562345
     28          6           0        5.029847   -0.326837    4.131441
     29          6           0        6.197695    2.276154    6.171380
     30          6           0        3.491145   -0.149706    6.295737
     31          6           0        2.305275    0.143266    5.404122
     32          7           0        5.331945   -1.685646    1.493173
     33          6           0        5.218208   -2.340599    2.727990
     34          6           0        5.337200   -3.786145    2.462835
     35          6           0        5.529727   -3.871268    1.085325
     36          6           0        5.557164   -2.560515    0.529030
     37          6           0        5.321571   -4.817282    3.443113
     38          6           0        5.743271   -4.763443   -0.042629
     39          8           0        5.723626   -5.985364   -0.197599
     40          6           0        6.175991   -3.887015   -1.299791
     41          6           0        5.350023   -4.337381   -2.473782
     42          8           0        4.117485   -4.143754   -2.500701
     43          8           0        6.164075   -4.706348   -3.474644
     44          6           0        5.407795   -5.136532   -4.680935
     45          1           0        7.438855    2.906722   -1.984369
     46          1           0        5.117525    3.834517    3.732679
     47          1           0        4.903731   -2.364113    4.717807
     48          1           0        7.567311   -1.864566   -3.263087
     49          1           0        7.464862    0.925772   -3.651636
     50          1           0        9.327701   -0.855914   -2.128053
     51          1           0        9.182557    0.812163   -1.493452
     52          1           0        9.714866    0.597614   -3.136984
     53          1           0        5.284370   -0.004204   -3.954856
     54          1           0        4.901812   -1.752971   -3.694203
     55          1           0        7.073901   -1.567043   -5.520253
     56          1           0        6.109979   -0.179808   -5.858318
     57          1           0        6.806188    4.914065   -2.099122
     58          1           0        6.909134    6.118271   -0.872213
     59          1           0        5.340069    5.877028   -1.682864
     60          1           0        5.659394    7.341528    0.527279
     61          1           0        4.207590    7.859221    1.553309
     62          1           0        4.040996    6.862793    0.082830
     63          1           0        4.182634    2.339878    5.574554
     64          1           0        5.587879   -0.214002    6.183628
     65          1           0        5.888738    3.049721    6.874832
     66          1           0        7.002708    2.631089    5.528521
     67          1           0        6.704917    1.501845    6.746348
     68          1           0        3.374506    0.455840    7.193877
     69          1           0        3.445504   -1.197244    6.593781
     70          1           0        2.132162    1.205875    5.570633
     71          1           0        1.441681   -0.446220    5.713836
     72          1           0        2.557566    0.015278    4.351291
     73          1           0        4.690664   -5.610240    3.041687
     74          1           0        4.940059   -4.451769    4.396240
     75          1           0        6.380740   -5.070490    3.486742
     76          1           0        7.239577   -4.065327   -1.455071
     77          1           0        5.744255   -6.143357   -4.928585
     78          1           0        5.549573   -4.357138   -5.429833
     79          1           0        4.338796   -5.304348   -4.545219
     80         12           0       -4.978899    0.474798   -0.991603
     81          6           0       -7.345893   -1.657281    0.660872
     82          6           0       -7.345354    2.929269   -0.891283
     83          6           0       -3.091517    2.232551   -2.839723
     84          6           0       -3.276617   -2.405077   -1.968478
     85          7           0       -7.040757    0.510419   -0.191776
     86          6           0       -7.811670   -0.339764    0.469454
     87          6           0       -9.123672    0.278277    1.022850
     88          6           0       -9.261987    1.506583   -0.002334
     89          6           0       -7.789414    1.690641   -0.363354
     90          6           0      -10.023329    1.150881   -1.268494
     91          6           0       -8.971042    0.779043    2.502020
     92          6           0      -10.287815    1.109474    3.208201
     93          1           0      -10.402447    0.824882    4.635905
     94          7           0       -4.973215    2.430154   -1.330918
     95          6           0       -6.016980    3.278365   -1.219715
     96          6           0       -5.501069    4.602972   -1.598443
     97          6           0       -4.109856    4.438490   -2.100634
     98          6           0       -4.009379    2.993105   -2.130050
     99          6           0       -6.281122    5.869060   -1.393618
    100          6           0       -3.050227    5.419558   -2.501734
    101          8           0       -1.997324    5.052554   -3.133820
    102          6           0       -3.325215    6.835147   -2.215396
    103          7           0       -3.532117   -0.016076   -2.401646
    104          6           0       -2.820633    0.940253   -3.023865
    105          6           0       -1.657381    0.347843   -3.783002
    106          6           0       -1.593840   -1.187999   -3.341723
    107          6           0       -2.840858   -1.241741   -2.432074
    108          6           0       -1.743071    0.436207   -5.306555
    109          6           0       -0.242313   -1.701875   -2.774284
    110          6           0        0.041820   -1.044487   -1.442936
    111          7           0       -5.128668   -1.638947   -0.570072
    112          6           0       -4.331290   -2.674109   -1.105519
    113          6           0       -4.886274   -3.951012   -0.611626
    114          6           0       -5.990692   -3.568298    0.164444
    115          6           0       -6.127252   -2.154022    0.138471
    116          6           0       -4.399631   -5.249395   -0.933334
    117          6           0       -7.078372   -4.039800    0.991091
    118          8           0       -7.416412   -5.133903    1.440968
    119          6           0       -8.079453   -2.831885    1.246367
    120          6           0       -8.399493   -2.796447    2.715667
    121          8           0       -7.514050   -2.536328    3.549308
    122          8           0       -9.733694   -2.859853    2.877674
    123          6           0      -10.101314   -2.816791    4.318103
    124          1           0       -8.089279    3.694194   -1.115678
    125          1           0       -2.347856    2.798208   -3.405815
    126          1           0       -2.744315   -3.341534   -2.148391
    127          1           0       -9.993248   -0.364153    0.952899
    128          1           0       -9.646703    2.393791    0.493856
    129          1           0      -10.244231    0.095231   -1.322645
    130          1           0       -9.383051    1.446032   -2.089463
    131          1           0      -10.923780    1.766104   -1.352319
    132          1           0       -8.505777    1.773153    2.497286
    133          1           0       -8.414112    0.073620    3.087543
    134          1           0      -11.156218    0.714941    2.666754
    135          1           0      -10.429531    2.192790    3.189031
    136          1           0       -7.332719    5.660477   -1.161144
    137          1           0       -6.313566    6.384468   -2.359624
    138          1           0       -5.823616    6.530873   -0.655135
    139          1           0       -4.243011    7.133295   -2.716614
    140          1           0       -2.415508    7.371408   -2.492403
    141          1           0       -3.503507    6.946325   -1.140003
    142          1           0       -0.728596    0.831612   -3.506570
    143          1           0       -1.792113   -1.863339   -4.186976
    144          1           0       -0.879427    0.955788   -5.762888
    145          1           0       -2.667617    0.933512   -5.568166
    146          1           0       -1.841252   -0.518881   -5.819748
    147          1           0        0.578387   -1.422816   -3.439667
    148          1           0       -0.206476   -2.779382   -2.653094
    149          1           0        0.484823   -0.086266   -1.730422
    150          1           0        0.739740   -1.643291   -0.861230
    151          1           0       -0.888087   -0.829228   -0.903877
    152          1           0       -4.392104   -5.816220   -0.011836
    153          1           0       -3.408895   -5.203096   -1.380630
    154          1           0       -5.159448   -5.570167   -1.651009
    155          1           0       -8.967426   -3.008185    0.638110
    156          1           0      -10.710069   -3.703756    4.519121
    157          1           0      -10.579355   -1.831615    4.475103
    158          1           0       -9.304567   -2.938484    5.042555
 ---------------------------------------------------------------------

 SCF Done:  E(RCAM-B3LYP) =  -4069.81276406     A.U. after   19 cycles

 Excitation energies and oscillator strengths:

 Excited State   1:      Singlet-A      1.6548 eV  749.24 nm  f=0.0060  <S**2>=0.000
     309 -> 315       -0.11130
     310 -> 316        0.12685
     311 -> 313       -0.45125
     312 -> 314        0.51830
 This state for optimization and/or second-order correction.
 Total Energy, E(TD-HF/TD-DFT) =  -4069.75195137
 Copying the excited state density for this state as the 1-particle RhoCI density.

 Excited State   2:      Singlet-A      1.6962 eV  730.95 nm  f=0.7133  <S**2>=0.000
     309 -> 315        0.13573
     310 -> 316        0.11721
     311 -> 313        0.51646
     312 -> 314        0.44964

 Excited State   3:      Singlet-A      2.1832 eV  567.90 nm  f=0.0719  <S**2>=0.000
     309 -> 313        0.16557
     310 -> 314        0.62181
     312 -> 316       -0.26180

 Excited State   4:      Singlet-A      2.1949 eV  564.88 nm  f=0.1217  <S**2>=0.000
     309 -> 313        0.61888
     310 -> 314       -0.16345
     311 -> 315       -0.27032

 Excited State   5:      Singlet-A      2.5313 eV  489.80 nm  f=0.0000  <S**2>=0.000
     312 -> 313        0.70682

 The electronic state is 1-A.
 Alpha  occ. eigenvalues --  -46.87735 -46.87454 -19.26398 -19.26218 -19.19161
 Alpha  occ. eigenvalues --  -19.19020 -19.18715 -19.18597 -19.18148 -19.17878
 Alpha  occ. eigenvalues --  -14.42400 -14.42302 -14.41381 -14.41130 -14.39333
 Alpha  occ. eigenvalues --  -14.39156 -14.38533 -14.38393 -10.39201 -10.38946
 Alpha  occ. eigenvalues --  -10.35345 -10.35280 -10.34375 -10.34054 -10.31803
 Alpha  occ. eigenvalues --  -10.31643 -10.31369 -10.31108 -10.30868 -10.30855
 Alpha  occ. eigenvalues --  -10.30517 -10.30443 -10.30188 -10.30147 -10.30115
 Alpha  occ. eigenvalues --  -10.29893 -10.29856 -10.29655 -10.29563 -10.29240
 Alpha  occ. eigenvalues --  -10.29200 -10.29174 -10.28762 -10.28618 -10.28570
 Alpha  occ. eigenvalues --  -10.28541 -10.28314 -10.28224 -10.28103 -10.27984
 Alpha  occ. eigenvalues --  -10.27808 -10.27727 -10.27668 -10.27508 -10.27474
 Alpha  occ. eigenvalues --  -10.27390 -10.27366 -10.27355 -10.27354 -10.27324
 Alpha  occ. eigenvalues --  -10.27292 -10.27278 -10.27174 -10.27125 -10.27090
 Alpha  occ. eigenvalues --  -10.26885 -10.26785 -10.26559 -10.26347 -10.26267
 Alpha  occ. eigenvalues --  -10.26212 -10.26033 -10.25940 -10.25884 -10.25760
 Alpha  occ. eigenvalues --  -10.25669 -10.25570 -10.25471 -10.25350 -10.25202
 Alpha  occ. eigenvalues --  -10.24778 -10.24723 -10.24681 -10.24504 -10.24486
 Alpha  occ. eigenvalues --  -10.24119  -3.16477  -3.16204  -1.91359  -1.91087
 Alpha  occ. eigenvalues --   -1.90946  -1.90788  -1.90675  -1.90512  -1.16747
 Alpha  occ. eigenvalues --   -1.16510  -1.08619  -1.08487  -1.07114  -1.06856
 Alpha  occ. eigenvalues --   -1.06804  -1.06770  -1.04535  -1.04304  -1.03696
 Alpha  occ. eigenvalues --   -1.03457  -1.03169  -1.02819  -1.02349  -1.01901
 Alpha  occ. eigenvalues --   -0.91941  -0.91796  -0.89432  -0.89194  -0.89183
 Alpha  occ. eigenvalues --   -0.88978  -0.88199  -0.87898  -0.87806  -0.87626
 Alpha  occ. eigenvalues --   -0.87574  -0.87481  -0.87178  -0.86960  -0.84967
 Alpha  occ. eigenvalues --   -0.84829  -0.83848  -0.83540  -0.82860  -0.82754
 Alpha  occ. eigenvalues --   -0.82617  -0.82463  -0.81595  -0.81410  -0.80564
 Alpha  occ. eigenvalues --   -0.80259  -0.78715  -0.78447  -0.77161  -0.76942
 Alpha  occ. eigenvalues --   -0.76921  -0.76671  -0.75906  -0.75659  -0.74829
 Alpha  occ. eigenvalues --   -0.74555  -0.72709  -0.72477  -0.71626  -0.71385
 Alpha  occ. eigenvalues --   -0.69793  -0.69346  -0.68844  -0.68644  -0.67592
 Alpha  occ. eigenvalues --   -0.67411  -0.67205  -0.67052  -0.65277  -0.65097
 Alpha  occ. eigenvalues --   -0.64823  -0.64586  -0.64554  -0.64450  -0.64188
 Alpha  occ. eigenvalues --   -0.63878  -0.62319  -0.62080  -0.60353  -0.60148
 Alpha  occ. eigenvalues --   -0.59779  -0.59622  -0.58938  -0.58779  -0.58459
 Alpha  occ. eigenvalues --   -0.58212  -0.57603  -0.57379  -0.57246  -0.56999
 Alpha  occ. eigenvalues --   -0.56261  -0.56016  -0.56002  -0.55721  -0.55458
 Alpha  occ. eigenvalues --   -0.55297  -0.55296  -0.54992  -0.54506  -0.54210
 Alpha  occ. eigenvalues --   -0.53894  -0.53752  -0.53233  -0.53184  -0.53037
 Alpha  occ. eigenvalues --   -0.52953  -0.52912  -0.52713  -0.52678  -0.52536
 Alpha  occ. eigenvalues --   -0.52318  -0.51914  -0.51853  -0.51637  -0.51596
 Alpha  occ. eigenvalues --   -0.51508  -0.51156  -0.50961  -0.50452  -0.50322
 Alpha  occ. eigenvalues --   -0.49939  -0.49843  -0.49810  -0.49560  -0.49475
 Alpha  occ. eigenvalues --   -0.49331  -0.49176  -0.49075  -0.49036  -0.48918
 Alpha  occ. eigenvalues --   -0.48584  -0.48408  -0.48388  -0.48364  -0.48203
 Alpha  occ. eigenvalues --   -0.48132  -0.47642  -0.47399  -0.47234  -0.46936
 Alpha  occ. eigenvalues --   -0.46739  -0.46547  -0.46480  -0.46374  -0.46302
 Alpha  occ. eigenvalues --   -0.46115  -0.46041  -0.45862  -0.45810  -0.45621
 Alpha  occ. eigenvalues --   -0.45122  -0.44960  -0.44555  -0.44444  -0.44354
 Alpha  occ. eigenvalues --   -0.44261  -0.44089  -0.44043  -0.43969  -0.43963
 Alpha  occ. eigenvalues --   -0.43793  -0.43777  -0.43491  -0.43345  -0.43336
 Alpha  occ. eigenvalues --   -0.43193  -0.42980  -0.42761  -0.42758  -0.42695
 Alpha  occ. eigenvalues --   -0.42562  -0.42258  -0.41945  -0.41664  -0.41648
 Alpha  occ. eigenvalues --   -0.41511  -0.41466  -0.41225  -0.41096  -0.40833
 Alpha  occ. eigenvalues --   -0.40800  -0.40748  -0.40594  -0.40490  -0.40485
 Alpha  occ. eigenvalues --   -0.40255  -0.40134  -0.40089  -0.39318  -0.38998
 Alpha  occ. eigenvalues --   -0.38395  -0.38062  -0.37764  -0.37490  -0.37246
 Alpha  occ. eigenvalues --   -0.37244  -0.37033  -0.36968  -0.36776  -0.36594
 Alpha  occ. eigenvalues --   -0.36174  -0.35967  -0.34234  -0.34044  -0.33878
 Alpha  occ. eigenvalues --   -0.33709  -0.33137  -0.32967  -0.31249  -0.31156
 Alpha  occ. eigenvalues --   -0.30984  -0.30774  -0.30014  -0.29780  -0.29374
 Alpha  occ. eigenvalues --   -0.29262  -0.29147  -0.29014  -0.24027  -0.23829
 Alpha  occ. eigenvalues --   -0.21064  -0.20909
 Alpha virt. eigenvalues --   -0.08708  -0.08597  -0.01683  -0.01477   0.00013
 Alpha virt. eigenvalues --    0.00126   0.02244   0.02405   0.03014   0.03496
 Alpha virt. eigenvalues --    0.04742   0.04913   0.04988   0.05313   0.06126

 Mulliken charges:
               1
     1  Mg   0.837761
     2  C   -0.004202
     3  C   -0.093841
     4  C   -0.045480
     5  C   -0.063364
     6  N   -0.256815
     7  C   -0.053340
     8  C   -0.013710
     9  C   -0.087030
    10  C    0.046145
    11  C    0.104781
    12  C    0.053009
    13  C   -0.071584
    14  H    0.034489
    15  N   -0.433375
    16  C    0.168967
    17  C   -0.176225
    18  C   -0.003273
    19  C    0.149092
    20  C    0.109870
    21  C    0.013050
    22  O   -0.249770
    23  C    0.061725
    24  N   -0.341117
    25  C    0.041455
    26  C   -0.028210
    27  C   -0.023994
    28  C    0.074752
    29  C    0.076207
    30  C    0.034992
    31  C   -0.004756
    32  N   -0.310425
    33  C    0.080104
    34  C   -0.169675
    35  C    0.008037
    36  C    0.081955
    37  C    0.127378
    38  C    0.045150
    39  O   -0.188918
    40  C   -0.005150
    41  C    0.213646
    42  O   -0.260377
    43  O   -0.304079
    44  C    0.157876
    45  H   -0.017537
    46  H   -0.016658
    47  H   -0.041057
    48  H    0.000845
    49  H   -0.003852
    50  H    0.025423
    51  H    0.016736
    52  H    0.016726
    53  H    0.011422
    54  H    0.041761
    55  H    0.018485
    56  H    0.018784
    57  H    0.005730
    58  H    0.026538
    59  H    0.041881
    60  H    0.036969
    61  H    0.035212
    62  H    0.033976
    63  H    0.016874
    64  H    0.009368
    65  H    0.023202
    66  H    0.012326
    67  H    0.004780
    68  H    0.006358
    69  H    0.005141
    70  H    0.008614
    71  H    0.019940
    72  H    0.028767
    73  H    0.047477
    74  H    0.009779
    75  H    0.045863
    76  H    0.035376
    77  H    0.043546
    78  H    0.046583
    79  H    0.052124
    80  Mg   0.837674
    81  C   -0.017308
    82  C   -0.088225
    83  C   -0.045690
    84  C   -0.064454
    85  N   -0.254627
    86  C   -0.049803
    87  C   -0.015121
    88  C   -0.090403
    89  C    0.045570
    90  C    0.114529
    91  C    0.062596
    92  C   -0.077641
    93  H    0.034418
    94  N   -0.423258
    95  C    0.162633
    96  C   -0.175083
    97  C   -0.008376
    98  C    0.152031
    99  C    0.099488
   100  C    0.015225
   101  O   -0.254948
   102  C    0.061520
   103  N   -0.350288
   104  C    0.037676
   105  C   -0.019095
   106  C   -0.036596
   107  C    0.089375
   108  C    0.074505
   109  C    0.036282
   110  C   -0.012940
   111  N   -0.324276
   112  C    0.078907
   113  C   -0.162158
   114  C    0.001975
   115  C    0.096534
   116  C    0.130884
   117  C    0.042478
   118  O   -0.187975
   119  C    0.000899
   120  C    0.211225
   121  O   -0.251142
   122  O   -0.305664
   123  C    0.152165
   124  H   -0.020384
   125  H   -0.016742
   126  H   -0.037513
   127  H   -0.000934
   128  H   -0.004732
   129  H    0.022250
   130  H    0.014338
   131  H    0.015749
   132  H    0.013950
   133  H    0.037606
   134  H    0.020619
   135  H    0.019408
   136  H    0.008475
   137  H    0.025297
   138  H    0.039302
   139  H    0.038107
   140  H    0.034424
   141  H    0.034318
   142  H    0.013525
   143  H    0.012246
   144  H    0.022997
   145  H    0.010612
   146  H    0.005482
   147  H    0.008419
   148  H    0.011851
   149  H    0.006747
   150  H    0.030124
   151  H    0.026351
   152  H    0.046363
   153  H    0.011626
   154  H    0.046346
   155  H    0.034654
   156  H    0.043682
   157  H    0.049303
   158  H    0.053389
 Sum of Mulliken charges =  -0.00000

 Dipole moment (field-independent basis, Debye):
    X=              0.4446    Y=              6.8018    Z=             -3.1193  Tot=              7.4961
 Quadrupole moment (field-independent basis, Debye-Ang):
   XX=           -444.2770   YY=           -539.9847   ZZ=           -482.5932
   XY=            -23.9427   XZ=            -15.3098   YZ=              0.6737

 Normal termination of Gaussian 16 at Fri Sep 10 10:57:33 2021.
