 Gaussian 16, Revision A.03,
 Gaussian 16:  ES64L-G16RevA.03 25-Dec-2016

 -----------------------------------
 #p cam-b3lyp/Def2SVP td=(nstates=5)
 -----------------------------------

 --------------------------------
 TDDFT excited states in gaussian
 --------------------------------
 Symbolic Z-matrix:
 Charge =  0 Multiplicity = 1

                         Standard orientation:
 ---------------------------------------------------------------------
 Center     Atomic      Atomic             Coordinates (Angstroms)
 Number     Number       Type             X           Y           Z
 ---------------------------------------------------------------------
      1         12           0        7.851292   -0.647808   -0.429678
      2          6           0        8.070658    2.749805    0.675002
      3          6           0        8.879797   -1.572211    2.689732
      4          6           0        8.103073   -3.618186   -1.511381
      5          6           0        7.950792    0.562741   -3.696226
      6          7           0        8.375654    0.531519    1.368898
      7          6           0        8.360623    1.823947    1.679666
      8          6           0        8.608200    2.098360    3.193198
      9          6           0        9.392435    0.761329    3.566452
     10          6           0        8.823720   -0.159301    2.501122
     11          6           0       10.901563    0.865414    3.371001
     12          6           0        7.272692    2.223668    4.000939
     13          6           0        7.413033    2.810411    5.408558
     14          1           0        6.351149    3.663242    5.920835
     15          7           0        7.933106   -2.363866    0.545669
     16          6           0        8.363037   -2.553502    1.816292
     17          6           0        8.229845   -4.002495    2.079656
     18          6           0        7.866877   -4.666627    0.796972
     19          6           0        7.980286   -3.565440   -0.124930
     20          6           0        8.392873   -4.610112    3.439058
     21          6           0        7.489508   -6.073205    0.454537
     22          8           0        7.438852   -6.488960   -0.753418
     23          6           0        7.263799   -6.987464    1.588657
     24          7           0        8.226075   -1.442517   -2.323249
     25          6           0        8.224443   -2.764021   -2.529672
     26          6           0        8.232128   -3.087893   -3.994249
     27          6           0        7.993137   -1.704056   -4.754269
     28          6           0        7.969987   -0.761162   -3.525984
     29          6           0        9.511197   -3.748403   -4.526904
     30          6           0        6.809178   -1.645008   -5.751854
     31          6           0        5.500385   -1.754296   -5.002045
     32          7           0        7.808082    1.303525   -1.379140
     33          6           0        7.883119    1.574520   -2.753041
     34          6           0        7.925854    3.040781   -2.902438
     35          6           0        7.889191    3.523636   -1.595781
     36          6           0        7.853956    2.427876   -0.686737
     37          6           0        8.047972    3.750203   -4.129728
     38          6           0        7.896450    4.709941   -0.755255
     39          8           0        7.825268    5.921735   -0.964971
     40          6           0        8.137210    4.254876    0.751655
     41          6           0        7.121211    4.960967    1.607511
     42          8           0        5.905290    4.699817    1.504057
     43          8           0        7.752880    5.651356    2.569228
     44          6           0        6.800788    6.351954    3.471911
     45          1           0        9.418648   -1.968557    3.552570
     46          1           0        8.081749   -4.625410   -1.932668
     47          1           0        7.897023    1.014756   -4.688317
     48          1           0        9.233182    2.966981    3.401329
     49          1           0        9.129314    0.399108    4.560075
     50          1           0       11.176626    1.800819    2.883888
     51          1           0       11.173194    0.015658    2.744403
     52          1           0       11.425473    0.720376    4.316125
     53          1           0        6.908901    1.227029    4.250794
     54          1           0        6.536119    2.801298    3.441359
     55          1           0        8.384739    3.285193    5.547409
     56          1           0        7.408923    1.987609    6.123527
     57          1           0        8.819460   -3.900148    4.146533
     58          1           0        9.147291   -5.391557    3.350140
     59          1           0        7.462140   -5.038341    3.811463
     60          1           0        8.169448   -7.041416    2.193172
     61          1           0        6.916056   -7.924407    1.154995
     62          1           0        6.490221   -6.567491    2.232200
     63          1           0        7.427631   -3.777526   -4.246473
     64          1           0        8.857640   -1.409942   -5.349925
     65          1           0        9.338000   -4.707976   -5.014683
     66          1           0       10.208066   -3.852363   -3.695727
     67          1           0       10.088491   -3.135120   -5.218303
     68          1           0        6.853790   -2.485647   -6.443433
     69          1           0        6.790042   -0.729581   -6.343359
     70          1           0        5.379862   -2.829923   -4.878217
     71          1           0        4.686294   -1.335902   -5.594847
     72          1           0        5.574706   -1.317908   -4.005788
     73          1           0        7.342968    4.579567   -4.074098
     74          1           0        7.835082    3.105855   -4.982428
     75          1           0        9.094320    4.051928   -4.085306
     76          1           0        9.157092    4.541299    1.006457
     77          1           0        7.070406    7.408125    3.465429
     78          1           0        6.835381    5.826769    4.426578
     79          1           0        5.764862    6.401941    3.134721
     80         12           0       -8.013562   -0.801390    0.303613
     81          6           0       -7.910531    2.435508   -1.242658
     82          6           0       -7.018088    0.712451    3.193578
     83          6           0       -7.658888   -3.686336    1.575887
     84          6           0       -7.878880   -2.179942   -2.894380
     85          7           0       -7.556177    1.307835    0.787573
     86          6           0       -7.611511    2.459422    0.135546
     87          6           0       -7.409425    3.713819    1.027298
     88          6           0       -6.587083    3.028082    2.224124
     89          6           0       -7.107118    1.598288    2.090194
     90          6           0       -5.085385    3.013876    1.991671
     91          6           0       -8.768570    4.312573    1.533508
     92          6           0       -8.666043    5.709484    2.149843
     93          1           0       -9.767768    6.644949    1.941037
     94          7           0       -7.904611   -1.362293    2.204159
     95          6           0       -7.500863   -0.613389    3.251740
     96          6           0       -7.582879   -1.491364    4.429285
     97          6           0       -7.910466   -2.867338    3.966575
     98          6           0       -7.814779   -2.692516    2.531177
     99          6           0       -7.437674   -0.983682    5.834490
    100          6           0       -8.240995   -4.134326    4.695733
    101          8           0       -8.257844   -5.269171    4.100192
    102          6           0       -8.452711   -4.019895    6.146108
    103          7           0       -7.586859   -2.662431   -0.519052
    104          6           0       -7.540808   -3.764239    0.250255
    105          6           0       -7.492473   -5.016346   -0.592526
    106          6           0       -7.760771   -4.534458   -2.093651
    107          6           0       -7.832329   -3.009306   -1.860860
    108          6           0       -6.184333   -5.805098   -0.537630
    109          6           0       -8.927120   -5.221407   -2.855484
    110          6           0      -10.248670   -4.840646   -2.227846
    111          7           0       -8.098440   -0.048196   -1.719638
    112          6           0       -7.997881   -0.796160   -2.913169
    113          6           0       -7.994600    0.168167   -4.032325
    114          6           0       -8.070891    1.421408   -3.406188
    115          6           0       -8.098008    1.251157   -1.995598
    116          6           0       -7.879299   -0.159760   -5.412641
    117          6           0       -8.123945    2.850142   -3.617435
    118          8           0       -8.218497    3.579520   -4.603738
    119          6           0       -7.894910    3.576127   -2.222131
    120          6           0       -8.946950    4.640980   -2.074369
    121          8           0      -10.147850    4.333520   -1.974839
    122          8           0       -8.347283    5.825722   -1.857239
    123          6           0       -9.349935    6.911818   -1.693200
    124          1           0       -6.491391    1.048222    4.087299
    125          1           0       -7.643084   -4.709576    1.958260
    126          1           0       -7.938203   -2.534898   -3.925471
    127          1           0       -6.819939    4.502392    0.575182
    128          1           0       -6.867544    3.447200    3.186958
    129          1           0       -4.827479    3.362453    1.002673
    130          1           0       -4.777190    1.984818    2.122451
    131          1           0       -4.577180    3.582631    2.775621
    132          1           0       -9.105592    3.744666    2.410224
    133          1           0       -9.499065    4.316890    0.748025
    134          1           0       -7.706100    6.189883    1.924751
    135          1           0       -8.667139    5.609618    3.237977
    136          1           0       -7.038472    0.037921    5.853862
    137          1           0       -6.660288   -1.588202    6.314155
    138          1           0       -8.360520   -1.072022    6.411729
    139          1           0       -7.559711   -3.607832    6.610016
    140          1           0       -8.765869   -5.012701    6.474947
    141          1           0       -9.260717   -3.302025    6.326147
    142          1           0       -8.272458   -5.709019   -0.301094
    143          1           0       -6.889474   -4.713021   -2.740796
    144          1           0       -6.321503   -6.856420   -0.221427
    145          1           0       -5.504598   -5.292751    0.130194
    146          1           0       -5.619904   -5.828730   -1.468257
    147          1           0       -8.845728   -6.307985   -2.772471
    148          1           0       -8.953661   -4.980310   -3.912917
    149          1           0      -10.334874   -5.539891   -1.390771
    150          1           0      -11.062332   -4.973000   -2.938109
    151          1           0      -10.208305   -3.828423   -1.808992
    152          1           0       -8.601514    0.450100   -5.938919
    153          1           0       -8.052153   -1.220007   -5.585191
    154          1           0       -6.838337    0.121200   -5.593566
    155          1           0       -6.887645    3.994346   -2.231884
    156          1           0       -9.107345    7.684438   -2.429328
    157          1           0       -9.305428    7.200850   -0.626323
    158          1           0      -10.378125    6.688080   -1.952448
 ---------------------------------------------------------------------

 SCF Done:  E(RCAM-B3LYP) =  -4069.81179969     A.U. after   19 cycles

 Excitation energies and oscillator strengths:

 Excited State   1:      Singlet-A      1.6717 eV  741.68 nm  f=0.1177  <S**2>=0.000
     310 -> 316        0.14346
     311 -> 313       -0.38080
     312 -> 314        0.57092
 This state for optimization and/or second-order correction.
 Total Energy, E(TD-HF/TD-DFT) =  -4069.75036687
 Copying the excited state density for this state as the 1-particle RhoCI density.

 Excited State   2:      Singlet-A      1.6832 eV  736.60 nm  f=0.6362  <S**2>=0.000
     309 -> 315        0.14687
     311 -> 313        0.57024
     312 -> 314        0.38040

 Excited State   3:      Singlet-A      2.1853 eV  567.37 nm  f=0.0760  <S**2>=0.000
     309 -> 313       -0.10927
     310 -> 314        0.63339
     312 -> 316       -0.26836

 Excited State   4:      Singlet-A      2.1930 eV  565.36 nm  f=0.1199  <S**2>=0.000
     309 -> 313        0.63138
     310 -> 314        0.10842
     311 -> 315       -0.27454

 Excited State   5:      Singlet-A      2.7638 eV  448.60 nm  f=0.0000  <S**2>=0.000
     312 -> 313        0.70710

 The electronic state is 1-A.
 Alpha  occ. eigenvalues --  -46.87838 -46.87585 -19.26359 -19.26254 -19.19093
 Alpha  occ. eigenvalues --  -19.19072 -19.18849 -19.18664 -19.18213 -19.17970
 Alpha  occ. eigenvalues --  -14.42493 -14.42418 -14.41488 -14.41286 -14.39443
 Alpha  occ. eigenvalues --  -14.39280 -14.38627 -14.38524 -10.39150 -10.39001
 Alpha  occ. eigenvalues --  -10.35482 -10.35343 -10.34435 -10.34145 -10.31766
 Alpha  occ. eigenvalues --  -10.31660 -10.31450 -10.31223 -10.30956 -10.30943
 Alpha  occ. eigenvalues --  -10.30611 -10.30546 -10.30326 -10.30284 -10.30242
 Alpha  occ. eigenvalues --  -10.30074 -10.29957 -10.29823 -10.29669 -10.29368
 Alpha  occ. eigenvalues --  -10.29332 -10.29292 -10.28809 -10.28628 -10.28619
 Alpha  occ. eigenvalues --  -10.28562 -10.28407 -10.28329 -10.28170 -10.28033
 Alpha  occ. eigenvalues --  -10.27929 -10.27831 -10.27769 -10.27623 -10.27590
 Alpha  occ. eigenvalues --  -10.27527 -10.27521 -10.27477 -10.27457 -10.27448
 Alpha  occ. eigenvalues --  -10.27415 -10.27405 -10.27399 -10.27315 -10.27210
 Alpha  occ. eigenvalues --  -10.26959 -10.26782 -10.26603 -10.26440 -10.26382
 Alpha  occ. eigenvalues --  -10.26282 -10.26203 -10.26086 -10.26055 -10.25882
 Alpha  occ. eigenvalues --  -10.25868 -10.25863 -10.25780 -10.25459 -10.25339
 Alpha  occ. eigenvalues --  -10.24872 -10.24826 -10.24798 -10.24707 -10.24682
 Alpha  occ. eigenvalues --  -10.24619  -3.16581  -3.16335  -1.91462  -1.91217
 Alpha  occ. eigenvalues --   -1.91049  -1.90891  -1.90806  -1.90643  -1.16707
 Alpha  occ. eigenvalues --   -1.16549  -1.08673  -1.08575  -1.07249  -1.06918
 Alpha  occ. eigenvalues --   -1.06856  -1.06714  -1.04625  -1.04415  -1.03800
 Alpha  occ. eigenvalues --   -1.03588  -1.03273  -1.02966  -1.02451  -1.02037
 Alpha  occ. eigenvalues --   -0.92017  -0.91907  -0.89553  -0.89427  -0.89243
 Alpha  occ. eigenvalues --   -0.89052  -0.88319  -0.88155  -0.87906  -0.87720
 Alpha  occ. eigenvalues --   -0.87718  -0.87606  -0.87311  -0.87062  -0.85035
 Alpha  occ. eigenvalues --   -0.84912  -0.83968  -0.83813  -0.83001  -0.82879
 Alpha  occ. eigenvalues --   -0.82698  -0.82572  -0.81642  -0.81513  -0.80644
 Alpha  occ. eigenvalues --   -0.80365  -0.78835  -0.78570  -0.77261  -0.77066
 Alpha  occ. eigenvalues --   -0.76987  -0.76814  -0.75975  -0.75748  -0.74934
 Alpha  occ. eigenvalues --   -0.74733  -0.72813  -0.72625  -0.71714  -0.71499
 Alpha  occ. eigenvalues --   -0.69935  -0.69697  -0.68923  -0.68744  -0.67683
 Alpha  occ. eigenvalues --   -0.67529  -0.67276  -0.67124  -0.65340  -0.65183
 Alpha  occ. eigenvalues --   -0.64899  -0.64694  -0.64668  -0.64572  -0.64304
 Alpha  occ. eigenvalues --   -0.64136  -0.62355  -0.62195  -0.60478  -0.60277
 Alpha  occ. eigenvalues --   -0.59854  -0.59706  -0.59029  -0.58917  -0.58546
 Alpha  occ. eigenvalues --   -0.58350  -0.57637  -0.57469  -0.57348  -0.57168
 Alpha  occ. eigenvalues --   -0.56351  -0.56131  -0.56042  -0.55802  -0.55561
 Alpha  occ. eigenvalues --   -0.55381  -0.55380  -0.55176  -0.54571  -0.54413
 Alpha  occ. eigenvalues --   -0.53951  -0.53817  -0.53338  -0.53270  -0.53159
 Alpha  occ. eigenvalues --   -0.53064  -0.52965  -0.52822  -0.52799  -0.52603
 Alpha  occ. eigenvalues --   -0.52466  -0.52343  -0.51948  -0.51812  -0.51670
 Alpha  occ. eigenvalues --   -0.51578  -0.51240  -0.51124  -0.50608  -0.50422
 Alpha  occ. eigenvalues --   -0.50064  -0.49958  -0.49903  -0.49803  -0.49561
 Alpha  occ. eigenvalues --   -0.49415  -0.49259  -0.49146  -0.49123  -0.49012
 Alpha  occ. eigenvalues --   -0.48642  -0.48496  -0.48487  -0.48473  -0.48310
 Alpha  occ. eigenvalues --   -0.48276  -0.47739  -0.47519  -0.47338  -0.47050
 Alpha  occ. eigenvalues --   -0.46838  -0.46634  -0.46611  -0.46466  -0.46399
 Alpha  occ. eigenvalues --   -0.46203  -0.46201  -0.46012  -0.45869  -0.45740
 Alpha  occ. eigenvalues --   -0.45235  -0.45141  -0.44623  -0.44549  -0.44435
 Alpha  occ. eigenvalues --   -0.44394  -0.44183  -0.44138  -0.44064  -0.44042
 Alpha  occ. eigenvalues --   -0.44013  -0.43869  -0.43547  -0.43471  -0.43431
 Alpha  occ. eigenvalues --   -0.43304  -0.43069  -0.42848  -0.42819  -0.42759
 Alpha  occ. eigenvalues --   -0.42693  -0.42490  -0.42050  -0.41892  -0.41747
 Alpha  occ. eigenvalues --   -0.41589  -0.41587  -0.41377  -0.41184  -0.40917
 Alpha  occ. eigenvalues --   -0.40905  -0.40864  -0.40658  -0.40620  -0.40607
 Alpha  occ. eigenvalues --   -0.40422  -0.40300  -0.40142  -0.39468  -0.39366
 Alpha  occ. eigenvalues --   -0.38505  -0.38281  -0.37811  -0.37569  -0.37357
 Alpha  occ. eigenvalues --   -0.37317  -0.37195  -0.37116  -0.36773  -0.36686
 Alpha  occ. eigenvalues --   -0.36241  -0.36141  -0.34327  -0.34177  -0.33837
 Alpha  occ. eigenvalues --   -0.33776  -0.33229  -0.33101  -0.31379  -0.31222
 Alpha  occ. eigenvalues --   -0.31077  -0.30897  -0.30074  -0.29873  -0.29488
 Alpha  occ. eigenvalues --   -0.29361  -0.29260  -0.29138  -0.24122  -0.23960
 Alpha  occ. eigenvalues --   -0.21167  -0.21043
 Alpha virt. eigenvalues --   -0.08814  -0.08720  -0.01789  -0.01612  -0.00098
 Alpha virt. eigenvalues --    0.00038   0.02160   0.02283   0.03076   0.03294
 Alpha virt. eigenvalues --    0.04667   0.04814   0.05031   0.05254   0.06106

 Mulliken charges:
               1
     1  Mg   0.838645
     2  C   -0.003134
     3  C   -0.094239
     4  C   -0.045806
     5  C   -0.063823
     6  N   -0.256766
     7  C   -0.052540
     8  C   -0.013998
     9  C   -0.086972
    10  C    0.046236
    11  C    0.104793
    12  C    0.053512
    13  C   -0.071563
    14  H    0.035396
    15  N   -0.433145
    16  C    0.168379
    17  C   -0.177182
    18  C   -0.003960
    19  C    0.148690
    20  C    0.110172
    21  C    0.012300
    22  O   -0.249533
    23  C    0.062474
    24  N   -0.341139
    25  C    0.041250
    26  C   -0.028181
    27  C   -0.024013
    28  C    0.074806
    29  C    0.076138
    30  C    0.035090
    31  C   -0.004541
    32  N   -0.310487
    33  C    0.080379
    34  C   -0.169567
    35  C    0.008363
    36  C    0.082947
    37  C    0.127289
    38  C    0.046109
    39  O   -0.188424
    40  C   -0.005342
    41  C    0.212898
    42  O   -0.257405
    43  O   -0.304670
    44  C    0.157816
    45  H   -0.017609
    46  H   -0.016737
    47  H   -0.041273
    48  H    0.000943
    49  H   -0.004170
    50  H    0.025516
    51  H    0.016573
    52  H    0.016661
    53  H    0.011080
    54  H    0.043868
    55  H    0.018064
    56  H    0.017913
    57  H    0.005790
    58  H    0.026927
    59  H    0.039510
    60  H    0.037376
    61  H    0.035785
    62  H    0.031467
    63  H    0.016591
    64  H    0.009577
    65  H    0.023293
    66  H    0.012540
    67  H    0.004858
    68  H    0.006475
    69  H    0.004934
    70  H    0.008714
    71  H    0.018384
    72  H    0.028822
    73  H    0.047693
    74  H    0.009322
    75  H    0.046072
    76  H    0.035212
    77  H    0.043020
    78  H    0.046260
    79  H    0.053294
    80  Mg   0.837962
    81  C   -0.016771
    82  C   -0.087726
    83  C   -0.045644
    84  C   -0.064904
    85  N   -0.254615
    86  C   -0.049536
    87  C   -0.015172
    88  C   -0.090549
    89  C    0.045833
    90  C    0.114336
    91  C    0.062520
    92  C   -0.077858
    93  H    0.034647
    94  N   -0.423487
    95  C    0.162890
    96  C   -0.174708
    97  C   -0.008022
    98  C    0.152142
    99  C    0.099444
   100  C    0.015405
   101  O   -0.253415
   102  C    0.061263
   103  N   -0.350058
   104  C    0.037559
   105  C   -0.019823
   106  C   -0.034826
   107  C    0.088999
   108  C    0.073673
   109  C    0.034767
   110  C   -0.007641
   111  N   -0.324145
   112  C    0.078564
   113  C   -0.163121
   114  C    0.002393
   115  C    0.096201
   116  C    0.131455
   117  C    0.042479
   118  O   -0.187713
   119  C    0.000908
   120  C    0.211202
   121  O   -0.251240
   122  O   -0.305370
   123  C    0.152097
   124  H   -0.019627
   125  H   -0.015815
   126  H   -0.040559
   127  H   -0.000112
   128  H   -0.004525
   129  H    0.023276
   130  H    0.014471
   131  H    0.016699
   132  H    0.013697
   133  H    0.037544
   134  H    0.021232
   135  H    0.019435
   136  H    0.008785
   137  H    0.025791
   138  H    0.039557
   139  H    0.038038
   140  H    0.036107
   141  H    0.033874
   142  H    0.014212
   143  H    0.012483
   144  H    0.024891
   145  H    0.011693
   146  H    0.005793
   147  H    0.006131
   148  H    0.003605
   149  H    0.010827
   150  H    0.017800
   151  H    0.030178
   152  H    0.045921
   153  H    0.008351
   154  H    0.047188
   155  H    0.035740
   156  H    0.044046
   157  H    0.049524
   158  H    0.053357
 Sum of Mulliken charges =  -0.00000

 Dipole moment (field-independent basis, Debye):
    X=              4.4030    Y=             -2.1901    Z=              6.8735  Tot=              8.4515
 Quadrupole moment (field-independent basis, Debye-Ang):
   XX=           -517.6408   YY=           -537.3135   ZZ=           -461.9431
   XY=            -17.4608   XZ=             -4.4733   YZ=             35.5075

 Normal termination of Gaussian 16 at Sat Sep  4 15:48:36 2021.
