 Gaussian 16, Revision A.03,
 Gaussian 16:  ES64L-G16RevA.03 25-Dec-2016

 -----------------------------------
 #p cam-b3lyp/Def2SVP td=(nstates=5)
 -----------------------------------

 --------------------------------
 TDDFT excited states in gaussian
 --------------------------------
 Symbolic Z-matrix:
 Charge =  0 Multiplicity = 1

                         Standard orientation:
 ---------------------------------------------------------------------
 Center     Atomic      Atomic             Coordinates (Angstroms)
 Number     Number       Type             X           Y           Z
 ---------------------------------------------------------------------
      1         12           0       -3.559585    0.929716    0.176794
      2          6           0       -4.074956   -2.165777    1.898574
      3          6           0       -4.094633    2.504522    3.156185
      4          6           0       -3.559491    3.680475   -1.401163
      5          6           0       -4.188971   -0.786069   -2.790632
      6          7           0       -4.015860    0.158100    2.200915
      7          6           0       -4.127581   -1.052035    2.739677
      8          6           0       -4.230391   -1.029176    4.294116
      9          6           0       -4.791537    0.450587    4.487545
     10          6           0       -4.239020    1.086940    3.224333
     11          6           0       -6.314173    0.534014    4.454039
     12          6           0       -2.836619   -1.208187    4.984830
     13          6           0       -2.885359   -1.523186    6.482747
     14          1           0       -1.886985   -2.421846    7.042217
     15          7           0       -3.311123    2.779016    0.825797
     16          6           0       -3.563405    3.239818    2.074517
     17          6           0       -3.219327    4.677848    2.055547
     18          6           0       -2.927013    5.057204    0.645322
     19          6           0       -3.284263    3.844643   -0.045654
     20          6           0       -3.145760    5.522646    3.290316
     21          6           0       -2.417996    6.316684    0.018629
     22          8           0       -2.455960    6.511496   -1.244376
     23          6           0       -1.948993    7.366473    0.941136
     24          7           0       -4.048598    1.440075   -1.787395
     25          6           0       -3.904694    2.693717   -2.230855
     26          6           0       -4.041476    2.764166   -3.722923
     27          6           0       -4.068299    1.252370   -4.236252
     28          6           0       -4.021575    0.536307   -2.863904
     29          6           0       -5.280388    3.503209   -4.247255
     30          6           0       -3.025002    0.856027   -5.310897
     31          6           0       -1.634760    0.899880   -4.717261
     32          7           0       -3.872677   -1.139076   -0.400369
     33          6           0       -4.140131   -1.623709   -1.688884
     34          6           0       -4.384034   -3.072455   -1.563523
     35          6           0       -4.257027   -3.328689   -0.199683
     36          6           0       -3.978973   -2.112302    0.486888
     37          6           0       -4.736017   -3.953136   -2.624156
     38          6           0       -4.315883   -4.342973    0.840327
     39          8           0       -4.422536   -5.570177    0.849711
     40          6           0       -4.320974   -3.610888    2.254488
     41          6           0       -3.309478   -4.302016    3.127716
     42          8           0       -2.090650   -4.240271    2.866926
     43          8           0       -3.907080   -4.722208    4.253262
     44          6           0       -2.952423   -5.390877    5.177202
     45          1           0       -4.475545    3.113984    3.978014
     46          1           0       -3.460657    4.588657   -1.999389
     47          1           0       -4.307987   -1.401554   -3.684202
     48          1           0       -4.931275   -1.750949    4.713912
     49          1           0       -4.371426    0.933032    5.369858
     50          1           0       -6.759381   -0.420387    4.173276
     51          1           0       -6.547605    1.296379    3.710532
     52          1           0       -6.702430    0.910113    5.400919
     53          1           0       -2.323821   -0.246809    5.014004
     54          1           0       -2.248518   -1.971924    4.474762
     55          1           0       -3.886343   -1.822538    6.794721
     56          1           0       -2.694830   -0.601132    7.032034
     57          1           0       -3.573270    5.010981    4.151698
     58          1           0       -3.801056    6.378567    3.130014
     59          1           0       -2.131671    5.868556    3.491069
     60          1           0       -2.764342    7.651529    1.606342
     61          1           0       -1.538834    8.156928    0.313601
     62          1           0       -1.164984    6.953600    1.576600
     63          1           0       -3.191361    3.278077   -4.169718
     64          1           0       -5.026168    0.990109   -4.686117
     65          1           0       -5.045633    4.331817   -4.915839
     66          1           0       -5.857444    3.845040   -3.388506
     67          1           0       -6.006550    2.872155   -4.758993
     68          1           0       -3.043454    1.565799   -6.137232
     69          1           0       -3.189953   -0.138924   -5.724557
     70          1           0       -1.366328    1.952182   -4.803495
     71          1           0       -0.954108    0.274637   -5.296050
     72          1           0       -1.647275    0.652737   -3.655541
     73          1           0       -4.139297   -4.854252   -2.483145
     74          1           0       -4.544157   -3.499050   -3.596061
     75          1           0       -5.799729   -4.088856   -2.429342
     76          1           0       -5.332273   -3.700101    2.650011
     77          1           0       -3.351685   -6.382940    5.388467
     78          1           0       -2.809652   -4.713109    6.019017
     79          1           0       -1.977200   -5.645882    4.760969
     80         12           0        4.295778   -0.072474   -0.206225
     81          6           0        1.752486   -1.750722   -2.102066
     82          6           0        2.879544    2.869659   -1.192468
     83          6           0        6.774714    1.436181    1.076824
     84          6           0        6.136580   -3.029544   -0.319949
     85          7           0        2.544554    0.372301   -1.482017
     86          6           0        1.617838   -0.346698   -2.097326
     87          6           0        0.439523    0.482023   -2.675554
     88          6           0        1.190843    1.892871   -2.830127
     89          6           0        2.252713    1.724448   -1.745334
     90          6           0        1.895225    2.056347   -4.166714
     91          6           0       -0.767965    0.580478   -1.678419
     92          6           0       -2.066816    1.108631   -2.291465
     93          1           0       -3.334196    0.561806   -1.814804
     94          7           0        4.503470    1.824850    0.337460
     95          6           0        3.831806    2.889141   -0.149804
     96          6           0        4.364477    4.061286    0.561885
     97          6           0        5.520173    3.621907    1.390152
     98          6           0        5.660343    2.251225    0.941083
     99          6           0        3.730868    5.419735    0.480761
    100          6           0        6.368049    4.323559    2.407502
    101          8           0        7.468738    3.820167    2.829295
    102          6           0        5.919322    5.659665    2.825777
    103          7           0        6.270555   -0.632574    0.123720
    104          6           0        7.128569    0.193799    0.747302
    105          6           0        8.404762   -0.523382    1.117943
    106          6           0        8.127374   -2.071462    0.827918
    107          6           0        6.707420   -1.966357    0.229556
    108          6           0        9.659096   -0.081493    0.364445
    109          6           0        8.363388   -3.060730    2.001938
    110          6           0        7.343429   -2.821107    3.091725
    111          7           0        3.950221   -2.094616   -0.884155
    112          6           0        4.865361   -3.169836   -0.861907
    113          6           0        4.211948   -4.311671   -1.533981
    114          6           0        2.960851   -3.810613   -1.924096
    115          6           0        2.850751   -2.446488   -1.541289
    116          6           0        4.795207   -5.590949   -1.756163
    117          6           0        1.712443   -4.122427   -2.582083
    118          8           0        1.200831   -5.145842   -3.034424
    119          6           0        0.923971   -2.766381   -2.838697
    120          6           0       -0.499114   -2.965238   -2.393977
    121          8           0       -0.765411   -3.158141   -1.194602
    122          8           0       -1.324582   -2.679904   -3.417479
    123          6           0       -2.747918   -2.851756   -3.022014
    124          1           0        2.653420    3.844622   -1.625145
    125          1           0        7.618434    1.876561    1.613193
    126          1           0        6.606440   -4.015331   -0.309348
    127          1           0        0.077824    0.145771   -3.639864
    128          1           0        0.529054    2.721123   -2.590567
    129          1           0        1.873391    1.146271   -4.747594
    130          1           0        2.915189    2.329835   -3.930198
    131          1           0        1.474538    2.905313   -4.713170
    132          1           0       -0.566779    1.376464   -0.949938
    133          1           0       -0.949832   -0.365097   -1.205735
    134          1           0       -2.035650    1.107000   -3.387806
    135          1           0       -2.170960    2.163942   -2.027859
    136          1           0        2.997593    5.473604   -0.333368
    137          1           0        4.517437    6.122283    0.184787
    138          1           0        3.307173    5.744461    1.433490
    139          1           0        5.860344    6.309539    1.955922
    140          1           0        6.603018    5.961730    3.621505
    141          1           0        4.902953    5.577706    3.226893
    142          1           0        8.627477   -0.397432    2.170386
    143          1           0        8.776955   -2.459179    0.029454
    144          1           0       10.472999    0.257570    1.032787
    145          1           0        9.383085    0.703423   -0.327116
    146          1           0       10.088742   -0.831764   -0.297138
    147          1           0        9.344310   -2.887864    2.451467
    148          1           0        8.325334   -4.102893    1.702884
    149          1           0        7.776390   -1.990087    3.656547
    150          1           0        7.233049   -3.706540    3.714508
    151          1           0        6.392462   -2.473890    2.671290
    152          1           0        4.036045   -6.324585   -1.519575
    153          1           0        5.687745   -5.731660   -1.150073
    154          1           0        5.029950   -5.515946   -2.821308
    155          1           0        0.992631   -2.544120   -3.904277
    156          1           0       -3.195759   -3.550061   -3.735801
    157          1           0       -3.172250   -1.830920   -2.982169
    158          1           0       -2.950060   -3.351591   -2.081932
 ---------------------------------------------------------------------

 SCF Done:  E(RCAM-B3LYP) =  -4069.13613483     A.U. after   22 cycles

 Excitation energies and oscillator strengths:

 Excited State   1:      Singlet-A      0.4358 eV 2844.71 nm  f=0.0231  <S**2>=0.000
     312 -> 313        0.69587
     312 <- 313       -0.12613
 This state for optimization and/or second-order correction.
 Total Energy, E(TD-HF/TD-DFT) =  -4069.12011797
 Copying the excited state density for this state as the 1-particle RhoCI density.

 Excited State   2:      Singlet-A      1.6076 eV  771.24 nm  f=0.0849  <S**2>=0.000
     309 -> 316        0.11381
     310 -> 313        0.26913
     311 -> 313       -0.16392
     311 -> 314        0.46077
     312 -> 314       -0.40147

 Excited State   3:      Singlet-A      1.6444 eV  753.97 nm  f=0.0901  <S**2>=0.000
     310 -> 313        0.42742
     311 -> 313       -0.22731
     312 -> 314        0.43499
     312 -> 315       -0.23086

 Excited State   4:      Singlet-A      1.7198 eV  720.93 nm  f=0.2762  <S**2>=0.000
     309 -> 316        0.11625
     310 -> 313       -0.22705
     311 -> 313        0.10473
     311 -> 314        0.50464
     312 -> 314        0.37894
     312 -> 315        0.12199

 Excited State   5:      Singlet-A      1.9091 eV  649.45 nm  f=0.0058  <S**2>=0.000
     310 -> 313        0.24298
     311 -> 313        0.63617
     312 -> 315       -0.14279

 The electronic state is 1-A.
 Alpha  occ. eigenvalues --  -46.89694 -46.86991 -19.25928 -19.24378 -19.19424
 Alpha  occ. eigenvalues --  -19.18560 -19.18230 -19.17998 -19.17824 -19.17336
 Alpha  occ. eigenvalues --  -14.43836 -14.43011 -14.41705 -14.40728 -14.40313
 Alpha  occ. eigenvalues --  -14.39791 -14.38712 -14.37934 -10.38725 -10.37789
 Alpha  occ. eigenvalues --  -10.36044 -10.34924 -10.34626 -10.34176 -10.33473
 Alpha  occ. eigenvalues --  -10.31672 -10.31508 -10.31458 -10.31335 -10.31204
 Alpha  occ. eigenvalues --  -10.30710 -10.30556 -10.30551 -10.30396 -10.30221
 Alpha  occ. eigenvalues --  -10.30082 -10.29732 -10.29648 -10.29609 -10.29254
 Alpha  occ. eigenvalues --  -10.29253 -10.28885 -10.28735 -10.28641 -10.28355
 Alpha  occ. eigenvalues --  -10.28294 -10.28231 -10.28221 -10.28206 -10.28160
 Alpha  occ. eigenvalues --  -10.28071 -10.27989 -10.27946 -10.27750 -10.27409
 Alpha  occ. eigenvalues --  -10.27367 -10.27306 -10.27087 -10.27053 -10.27014
 Alpha  occ. eigenvalues --  -10.27005 -10.26983 -10.26894 -10.26837 -10.26733
 Alpha  occ. eigenvalues --  -10.26650 -10.26496 -10.26476 -10.26371 -10.26159
 Alpha  occ. eigenvalues --  -10.26116 -10.26097 -10.25814 -10.25729 -10.25485
 Alpha  occ. eigenvalues --  -10.25480 -10.25341 -10.25308 -10.25155 -10.24979
 Alpha  occ. eigenvalues --  -10.24916 -10.24565 -10.24329 -10.24244 -10.24057
 Alpha  occ. eigenvalues --  -10.19726  -3.18390  -3.15742  -1.93197  -1.92964
 Alpha  occ. eigenvalues --   -1.92685  -1.90625  -1.90212  -1.90051  -1.16269
 Alpha  occ. eigenvalues --   -1.15004  -1.12421  -1.08307  -1.07888  -1.07836
 Alpha  occ. eigenvalues --   -1.06496  -1.06195  -1.05665  -1.04905  -1.04311
 Alpha  occ. eigenvalues --   -1.03756  -1.03623  -1.02980  -1.02415  -1.01470
 Alpha  occ. eigenvalues --   -0.95315  -0.94539  -0.92541  -0.91268  -0.91061
 Alpha  occ. eigenvalues --   -0.90047  -0.89327  -0.88912  -0.88601  -0.87999
 Alpha  occ. eigenvalues --   -0.87875  -0.87626  -0.87172  -0.86624  -0.86567
 Alpha  occ. eigenvalues --   -0.85832  -0.84933  -0.83918  -0.83337  -0.83217
 Alpha  occ. eigenvalues --   -0.82510  -0.82337  -0.82326  -0.81445  -0.80750
 Alpha  occ. eigenvalues --   -0.80129  -0.79597  -0.79284  -0.78262  -0.78050
 Alpha  occ. eigenvalues --   -0.77568  -0.77097  -0.76308  -0.76178  -0.75451
 Alpha  occ. eigenvalues --   -0.74827  -0.74305  -0.73724  -0.72992  -0.72096
 Alpha  occ. eigenvalues --   -0.70982  -0.70704  -0.69557  -0.69290  -0.69192
 Alpha  occ. eigenvalues --   -0.68438  -0.67573  -0.67268  -0.67031  -0.65984
 Alpha  occ. eigenvalues --   -0.65909  -0.65173  -0.64696  -0.64234  -0.64158
 Alpha  occ. eigenvalues --   -0.63652  -0.62675  -0.62036  -0.61998  -0.60993
 Alpha  occ. eigenvalues --   -0.60761  -0.60400  -0.59991  -0.59783  -0.59516
 Alpha  occ. eigenvalues --   -0.58995  -0.58527  -0.58150  -0.57677  -0.57523
 Alpha  occ. eigenvalues --   -0.57240  -0.56754  -0.56671  -0.56389  -0.56152
 Alpha  occ. eigenvalues --   -0.55788  -0.55573  -0.55479  -0.54844  -0.54646
 Alpha  occ. eigenvalues --   -0.54471  -0.54210  -0.54008  -0.53758  -0.53601
 Alpha  occ. eigenvalues --   -0.53288  -0.53108  -0.53017  -0.52925  -0.52678
 Alpha  occ. eigenvalues --   -0.52535  -0.52303  -0.52054  -0.51957  -0.51843
 Alpha  occ. eigenvalues --   -0.51574  -0.51327  -0.51180  -0.51063  -0.50704
 Alpha  occ. eigenvalues --   -0.50444  -0.50278  -0.50032  -0.49887  -0.49631
 Alpha  occ. eigenvalues --   -0.49459  -0.49402  -0.49299  -0.49168  -0.49018
 Alpha  occ. eigenvalues --   -0.48858  -0.48740  -0.48624  -0.48522  -0.48317
 Alpha  occ. eigenvalues --   -0.48105  -0.48001  -0.47790  -0.47659  -0.47428
 Alpha  occ. eigenvalues --   -0.47258  -0.47052  -0.46851  -0.46737  -0.46510
 Alpha  occ. eigenvalues --   -0.46264  -0.46096  -0.45686  -0.45564  -0.45468
 Alpha  occ. eigenvalues --   -0.45270  -0.45131  -0.45040  -0.44881  -0.44564
 Alpha  occ. eigenvalues --   -0.44341  -0.44331  -0.44198  -0.44094  -0.43957
 Alpha  occ. eigenvalues --   -0.43840  -0.43724  -0.43660  -0.43597  -0.43253
 Alpha  occ. eigenvalues --   -0.43212  -0.43072  -0.42945  -0.42520  -0.42420
 Alpha  occ. eigenvalues --   -0.42377  -0.42068  -0.41974  -0.41719  -0.41671
 Alpha  occ. eigenvalues --   -0.41531  -0.41379  -0.41360  -0.41030  -0.40848
 Alpha  occ. eigenvalues --   -0.40816  -0.40604  -0.40556  -0.40298  -0.40174
 Alpha  occ. eigenvalues --   -0.40138  -0.40034  -0.39925  -0.39036  -0.38824
 Alpha  occ. eigenvalues --   -0.38486  -0.38199  -0.37676  -0.37413  -0.37066
 Alpha  occ. eigenvalues --   -0.36707  -0.36521  -0.36164  -0.36048  -0.35592
 Alpha  occ. eigenvalues --   -0.35469  -0.33883  -0.33500  -0.33065  -0.32805
 Alpha  occ. eigenvalues --   -0.32449  -0.31970  -0.31291  -0.30791  -0.30393
 Alpha  occ. eigenvalues --   -0.30139  -0.29786  -0.29213  -0.29194  -0.28728
 Alpha  occ. eigenvalues --   -0.28573  -0.27643  -0.26298  -0.23380  -0.22980
 Alpha  occ. eigenvalues --   -0.20431  -0.18525
 Alpha virt. eigenvalues --   -0.09598  -0.08159  -0.02226  -0.01044  -0.00646
 Alpha virt. eigenvalues --    0.00554   0.00623   0.02883   0.03621   0.03860
 Alpha virt. eigenvalues --    0.04952   0.05313   0.05585   0.05807   0.06236

 Mulliken charges:
               1
     1  Mg   0.652764
     2  C    0.021515
     3  C   -0.093319
     4  C   -0.063955
     5  C    0.027240
     6  N   -0.231613
     7  C   -0.072392
     8  C   -0.011258
     9  C   -0.085697
    10  C    0.042373
    11  C    0.104854
    12  C    0.053579
    13  C   -0.071759
    14  H    0.037303
    15  N   -0.438178
    16  C    0.174705
    17  C   -0.172780
    18  C   -0.006399
    19  C    0.157462
    20  C    0.109711
    21  C    0.010082
    22  O   -0.252083
    23  C    0.062191
    24  N   -0.293172
    25  C    0.017076
    26  C    0.007129
    27  C    0.013021
    28  C    0.021232
    29  C    0.095224
    30  C    0.062763
    31  C    0.227389
    32  N   -0.294612
    33  C   -0.042033
    34  C   -0.210372
    35  C    0.024672
    36  C    0.074315
    37  C    0.191005
    38  C    0.036996
    39  O   -0.182955
    40  C   -0.014677
    41  C    0.211207
    42  O   -0.244854
    43  O   -0.306685
    44  C    0.157586
    45  H   -0.016354
    46  H   -0.018467
    47  H   -0.035041
    48  H    0.000213
    49  H   -0.004306
    50  H    0.027212
    51  H    0.014332
    52  H    0.017047
    53  H    0.009550
    54  H    0.047508
    55  H    0.016979
    56  H    0.016541
    57  H    0.009345
    58  H    0.029574
    59  H    0.042574
    60  H    0.038397
    61  H    0.035752
    62  H    0.030779
    63  H    0.016434
    64  H    0.017556
    65  H    0.023929
    66  H    0.017148
    67  H    0.006091
    68  H    0.008217
    69  H    0.017806
    70  H   -0.000542
    71  H    0.021680
    72  H    0.057741
    73  H    0.044199
    74  H    0.016674
    75  H    0.025539
    76  H    0.036314
    77  H    0.042450
    78  H    0.045174
    79  H    0.056126
    80  Mg   0.835751
    81  C   -0.021193
    82  C   -0.089342
    83  C   -0.046811
    84  C   -0.067085
    85  N   -0.255631
    86  C   -0.028051
    87  C   -0.039375
    88  C   -0.090238
    89  C    0.048890
    90  C    0.117329
    91  C    0.132248
    92  C   -0.105147
    93  H    0.292601
    94  N   -0.422836
    95  C    0.161209
    96  C   -0.176412
    97  C   -0.009769
    98  C    0.151384
    99  C    0.099220
   100  C    0.013953
   101  O   -0.255094
   102  C    0.062232
   103  N   -0.350369
   104  C    0.036646
   105  C   -0.019117
   106  C   -0.034851
   107  C    0.089778
   108  C    0.074300
   109  C    0.035118
   110  C   -0.007453
   111  N   -0.324505
   112  C    0.080158
   113  C   -0.162880
   114  C    0.003314
   115  C    0.096611
   116  C    0.131036
   117  C    0.044636
   118  O   -0.186681
   119  C    0.008634
   120  C    0.221468
   121  O   -0.245856
   122  O   -0.317762
   123  C    0.191365
   124  H   -0.019778
   125  H   -0.017664
   126  H   -0.041873
   127  H   -0.002466
   128  H    0.001057
   129  H    0.018631
   130  H    0.013192
   131  H    0.013041
   132  H    0.021692
   133  H    0.066062
   134  H   -0.456311
   135  H    0.039873
   136  H    0.010382
   137  H    0.024592
   138  H    0.033917
   139  H    0.037719
   140  H    0.034321
   141  H    0.031169
   142  H    0.013003
   143  H    0.011352
   144  H    0.023586
   145  H    0.011302
   146  H    0.004445
   147  H    0.004844
   148  H    0.003189
   149  H    0.009867
   150  H    0.016915
   151  H    0.031574
   152  H    0.047405
   153  H    0.007454
   154  H    0.045479
   155  H    0.029110
   156  H    0.028900
   157  H   -0.052752
   158  H    0.066570
 Sum of Mulliken charges =  -0.00000

 Dipole moment (field-independent basis, Debye):
    X=             -3.6112    Y=              7.6047    Z=              1.2610  Tot=              8.5125
 Quadrupole moment (field-independent basis, Debye-Ang):
   XX=           -499.5580   YY=           -539.0571   ZZ=           -467.2306
   XY=            -35.1851   XZ=            -10.5258   YZ=             -3.4203

 Normal termination of Gaussian 16 at Wed Sep  8 22:52:43 2021.
