 Gaussian 16, Revision A.03,
 Gaussian 16:  ES64L-G16RevA.03 25-Dec-2016

 -----------------------------------
 #p cam-b3lyp/Def2SVP td=(nstates=5)
 -----------------------------------

 --------------------------------
 TDDFT excited states in gaussian
 --------------------------------
 Symbolic Z-matrix:
 Charge =  0 Multiplicity = 1

                         Standard orientation:
 ---------------------------------------------------------------------
 Center     Atomic      Atomic             Coordinates (Angstroms)
 Number     Number       Type             X           Y           Z
 ---------------------------------------------------------------------
      1         12           0      -15.789093    0.691311    0.332264
      2          6           0      -16.047238   -2.262484   -1.672896
      3          6           0      -16.599231   -1.244224    3.023072
      4          6           0      -16.012916    3.352772    2.041987
      5          6           0      -16.122107    2.536474   -2.605445
      6          7           0      -16.240928   -1.467346    0.523816
      7          6           0      -16.247445   -2.501467   -0.311482
      8          6           0      -16.412115   -3.874424    0.406324
      9          6           0      -17.130590   -3.376751    1.739783
     10          6           0      -16.598522   -1.955252    1.786354
     11          6           0      -18.651235   -3.328713    1.630999
     12          6           0      -15.035062   -4.552210    0.716265
     13          6           0      -15.108810   -6.028776    1.115849
     14          1           0      -14.045106   -6.924285    0.686962
     15          7           0      -15.758824    0.963585    2.288741
     16          6           0      -16.105592    0.060850    3.237481
     17          6           0      -15.911856    0.740121    4.536611
     18          6           0      -15.606086    2.171350    4.260599
     19          6           0      -15.808811    2.226281    2.835375
     20          6           0      -15.974011    0.029733    5.853895
     21          6           0      -15.206420    3.311425    5.142998
     22          8           0      -15.215481    4.523008    4.734882
     23          6           0      -14.884721    2.977630    6.542331
     24          7           0      -16.252003    2.664787   -0.166476
     25          6           0      -16.221694    3.634500    0.754242
     26          6           0      -16.307225    4.991557    0.120980
     27          6           0      -16.157422    4.755962   -1.451218
     28          6           0      -16.089888    3.208801   -1.452620
     29          6           0      -17.594816    5.779651    0.398515
     30          6           0      -15.037900    5.543764   -2.176793
     31          6           0      -13.683687    5.054207   -1.714690
     32          7           0      -15.863636    0.253898   -1.792390
     33          6           0      -16.029410    1.174313   -2.837393
     34          6           0      -16.126591    0.396856   -4.086466
     35          6           0      -16.026571   -0.931316   -3.676833
     36          6           0      -15.902781   -0.981616   -2.258934
     37          6           0      -16.344162    0.932359   -5.386595
     38          6           0      -16.020222   -2.320809   -4.104765
     39          8           0      -15.999458   -2.891997   -5.196005
     40          6           0      -16.155816   -3.243292   -2.813848
     41          6           0      -15.112704   -4.322649   -2.914923
     42          8           0      -13.897659   -4.046582   -2.845501
     43          8           0      -15.706647   -5.523442   -2.838324
     44          6           0      -14.724314   -6.638357   -2.902676
     45          1           0      -17.072727   -1.701076    3.894295
     46          1           0      -15.985628    4.301451    2.582081
     47          1           0      -16.142074    3.047814   -3.569595
     48          1           0      -17.050170   -4.587053   -0.116620
     49          1           0      -16.797157   -3.935009    2.614364
     50          1           0      -18.983987   -3.521550    0.611190
     51          1           0      -18.933451   -2.321923    1.939575
     52          1           0      -19.112695   -4.003610    2.352349
     53          1           0      -14.626126   -4.131607    1.634918
     54          1           0      -14.351725   -4.440419   -0.126278
     55          1           0      -16.084713   -6.456206    0.883846
     56          1           0      -15.036210   -6.092819    2.201588
     57          1           0      -16.379213   -0.975814    5.747911
     58          1           0      -16.707752    0.555271    6.464748
     59          1           0      -15.009738    0.022763    6.362286
     60          1           0      -15.750328    2.505934    7.007924
     61          1           0      -14.534688    3.902581    6.999269
     62          1           0      -14.087329    2.233999    6.553588
     63          1           0      -15.498277    5.635045    0.464421
     64          1           0      -17.064850    5.023424   -1.993170
     65          1           0      -17.421476    6.756259    0.851170
     66          1           0      -18.236958    5.164966    1.028679
     67          1           0      -18.231361    5.936434   -0.471914
     68          1           0      -15.097803    6.602949   -1.928833
     69          1           0      -15.082773    5.454203   -3.262250
     70          1           0      -13.522574    5.615821   -0.795199
     71          1           0      -12.920054    5.291670   -2.456098
     72          1           0      -13.711589    3.996986   -1.450128
     73          1           0      -15.663210    0.402529   -6.052592
     74          1           0      -16.162927    2.006747   -5.407740
     75          1           0      -17.394828    0.683138   -5.534404
     76          1           0      -17.166969   -3.649003   -2.823297
     77          1           0      -15.026532   -7.285291   -3.726312
     78          1           0      -14.685189   -7.074876   -1.904516
     79          1           0      -13.712556   -6.372185   -3.210632
     80         12           0       15.958638    0.642899   -0.466806
     81          6           0       15.789749   -2.531961    1.197785
     82          6           0       15.159379    2.083224    2.520040
     83          6           0       15.656947    3.407794   -1.993809
     84          6           0       15.612043   -1.074605   -3.479415
     85          7           0       15.552044   -0.218408    1.529462
     86          6           0       15.577420   -1.433303    2.056454
     87          6           0       15.443041   -1.466680    3.602536
     88          6           0       14.690497   -0.063125    3.808868
     89          6           0       15.187767    0.666366    2.562579
     90          6           0       13.177162   -0.173728    3.725627
     91          6           0       16.836630   -1.482662    4.323426
     92          6           0       16.785782   -1.825885    5.813857
     93          1           0       17.881065   -2.603434    6.386799
     94          7           0       15.963081    2.501475    0.229060
     95          6           0       15.632425    2.905172    1.473640
     96          6           0       15.779432    4.368916    1.474161
     97          6           0       16.064666    4.812201    0.082448
     98          6           0       15.881359    3.565905   -0.633966
     99          6           0       15.726821    5.191561    2.728721
    100          6           0       16.428113    6.140973   -0.507864
    101          8           0       16.397198    6.347062   -1.772548
    102          6           0       16.730855    7.220238    0.443461
    103          7           0       15.464106    1.123813   -2.428062
    104          6           0       15.455764    2.401970   -2.845376
    105          6           0       15.343295    2.484125   -4.349040
    106          6           0       15.522037    0.984730   -4.875789
    107          6           0       15.622229    0.250678   -3.520611
    108          6           0       14.033799    3.059805   -4.887723
    109          6           0       16.632167    0.738133   -5.933838
    110          6           0       17.993761    0.951731   -5.312683
    111          7           0       15.924316   -1.428113   -1.081480
    112          6           0       15.742578   -1.926559   -2.390136
    113          6           0       15.678592   -3.399087   -2.290185
    114          6           0       15.805480   -3.656043   -0.916735
    115          6           0       15.918846   -2.429259   -0.208472
    116          6           0       15.474448   -4.298394   -3.374466
    117          6           0       15.858630   -4.685671    0.096057
    118          8           0       15.898366   -5.915303    0.083492
    119          6           0       15.723795   -3.998435    1.522913
    120          6           0       16.792912   -4.567025    2.415223
    121          8           0       17.994756   -4.355866    2.175223
    122          8           0       16.219047   -5.079321    3.519126
    123          6           0       17.240100   -5.645497    4.440395
    124          1           0       14.692565    2.617876    3.347757
    125          1           0       15.655425    4.328625   -2.581647
    126          1           0       15.603675   -1.686702   -4.383807
    127          1           0       14.833923   -2.275390    3.988219
    128          1           0       15.034314    0.440920    4.708360
    129          1           0       12.861398   -1.161059    3.422954
    130          1           0       12.868103    0.562742    2.995465
    131          1           0       12.724139    0.132480    4.672908
    132          1           0       17.222293   -0.456595    4.379961
    133          1           0       17.516775   -2.144352    3.823233
    134          1           0       15.818221   -2.251829    6.105970
    135          1           0       16.853752   -0.897576    6.386239
    136          1           0       15.339190    4.610644    3.574696
    137          1           0       14.975210    5.972021    2.568037
    138          1           0       16.682978    5.664520    2.962677
    139          1           0       15.872392    7.382241    1.090957
    140          1           0       17.054594    8.065528   -0.166910
    141          1           0       17.555197    6.896747    1.088785
    142          1           0       16.133412    3.098543   -4.762949
    143          1           0       14.610479    0.614144   -5.367276
    144          1           0       14.180560    3.937949   -5.544523
    145          1           0       13.401820    3.314835   -4.047423
    146          1           0       13.412279    2.356300   -5.439089
    147          1           0       16.545942    1.461038   -6.748780
    148          1           0       16.595018   -0.251790   -6.376198
    149          1           0       18.125416    2.036192   -5.373612
    150          1           0       18.760309    0.428540   -5.880757
    151          1           0       17.989049    0.679394   -4.250864
    152          1           0       16.168138   -5.116834   -3.234990
    153          1           0       15.626280   -3.806490   -4.332982
    154          1           0       14.426907   -4.565648   -3.211628
    155          1           0       14.721836   -4.213072    1.896532
    156          1           0       16.959354   -6.686585    4.627493
    157          1           0       17.264860   -4.965874    5.312883
    158          1           0       18.247994   -5.763338    4.059995
 ---------------------------------------------------------------------

 SCF Done:  E(RCAM-B3LYP) =  -4069.81177455     A.U. after   19 cycles

 Excitation energies and oscillator strengths:

 Excited State   1:      Singlet-A      1.6755 eV  739.98 nm  f=0.3497  <S**2>=0.000
     310 -> 316        0.17238
     312 -> 313        0.68121
     310 <- 316        0.10390
 This state for optimization and/or second-order correction.
 Total Energy, E(TD-HF/TD-DFT) =  -4069.75020088
 Copying the excited state density for this state as the 1-particle RhoCI density.

 Excited State   2:      Singlet-A      1.6799 eV  738.05 nm  f=0.4266  <S**2>=0.000
     309 -> 315        0.17430
     311 -> 314        0.68086
     309 <- 315        0.10437

 Excited State   3:      Singlet-A      2.1861 eV  567.15 nm  f=0.1012  <S**2>=0.000
     310 -> 313        0.64242
     312 -> 316       -0.27311

 Excited State   4:      Singlet-A      2.1925 eV  565.50 nm  f=0.0997  <S**2>=0.000
     309 -> 314        0.64065
     311 -> 315       -0.27824

 Excited State   5:      Singlet-A      3.0657 eV  404.43 nm  f=0.0000  <S**2>=0.000
     311 -> 313        0.70711

 The electronic state is 1-A.
 Alpha  occ. eigenvalues --  -46.87796 -46.87661 -19.26354 -19.26278 -19.19165
 Alpha  occ. eigenvalues --  -19.19015 -19.18817 -19.18714 -19.18167 -19.18053
 Alpha  occ. eigenvalues --  -14.42498 -14.42449 -14.41449 -14.41359 -14.39402
 Alpha  occ. eigenvalues --  -14.39352 -14.38600 -14.38586 -10.39094 -10.39075
 Alpha  occ. eigenvalues --  -10.35450 -10.35391 -10.34387 -10.34230 -10.31762
 Alpha  occ. eigenvalues --  -10.31671 -10.31403 -10.31310 -10.31024 -10.30907
 Alpha  occ. eigenvalues --  -10.30569 -10.30507 -10.30398 -10.30361 -10.30207
 Alpha  occ. eigenvalues --  -10.30140 -10.29920 -10.29894 -10.29630 -10.29437
 Alpha  occ. eigenvalues --  -10.29401 -10.29254 -10.28746 -10.28721 -10.28659
 Alpha  occ. eigenvalues --  -10.28532 -10.28405 -10.28364 -10.28142 -10.28114
 Alpha  occ. eigenvalues --  -10.28001 -10.27792 -10.27726 -10.27670 -10.27584
 Alpha  occ. eigenvalues --  -10.27515 -10.27502 -10.27484 -10.27482 -10.27468
 Alpha  occ. eigenvalues --  -10.27465 -10.27451 -10.27402 -10.27373 -10.27155
 Alpha  occ. eigenvalues --  -10.27052 -10.26700 -10.26696 -10.26414 -10.26414
 Alpha  occ. eigenvalues --  -10.26231 -10.26186 -10.26135 -10.26027 -10.26019
 Alpha  occ. eigenvalues --  -10.25934 -10.25850 -10.25842 -10.25437 -10.25392
 Alpha  occ. eigenvalues --  -10.24873 -10.24832 -10.24787 -10.24729 -10.24690
 Alpha  occ. eigenvalues --  -10.24689  -3.16539  -3.16411  -1.91420  -1.91293
 Alpha  occ. eigenvalues --   -1.91007  -1.90882  -1.90849  -1.90718  -1.16647
 Alpha  occ. eigenvalues --   -1.16627  -1.08660  -1.08625  -1.07218  -1.06965
 Alpha  occ. eigenvalues --   -1.06949  -1.06637  -1.04580  -1.04496  -1.03760
 Alpha  occ. eigenvalues --   -1.03663  -1.03233  -1.03039  -1.02410  -1.02112
 Alpha  occ. eigenvalues --   -0.91988  -0.91970  -0.89520  -0.89494  -0.89185
 Alpha  occ. eigenvalues --   -0.89153  -0.88287  -0.88219  -0.87869  -0.87794
 Alpha  occ. eigenvalues --   -0.87685  -0.87672  -0.87274  -0.87120  -0.85001
 Alpha  occ. eigenvalues --   -0.84980  -0.83937  -0.83875  -0.82969  -0.82931
 Alpha  occ. eigenvalues --   -0.82654  -0.82647  -0.81598  -0.81582  -0.80595
 Alpha  occ. eigenvalues --   -0.80444  -0.78797  -0.78636  -0.77217  -0.77145
 Alpha  occ. eigenvalues --   -0.76932  -0.76900  -0.75920  -0.75840  -0.74898
 Alpha  occ. eigenvalues --   -0.74802  -0.72773  -0.72699  -0.71671  -0.71581
 Alpha  occ. eigenvalues --   -0.69908  -0.69756  -0.68871  -0.68829  -0.67640
 Alpha  occ. eigenvalues --   -0.67602  -0.67217  -0.67202  -0.65284  -0.65273
 Alpha  occ. eigenvalues --   -0.64852  -0.64771  -0.64655  -0.64619  -0.64269
 Alpha  occ. eigenvalues --   -0.64203  -0.62294  -0.62281  -0.60443  -0.60339
 Alpha  occ. eigenvalues --   -0.59802  -0.59798  -0.58993  -0.58986  -0.58503
 Alpha  occ. eigenvalues --   -0.58426  -0.57582  -0.57556  -0.57308  -0.57236
 Alpha  occ. eigenvalues --   -0.56309  -0.56205  -0.55974  -0.55889  -0.55520
 Alpha  occ. eigenvalues --   -0.55453  -0.55338  -0.55248  -0.54521  -0.54488
 Alpha  occ. eigenvalues --   -0.53914  -0.53892  -0.53298  -0.53228  -0.53220
 Alpha  occ. eigenvalues --   -0.53143  -0.52913  -0.52904  -0.52756  -0.52669
 Alpha  occ. eigenvalues --   -0.52439  -0.52400  -0.51914  -0.51885  -0.51660
 Alpha  occ. eigenvalues --   -0.51614  -0.51202  -0.51194  -0.50574  -0.50475
 Alpha  occ. eigenvalues --   -0.50032  -0.49980  -0.49918  -0.49866  -0.49513
 Alpha  occ. eigenvalues --   -0.49488  -0.49213  -0.49204  -0.49106  -0.49093
 Alpha  occ. eigenvalues --   -0.48591  -0.48560  -0.48462  -0.48445  -0.48375
 Alpha  occ. eigenvalues --   -0.48339  -0.47694  -0.47595  -0.47296  -0.47118
 Alpha  occ. eigenvalues --   -0.46796  -0.46709  -0.46556  -0.46553  -0.46358
 Alpha  occ. eigenvalues --   -0.46271  -0.46161  -0.46086  -0.45824  -0.45819
 Alpha  occ. eigenvalues --   -0.45207  -0.45202  -0.44576  -0.44515  -0.44506
 Alpha  occ. eigenvalues --   -0.44477  -0.44144  -0.44128  -0.44086  -0.44078
 Alpha  occ. eigenvalues --   -0.44018  -0.43940  -0.43555  -0.43492  -0.43387
 Alpha  occ. eigenvalues --   -0.43384  -0.43026  -0.42933  -0.42902  -0.42696
 Alpha  occ. eigenvalues --   -0.42653  -0.42553  -0.42009  -0.41965  -0.41703
 Alpha  occ. eigenvalues --   -0.41670  -0.41531  -0.41460  -0.41140  -0.40990
 Alpha  occ. eigenvalues --   -0.40868  -0.40824  -0.40723  -0.40699  -0.40571
 Alpha  occ. eigenvalues --   -0.40493  -0.40230  -0.40229  -0.39442  -0.39424
 Alpha  occ. eigenvalues --   -0.38469  -0.38349  -0.37745  -0.37656  -0.37320
 Alpha  occ. eigenvalues --   -0.37266  -0.37261  -0.37201  -0.36774  -0.36710
 Alpha  occ. eigenvalues --   -0.36218  -0.36190  -0.34285  -0.34254  -0.33865
 Alpha  occ. eigenvalues --   -0.33766  -0.33185  -0.33176  -0.31347  -0.31273
 Alpha  occ. eigenvalues --   -0.31035  -0.30973  -0.30026  -0.29957  -0.29449
 Alpha  occ. eigenvalues --   -0.29327  -0.29321  -0.29212  -0.24080  -0.24036
 Alpha  occ. eigenvalues --   -0.21127  -0.21117
 Alpha virt. eigenvalues --   -0.08792  -0.08774  -0.01749  -0.01684  -0.00058
 Alpha virt. eigenvalues --   -0.00029   0.02201   0.02206   0.03120   0.03224
 Alpha virt. eigenvalues --    0.04720   0.04728   0.05103   0.05162   0.06179

 Mulliken charges:
               1
     1  Mg   0.838653
     2  C   -0.002973
     3  C   -0.094093
     4  C   -0.045875
     5  C   -0.063966
     6  N   -0.256779
     7  C   -0.052433
     8  C   -0.014019
     9  C   -0.086975
    10  C    0.046303
    11  C    0.104807
    12  C    0.053457
    13  C   -0.071831
    14  H    0.036198
    15  N   -0.433114
    16  C    0.168411
    17  C   -0.177162
    18  C   -0.004021
    19  C    0.148717
    20  C    0.110185
    21  C    0.012274
    22  O   -0.249662
    23  C    0.062480
    24  N   -0.341117
    25  C    0.041234
    26  C   -0.028169
    27  C   -0.023985
    28  C    0.074858
    29  C    0.076182
    30  C    0.035133
    31  C   -0.004500
    32  N   -0.310458
    33  C    0.080395
    34  C   -0.169710
    35  C    0.008376
    36  C    0.082978
    37  C    0.127311
    38  C    0.046126
    39  O   -0.188405
    40  C   -0.005329
    41  C    0.212895
    42  O   -0.257096
    43  O   -0.304806
    44  C    0.157680
    45  H   -0.017597
    46  H   -0.016867
    47  H   -0.041497
    48  H    0.000954
    49  H   -0.004017
    50  H    0.025481
    51  H    0.016432
    52  H    0.016672
    53  H    0.011199
    54  H    0.044133
    55  H    0.017879
    56  H    0.017954
    57  H    0.005892
    58  H    0.026811
    59  H    0.039534
    60  H    0.037355
    61  H    0.035601
    62  H    0.031494
    63  H    0.016527
    64  H    0.009462
    65  H    0.023183
    66  H    0.012551
    67  H    0.004752
    68  H    0.006342
    69  H    0.004738
    70  H    0.008752
    71  H    0.018134
    72  H    0.029002
    73  H    0.047585
    74  H    0.009102
    75  H    0.046017
    76  H    0.035164
    77  H    0.042972
    78  H    0.046416
    79  H    0.053711
    80  Mg   0.837835
    81  C   -0.016835
    82  C   -0.087798
    83  C   -0.045500
    84  C   -0.064871
    85  N   -0.254569
    86  C   -0.049854
    87  C   -0.015065
    88  C   -0.090502
    89  C    0.045761
    90  C    0.114367
    91  C    0.062517
    92  C   -0.077893
    93  H    0.034875
    94  N   -0.423508
    95  C    0.162940
    96  C   -0.174616
    97  C   -0.007782
    98  C    0.152133
    99  C    0.099369
   100  C    0.015579
   101  O   -0.253155
   102  C    0.061194
   103  N   -0.350053
   104  C    0.037541
   105  C   -0.019839
   106  C   -0.034832
   107  C    0.088930
   108  C    0.073626
   109  C    0.034729
   110  C   -0.007689
   111  N   -0.324106
   112  C    0.078448
   113  C   -0.163118
   114  C    0.002244
   115  C    0.096203
   116  C    0.131479
   117  C    0.042387
   118  O   -0.187886
   119  C    0.000909
   120  C    0.211259
   121  O   -0.251025
   122  O   -0.305634
   123  C    0.152036
   124  H   -0.019653
   125  H   -0.015531
   126  H   -0.040423
   127  H   -0.000661
   128  H   -0.004340
   129  H    0.022466
   130  H    0.014468
   131  H    0.016272
   132  H    0.013923
   133  H    0.037675
   134  H    0.020776
   135  H    0.019592
   136  H    0.008754
   137  H    0.026176
   138  H    0.039794
   139  H    0.038269
   140  H    0.036420
   141  H    0.033885
   142  H    0.014411
   143  H    0.012481
   144  H    0.025175
   145  H    0.011665
   146  H    0.005747
   147  H    0.006304
   148  H    0.003670
   149  H    0.010941
   150  H    0.017935
   151  H    0.030077
   152  H    0.045995
   153  H    0.008541
   154  H    0.046986
   155  H    0.035027
   156  H    0.043894
   157  H    0.049483
   158  H    0.053578
 Sum of Mulliken charges =  -0.00000

 Dipole moment (field-independent basis, Debye):
    X=             -3.8247    Y=              2.0685    Z=              6.8293  Tot=              8.0961
 Quadrupole moment (field-independent basis, Debye-Ang):
   XX=           -517.0358   YY=           -524.1394   ZZ=           -474.7145
   XY=             66.1985   XZ=            -20.1627   YZ=            -22.8387

 Normal termination of Gaussian 16 at Sat Sep  4 19:19:00 2021.
