 Gaussian 16, Revision A.03,
 Gaussian 16:  ES64L-G16RevA.03 25-Dec-2016

 -----------------------------------
 #p cam-b3lyp/Def2SVP td=(nstates=5)
 -----------------------------------

 --------------------------------
 TDDFT excited states in gaussian
 --------------------------------
 Symbolic Z-matrix:
 Charge =  0 Multiplicity = 1

                         Standard orientation:
 ---------------------------------------------------------------------
 Center     Atomic      Atomic             Coordinates (Angstroms)
 Number     Number       Type             X           Y           Z
 ---------------------------------------------------------------------
      1         12           0       -5.257697   -0.566856    0.106062
      2          6           0       -5.313063    3.005843    0.318132
      3          6           0       -6.136376   -0.237169   -3.174531
      4          6           0       -5.658473   -3.711181    0.010043
      5          6           0       -5.504462   -0.629679    3.581810
      6          7           0       -5.644679    1.211782   -1.153834
      7          6           0       -5.573615    2.526073   -0.967395
      8          6           0       -5.727418    3.345950   -2.283268
      9          6           0       -6.529009    2.277238   -3.153501
     10          6           0       -6.048823    1.004756   -2.478121
     11          6           0       -8.042955    2.375644   -2.996066
     12          6           0       -4.345472    3.692828   -2.932599
     13          6           0       -4.388884    4.759193   -4.030933
     14          1           0       -3.274889    5.687749   -4.149874
     15          7           0       -5.335765   -1.802021   -1.433783
     16          6           0       -5.699064   -1.493446   -2.701884
     17          6           0       -5.594608   -2.750773   -3.473181
     18          6           0       -5.324311   -3.854226   -2.510152
     19          6           0       -5.456427   -3.161714   -1.253828
     20          6           0       -5.699038   -2.811269   -4.966226
     21          6           0       -5.008958   -5.305193   -2.692857
     22          8           0       -5.038721   -6.135334   -1.720976
     23          6           0       -4.747259   -5.751851   -4.073093
     24          7           0       -5.761891   -1.979115    1.558283
     25          6           0       -5.811329   -3.283133    1.264896
     26          6           0       -5.910996   -4.118758    2.506564
     27          6           0       -5.673886   -3.121406    3.730827
     28          6           0       -5.553583   -1.797351    2.936676
     29          6           0       -7.237136   -4.865455    2.706082
     30          6           0       -4.546640   -3.488149    4.728442
     31          6           0       -3.201616   -3.379230    4.045693
     32          7           0       -5.209674    0.898358    1.706652
     33          6           0       -5.353694    0.652134    3.079716
     34          6           0       -5.360955    1.962762    3.755194
     35          6           0       -5.236498    2.887106    2.719847
     36          6           0       -5.182959    2.198727    1.474231
     37          6           0       -5.530627    2.179950    5.151072
     38          6           0       -5.161070    4.297301    2.374135
     39          8           0       -5.065634    5.343819    3.016930
     40          6           0       -5.330227    4.436263    0.796826
     41          6           0       -4.247093    5.356106    0.302842
     42          8           0       -3.047252    5.016703    0.353356
     43          8           0       -4.802806    6.379745   -0.363408
     44          6           0       -3.780983    7.314677   -0.905563
     45          1           0       -6.637470   -0.264428   -4.144121
     46          1           0       -5.690951   -4.802454    0.032533
     47          1           0       -5.493070   -0.574400    4.671887
     48          1           0       -6.313495    4.259729   -2.183547
     49          1           0       -6.221385    2.290663   -4.198924
     50          1           0       -8.316908    3.080654   -2.211317
     51          1           0       -8.374632    1.369953   -2.737088
     52          1           0       -8.517007    2.611346   -3.949217
     53          1           0       -3.998136    2.839944   -3.515700
     54          1           0       -3.624598    3.989810   -2.170058
     55          1           0       -5.336636    5.298312   -4.025792
     56          1           0       -4.369164    4.255196   -4.997265
     57          1           0       -6.063791   -1.872213   -5.380561
     58          1           0       -6.480260   -3.533716   -5.201750
     59          1           0       -4.762046   -3.118401   -5.431036
     60          1           0       -5.618703   -5.537398   -4.692080
     61          1           0       -4.452577   -6.798102   -3.999799
     62          1           0       -3.926534   -5.163812   -4.484880
     63          1           0       -5.142902   -4.890931    2.520963
     64          1           0       -6.561335   -3.023698    4.356575
     65          1           0       -7.120364   -5.944062    2.814134
     66          1           0       -7.888975   -4.624811    1.866745
     67          1           0       -7.833809   -4.519893    3.549874
     68          1           0       -4.655139   -4.520083    5.060537
     69          1           0       -4.533455   -2.854075    5.615024
     70          1           0       -3.106498   -4.339804    3.540635
     71          1           0       -2.410005   -3.246169    4.783837
     72          1           0       -3.206755   -2.606080    3.277124
     73          1           0       -4.799159    2.937179    5.433080
     74          1           0       -5.385342    1.259194    5.715610
     75          1           0       -6.563346    2.527309    5.177322
     76          1           0       -6.325165    4.844951    0.623063
     77          1           0       -4.018879    8.307236   -0.522855
     78          1           0       -3.777526    7.176779   -1.986941
     79          1           0       -2.764618    7.187868   -0.531048
     80         12           0        5.324569   -0.997602    0.046817
     81          6           0        5.429668    2.583735    0.251924
     82          6           0        4.596824   -0.637396   -3.266070
     83          6           0        4.781666   -4.121475   -0.071711
     84          6           0        4.925050   -1.045471    3.508585
     85          7           0        5.073130    0.793291   -1.226668
     86          6           0        5.197391    2.100435   -1.052650
     87          6           0        5.145189    2.931534   -2.362655
     88          6           0        4.322691    1.894904   -3.272470
     89          6           0        4.711021    0.594025   -2.572771
     90          6           0        2.816262    2.063691   -3.165170
     91          6           0        6.572625    3.206965   -2.953056
     92          6           0        6.619132    4.268104   -4.054682
     93          1           0        7.786533    5.142129   -4.130362
     94          7           0        5.255106   -2.231012   -1.506381
     95          6           0        4.965842   -1.913072   -2.785646
     96          6           0        5.025955   -3.176071   -3.537565
     97          6           0        5.212306   -4.290304   -2.568806
     98          6           0        5.066215   -3.577286   -1.315673
     99          6           0        4.989653   -3.232794   -5.037194
    100          6           0        5.465667   -5.757303   -2.741770
    101          8           0        5.357413   -6.579167   -1.764193
    102          6           0        5.752817   -6.216317   -4.108642
    103          7           0        4.701942   -2.375629    1.473593
    104          6           0        4.596582   -3.682004    1.173249
    105          6           0        4.402010   -4.514017    2.418348
    106          6           0        4.641600   -3.515306    3.644221
    107          6           0        4.854781   -2.200849    2.861807
    108          6           0        3.034733   -5.181298    2.565605
    109          6           0        5.708283   -3.932207    4.693530
    110          6           0        7.085106   -3.901767    4.069988
    111          7           0        5.380991    0.461411    1.639359
    112          6           0        5.161731    0.231234    3.015226
    113          6           0        5.190087    1.546825    3.686677
    114          6           0        5.402637    2.460520    2.643377
    115          6           0        5.479724    1.765412    1.406295
    116          6           0        4.983742    1.776194    5.076258
    117          6           0        5.568721    3.855968    2.305972
    118          8           0        5.680325    4.898148    2.950284
    119          6           0        5.467328    4.009678    0.727209
    120          6           0        6.612791    4.870637    0.269840
    121          8           0        7.786064    4.474281    0.383535
    122          8           0        6.127933    5.918708   -0.420677
    123          6           0        7.226820    6.796158   -0.904781
    124          1           0        4.142576   -0.634533   -4.257301
    125          1           0        4.695425   -5.210122   -0.041861
    126          1           0        4.906199   -0.984693    4.598823
    127          1           0        4.605632    3.867844   -2.285397
    128          1           0        4.682087    1.898134   -4.298237
    129          1           0        2.544176    2.777441   -2.401838
    130          1           0        2.426963    1.083537   -2.922681
    131          1           0        2.395426    2.322128   -4.141104
    132          1           0        6.899405    2.328574   -3.524370
    133          1           0        7.263957    3.464100   -2.174226
    134          1           0        5.694776    4.856773   -4.099243
    135          1           0        6.661575    3.762156   -5.022280
    136          1           0        4.681184   -2.272567   -5.468699
    137          1           0        4.185964   -3.924618   -5.311646
    138          1           0        5.926993   -3.591261   -5.467965
    139          1           0        4.920841   -5.956838   -4.758986
    140          1           0        5.994113   -7.277015   -4.016076
    141          1           0        6.627025   -5.672644   -4.483865
    142          1           0        5.132041   -5.312592    2.467817
    143          1           0        3.729382   -3.379790    4.243655
    144          1           0        3.095281   -6.280219    2.678601
    145          1           0        2.433009   -4.920077    1.705245
    146          1           0        2.428254   -4.814115    3.391778
    147          1           0        5.537558   -4.961396    5.018771
    148          1           0        5.706898   -3.309333    5.581791
    149          1           0        7.149150   -4.870672    3.565788
    150          1           0        7.850891   -3.804534    4.836903
    151          1           0        7.151295   -3.124423    3.299917
    152          1           0        5.730850    2.494097    5.387624
    153          1           0        5.056593    0.852631    5.646783
    154          1           0        3.963627    2.169074    5.059714
    155          1           0        4.500420    4.462041    0.503531
    156          1           0        7.018099    7.804126   -0.533122
    157          1           0        7.256376    6.660018   -2.002208
    158          1           0        8.218942    6.624223   -0.504062
 ---------------------------------------------------------------------

 SCF Done:  E(RCAM-B3LYP) =  -4069.81141370     A.U. after   19 cycles

 Excitation energies and oscillator strengths:

 Excited State   1:      Singlet-A      1.6569 eV  748.29 nm  f=0.0025  <S**2>=0.000
     309 -> 315       -0.11342
     310 -> 316        0.12543
     311 -> 313       -0.45900
     312 -> 314        0.51136
 This state for optimization and/or second-order correction.
 Total Energy, E(TD-HF/TD-DFT) =  -4069.75052337
 Copying the excited state density for this state as the 1-particle RhoCI density.

 Excited State   2:      Singlet-A      1.6968 eV  730.68 nm  f=0.7186  <S**2>=0.000
     309 -> 315        0.13403
     310 -> 316        0.11941
     311 -> 313        0.50945
     312 -> 314        0.45735

 Excited State   3:      Singlet-A      2.1827 eV  568.03 nm  f=0.0222  <S**2>=0.000
     309 -> 313       -0.27444
     310 -> 314        0.58270
     311 -> 315        0.11440
     312 -> 316       -0.24458

 Excited State   4:      Singlet-A      2.1947 eV  564.93 nm  f=0.1590  <S**2>=0.000
     309 -> 313        0.57895
     310 -> 314        0.27119
     311 -> 315       -0.25399
     312 -> 316       -0.12002

 Excited State   5:      Singlet-A      2.4878 eV  498.37 nm  f=0.0000  <S**2>=0.000
     312 -> 313        0.70710

 The electronic state is 1-A.
 Alpha  occ. eigenvalues --  -46.87869 -46.87488 -19.26337 -19.26171 -19.19074
 Alpha  occ. eigenvalues --  -19.18982 -19.18872 -19.18577 -19.18213 -19.17839
 Alpha  occ. eigenvalues --  -14.42527 -14.42326 -14.41521 -14.41190 -14.39474
 Alpha  occ. eigenvalues --  -14.39185 -14.38654 -14.38419 -10.39135 -10.38906
 Alpha  occ. eigenvalues --  -10.35507 -10.35259 -10.34435 -10.34014 -10.31729
 Alpha  occ. eigenvalues --  -10.31603 -10.31481 -10.31128 -10.30991 -10.30859
 Alpha  occ. eigenvalues --  -10.30640 -10.30571 -10.30280 -10.30221 -10.30181
 Alpha  occ. eigenvalues --  -10.29991 -10.29984 -10.29717 -10.29697 -10.29325
 Alpha  occ. eigenvalues --  -10.29277 -10.29231 -10.28852 -10.28696 -10.28552
 Alpha  occ. eigenvalues --  -10.28548 -10.28434 -10.28228 -10.28212 -10.27970
 Alpha  occ. eigenvalues --  -10.27856 -10.27824 -10.27805 -10.27653 -10.27579
 Alpha  occ. eigenvalues --  -10.27571 -10.27511 -10.27508 -10.27475 -10.27380
 Alpha  occ. eigenvalues --  -10.27373 -10.27306 -10.27304 -10.27226 -10.27214
 Alpha  occ. eigenvalues --  -10.26846 -10.26827 -10.26558 -10.26478 -10.26320
 Alpha  occ. eigenvalues --  -10.26317 -10.26265 -10.26090 -10.26021 -10.25883
 Alpha  occ. eigenvalues --  -10.25815 -10.25770 -10.25636 -10.25487 -10.25243
 Alpha  occ. eigenvalues --  -10.24893 -10.24854 -10.24785 -10.24686 -10.24617
 Alpha  occ. eigenvalues --  -10.24518  -3.16612  -3.16238  -1.91493  -1.91120
 Alpha  occ. eigenvalues --   -1.91080  -1.90922  -1.90709  -1.90546  -1.16686
 Alpha  occ. eigenvalues --   -1.16465  -1.08669  -1.08442  -1.07272  -1.06831
 Alpha  occ. eigenvalues --   -1.06766  -1.06696  -1.04658  -1.04322  -1.03832
 Alpha  occ. eigenvalues --   -1.03493  -1.03302  -1.02868  -1.02480  -1.01937
 Alpha  occ. eigenvalues --   -0.92038  -0.91800  -0.89591  -0.89337  -0.89286
 Alpha  occ. eigenvalues --   -0.88984  -0.88357  -0.88068  -0.87929  -0.87755
 Alpha  occ. eigenvalues --   -0.87604  -0.87521  -0.87348  -0.86982  -0.85076
 Alpha  occ. eigenvalues --   -0.84840  -0.84006  -0.83726  -0.83038  -0.82805
 Alpha  occ. eigenvalues --   -0.82731  -0.82498  -0.81650  -0.81424  -0.80666
 Alpha  occ. eigenvalues --   -0.80277  -0.78869  -0.78480  -0.77299  -0.77017
 Alpha  occ. eigenvalues --   -0.76988  -0.76738  -0.75998  -0.75666  -0.74965
 Alpha  occ. eigenvalues --   -0.74644  -0.72843  -0.72527  -0.71743  -0.71409
 Alpha  occ. eigenvalues --   -0.69984  -0.69619  -0.68960  -0.68669  -0.67710
 Alpha  occ. eigenvalues --   -0.67436  -0.67321  -0.67060  -0.65376  -0.65105
 Alpha  occ. eigenvalues --   -0.64923  -0.64696  -0.64603  -0.64489  -0.64340
 Alpha  occ. eigenvalues --   -0.64049  -0.62358  -0.62108  -0.60513  -0.60192
 Alpha  occ. eigenvalues --   -0.59891  -0.59626  -0.59057  -0.58823  -0.58571
 Alpha  occ. eigenvalues --   -0.58254  -0.57642  -0.57374  -0.57357  -0.57074
 Alpha  occ. eigenvalues --   -0.56377  -0.56046  -0.56039  -0.55723  -0.55589
 Alpha  occ. eigenvalues --   -0.55404  -0.55297  -0.55086  -0.54587  -0.54328
 Alpha  occ. eigenvalues --   -0.53992  -0.53750  -0.53368  -0.53303  -0.53071
 Alpha  occ. eigenvalues --   -0.52984  -0.52983  -0.52838  -0.52742  -0.52537
 Alpha  occ. eigenvalues --   -0.52516  -0.52266  -0.51965  -0.51707  -0.51681
 Alpha  occ. eigenvalues --   -0.51507  -0.51263  -0.51028  -0.50653  -0.50358
 Alpha  occ. eigenvalues --   -0.50108  -0.49994  -0.49828  -0.49720  -0.49594
 Alpha  occ. eigenvalues --   -0.49336  -0.49282  -0.49177  -0.49032  -0.48923
 Alpha  occ. eigenvalues --   -0.48659  -0.48525  -0.48505  -0.48386  -0.48220
 Alpha  occ. eigenvalues --   -0.48188  -0.47772  -0.47443  -0.47367  -0.46972
 Alpha  occ. eigenvalues --   -0.46873  -0.46649  -0.46550  -0.46428  -0.46400
 Alpha  occ. eigenvalues --   -0.46225  -0.46113  -0.45912  -0.45882  -0.45640
 Alpha  occ. eigenvalues --   -0.45269  -0.45049  -0.44639  -0.44591  -0.44345
 Alpha  occ. eigenvalues --   -0.44317  -0.44218  -0.44175  -0.44084  -0.43958
 Alpha  occ. eigenvalues --   -0.43930  -0.43780  -0.43556  -0.43468  -0.43387
 Alpha  occ. eigenvalues --   -0.43219  -0.43095  -0.42762  -0.42762  -0.42722
 Alpha  occ. eigenvalues --   -0.42721  -0.42408  -0.42089  -0.41815  -0.41771
 Alpha  occ. eigenvalues --   -0.41628  -0.41486  -0.41306  -0.41214  -0.40961
 Alpha  occ. eigenvalues --   -0.40898  -0.40819  -0.40645  -0.40586  -0.40551
 Alpha  occ. eigenvalues --   -0.40353  -0.40338  -0.40089  -0.39522  -0.39290
 Alpha  occ. eigenvalues --   -0.38546  -0.38200  -0.37859  -0.37510  -0.37394
 Alpha  occ. eigenvalues --   -0.37354  -0.37110  -0.37037  -0.36773  -0.36601
 Alpha  occ. eigenvalues --   -0.36261  -0.36056  -0.34356  -0.34080  -0.33827
 Alpha  occ. eigenvalues --   -0.33684  -0.33255  -0.33005  -0.31402  -0.31135
 Alpha  occ. eigenvalues --   -0.31105  -0.30801  -0.30073  -0.29741  -0.29516
 Alpha  occ. eigenvalues --   -0.29383  -0.29165  -0.29022  -0.24151  -0.23860
 Alpha  occ. eigenvalues --   -0.21199  -0.20947
 Alpha virt. eigenvalues --   -0.08843  -0.08620  -0.01820  -0.01518  -0.00126
 Alpha virt. eigenvalues --    0.00129   0.02145   0.02400   0.03031   0.03384
 Alpha virt. eigenvalues --    0.04628   0.04895   0.05043   0.05350   0.06059

 Mulliken charges:
               1
     1  Mg   0.838619
     2  C   -0.003102
     3  C   -0.094721
     4  C   -0.045626
     5  C   -0.063917
     6  N   -0.256701
     7  C   -0.052676
     8  C   -0.013893
     9  C   -0.086908
    10  C    0.046099
    11  C    0.104804
    12  C    0.053734
    13  C   -0.071419
    14  H    0.035115
    15  N   -0.433142
    16  C    0.168252
    17  C   -0.177526
    18  C   -0.003934
    19  C    0.148708
    20  C    0.110277
    21  C    0.012545
    22  O   -0.249124
    23  C    0.062528
    24  N   -0.341087
    25  C    0.041117
    26  C   -0.028239
    27  C   -0.024015
    28  C    0.074832
    29  C    0.076089
    30  C    0.035143
    31  C   -0.004543
    32  N   -0.310559
    33  C    0.080494
    34  C   -0.169456
    35  C    0.008663
    36  C    0.083058
    37  C    0.127211
    38  C    0.046463
    39  O   -0.187573
    40  C   -0.005474
    41  C    0.213130
    42  O   -0.257166
    43  O   -0.304813
    44  C    0.157440
    45  H   -0.017757
    46  H   -0.016587
    47  H   -0.041345
    48  H    0.001212
    49  H   -0.004563
    50  H    0.025681
    51  H    0.016627
    52  H    0.016610
    53  H    0.010212
    54  H    0.043905
    55  H    0.018499
    56  H    0.017366
    57  H    0.005543
    58  H    0.027022
    59  H    0.038642
    60  H    0.037211
    61  H    0.036158
    62  H    0.030823
    63  H    0.016715
    64  H    0.009664
    65  H    0.023419
    66  H    0.012610
    67  H    0.004848
    68  H    0.006478
    69  H    0.004770
    70  H    0.009040
    71  H    0.017035
    72  H    0.029298
    73  H    0.048190
    74  H    0.009057
    75  H    0.046200
    76  H    0.035271
    77  H    0.043571
    78  H    0.045745
    79  H    0.054124
    80  Mg   0.838110
    81  C   -0.016315
    82  C   -0.088030
    83  C   -0.045508
    84  C   -0.064707
    85  N   -0.254542
    86  C   -0.048916
    87  C   -0.015165
    88  C   -0.090779
    89  C    0.046047
    90  C    0.114211
    91  C    0.062632
    92  C   -0.077483
    93  H    0.034361
    94  N   -0.423389
    95  C    0.162804
    96  C   -0.175320
    97  C   -0.008044
    98  C    0.151888
    99  C    0.099751
   100  C    0.015304
   101  O   -0.253318
   102  C    0.061372
   103  N   -0.349931
   104  C    0.037386
   105  C   -0.019748
   106  C   -0.034760
   107  C    0.089152
   108  C    0.073729
   109  C    0.034791
   110  C   -0.007592
   111  N   -0.324407
   112  C    0.079006
   113  C   -0.162466
   114  C    0.003300
   115  C    0.096230
   116  C    0.131077
   117  C    0.043564
   118  O   -0.187025
   119  C    0.000352
   120  C    0.210962
   121  O   -0.251545
   122  O   -0.305144
   123  C    0.152216
   124  H   -0.020845
   125  H   -0.015759
   126  H   -0.040607
   127  H    0.000089
   128  H   -0.005412
   129  H    0.026011
   130  H    0.014262
   131  H    0.014299
   132  H    0.013567
   133  H    0.037647
   134  H    0.020681
   135  H    0.018972
   136  H    0.007992
   137  H    0.024935
   138  H    0.039266
   139  H    0.037626
   140  H    0.036051
   141  H    0.033636
   142  H    0.014042
   143  H    0.012150
   144  H    0.024856
   145  H    0.012466
   146  H    0.005134
   147  H    0.005850
   148  H    0.003471
   149  H    0.010797
   150  H    0.017634
   151  H    0.030295
   152  H    0.045779
   153  H    0.007812
   154  H    0.049215
   155  H    0.037860
   156  H    0.043904
   157  H    0.048965
   158  H    0.053248
 Sum of Mulliken charges =  -0.00000

 Dipole moment (field-independent basis, Debye):
    X=             -4.1318    Y=             -1.9568    Z=             -7.4996  Tot=              8.7832
 Quadrupole moment (field-independent basis, Debye-Ang):
   XX=           -517.4526   YY=           -551.0943   ZZ=           -447.9458
   XY=             -5.3005   XZ=             -4.1122   YZ=            -48.0898

 Normal termination of Gaussian 16 at Fri Sep 10 23:32:18 2021.
