 Gaussian 16, Revision A.03,
 Gaussian 16:  ES64L-G16RevA.03 25-Dec-2016

 -----------------------------------
 #p cam-b3lyp/Def2SVP td=(nstates=5)
 -----------------------------------

 --------------------------------
 TDDFT excited states in gaussian
 --------------------------------
 Symbolic Z-matrix:
 Charge =  0 Multiplicity = 1

                         Standard orientation:
 ---------------------------------------------------------------------
 Center     Atomic      Atomic             Coordinates (Angstroms)
 Number     Number       Type             X           Y           Z
 ---------------------------------------------------------------------
      1         12           0       -3.530623    0.980923    0.041998
      2          6           0       -4.127734   -2.094056    1.774099
      3          6           0       -4.123672    2.586281    2.993978
      4          6           0       -3.456462    3.718487   -1.557023
      5          6           0       -4.103542   -0.751501   -2.927199
      6          7           0       -4.048473    0.231353    2.059576
      7          6           0       -4.188704   -0.972924    2.604757
      8          6           0       -4.331480   -0.936133    4.155768
      9          6           0       -4.879564    0.551709    4.322883
     10          6           0       -4.286862    1.171114    3.069502
     11          6           0       -6.399703    0.652899    4.249128
     12          6           0       -2.958336   -1.125993    4.883890
     13          6           0       -3.049674   -1.428127    6.382465
     14          1           0       -2.077045   -2.333950    6.974770
     15          7           0       -3.276779    2.832396    0.682670
     16          6           0       -3.555762    3.306355    1.920740
     17          6           0       -3.193991    4.740004    1.899409
     18          6           0       -2.860675    5.104319    0.494322
     19          6           0       -3.214495    3.890465   -0.196148
     20          6           0       -3.142265    5.593944    3.128987
     21          6           0       -2.320436    6.352509   -0.128812
     22          8           0       -2.323304    6.537418   -1.393871
     23          6           0       -1.862871    7.404178    0.797293
     24          7           0       -3.962378    1.480956   -1.938202
     25          6           0       -3.791923    2.729135   -2.387622
     26          6           0       -3.889132    2.788992   -3.883251
     27          6           0       -3.920872    1.273471   -4.385189
     28          6           0       -3.918368    0.568154   -3.006497
     29          6           0       -5.105037    3.538351   -4.445431
     30          6           0       -2.854932    0.856013   -5.429181
     31          6           0       -1.480114    0.888241   -4.799948
     32          7           0       -3.853578   -1.088666   -0.526813
     33          6           0       -4.093376   -1.580620   -1.817996
     34          6           0       -4.357899   -3.025299   -1.687623
     35          6           0       -4.269379   -3.271855   -0.318966
     36          6           0       -3.994561   -2.053272    0.365011
     37          6           0       -4.692873   -3.910394   -2.750088
     38          6           0       -4.367394   -4.276828    0.727111
     39          8           0       -4.489047   -5.502564    0.743376
     40          6           0       -4.400304   -3.533189    2.134856
     41          6           0       -3.420186   -4.229090    3.039511
     42          8           0       -2.194352   -4.183929    2.810034
     43          8           0       -4.051779   -4.632948    4.152404
     44          6           0       -3.129521   -5.305303    5.106098
     45          1           0       -4.518376    3.206917    3.800799
     46          1           0       -3.331213    4.620510   -2.159605
     47          1           0       -4.206775   -1.372822   -3.818691
     48          1           0       -5.051661   -1.646091    4.562859
     49          1           0       -4.476671    1.036343    5.212001
     50          1           0       -6.848963   -0.298424    3.964399
     51          1           0       -6.604578    1.411868    3.493823
     52          1           0       -6.807805    1.041307    5.182599
     53          1           0       -2.434910   -0.170553    4.918825
     54          1           0       -2.366468   -1.900793    4.395318
     55          1           0       -4.061944   -1.713033    6.670643
     56          1           0       -2.862338   -0.503934    6.929248
     57          1           0       -3.598094    5.094445    3.982957
     58          1           0       -3.782817    6.456230    2.944963
     59          1           0       -2.129621    5.929442    3.353321
     60          1           0       -2.691688    7.704309    1.438801
     61          1           0       -1.427084    8.184556    0.174437
     62          1           0       -1.100630    6.987255    1.456165
     63          1           0       -3.021587    3.289118   -4.311812
     64          1           0       -4.869855    1.018908   -4.857739
     65          1           0       -4.843058    4.358621   -5.114183
     66          1           0       -5.699989    3.894011   -3.604699
     67          1           0       -5.825251    2.911782   -4.970902
     68          1           0       -2.843402    1.559170   -6.261276
     69          1           0       -3.021094   -0.140264   -5.839148
     70          1           0       -1.196866    1.936547   -4.887449
     71          1           0       -0.792281    0.250262   -5.355897
     72          1           0       -1.523118    0.649958   -3.737000
     73          1           0       -4.110918   -4.817336   -2.586516
     74          1           0       -4.470428   -3.466580   -3.720217
     75          1           0       -5.762836   -4.031900   -2.581947
     76          1           0       -5.422515   -3.607173    2.504630
     77          1           0       -3.546059   -6.290804    5.314707
     78          1           0       -3.000450   -4.622411    5.945981
     79          1           0       -2.146984   -5.575244    4.717391
     80         12           0        4.319853   -0.117808   -0.127567
     81          6           0        1.652025   -1.845380   -1.794073
     82          6           0        2.744406    2.794884   -0.945370
     83          6           0        6.870214    1.443610    0.933119
     84          6           0        6.214759   -3.025449   -0.444816
     85          7           0        2.445871    0.292173   -1.228637
     86          6           0        1.483556   -0.445372   -1.761849
     87          6           0        0.235821    0.357440   -2.218163
     88          6           0        0.933953    1.788392   -2.427593
     89          6           0        2.097008    1.638481   -1.449072
     90          6           0        1.505202    1.980911   -3.822573
     91          6           0       -0.874591    0.416590   -1.111138
     92          6           0       -2.238072    0.916129   -1.593984
     93          1           0       -3.441002    0.332955   -1.006322
     94          7           0        4.530519    1.779719    0.414286
     95          6           0        3.789742    2.830317    0.003491
     96          6           0        4.357692    4.009912    0.674432
     97          6           0        5.596739    3.593662    1.385904
     98          6           0        5.728083    2.230774    0.911181
     99          6           0        3.685674    5.352214    0.667499
    100          6           0        6.518848    4.308536    2.326585
    101          8           0        7.666505    3.830221    2.637883
    102          6           0        6.078371    5.629169    2.799247
    103          7           0        6.330233   -0.629547    0.009673
    104          6           0        7.222282    0.213506    0.558712
    105          6           0        8.545114   -0.473603    0.800361
    106          6           0        8.280269   -2.025871    0.521268
    107          6           0        6.808132   -1.952467    0.059925
    108          6           0        9.711624    0.006623   -0.062783
    109          6           0        8.650197   -3.018333    1.657425
    110          6           0        7.731623   -2.814010    2.840583
    111          7           0        3.962442   -2.142548   -0.791460
    112          6           0        4.902082   -3.193986   -0.866555
    113          6           0        4.216937   -4.346717   -1.486421
    114          6           0        2.922621   -3.874859   -1.752081
    115          6           0        2.815129   -2.517209   -1.346221
    116          6           0        4.808346   -5.608685   -1.775878
    117          6           0        1.625996   -4.213310   -2.293309
    118          8           0        1.099711   -5.245816   -2.706454
    119          6           0        0.783406   -2.875959   -2.460431
    120          6           0       -0.586156   -3.115039   -1.886267
    121          8           0       -0.733552   -3.324564   -0.669315
    122          8           0       -1.511071   -2.842673   -2.824723
    123          6           0       -2.886180   -3.054359   -2.299288
    124          1           0        2.454402    3.767207   -1.344575
    125          1           0        7.749430    1.901154    1.392591
    126          1           0        6.707897   -3.998868   -0.488790
    127          1           0       -0.206503    0.019917   -3.147781
    128          1           0        0.277245    2.597337   -2.118254
    129          1           0        1.451452    1.075377   -4.408451
    130          1           0        2.535759    2.278633   -3.679928
    131          1           0        1.013994    2.823220   -4.318124
    132          1           0       -0.625621    1.211481   -0.396371
    133          1           0       -0.987611   -0.537209   -0.633516
    134          1           0       -2.310149    0.924295   -2.688368
    135          1           0       -2.343173    1.966209   -1.310616
    136          1           0        2.877958    5.393862   -0.073611
    137          1           0        4.423193    6.077191    0.306485
    138          1           0        3.345532    5.658096    1.659177
    139          1           0        5.921676    6.284430    1.945693
    140          1           0        6.826159    5.942213    3.530467
    141          1           0        5.106588    5.517786    3.293065
    142          1           0        8.862648   -0.350588    1.828538
    143          1           0        8.861296   -2.390168   -0.338690
    144          1           0       10.576109    0.361035    0.529781
    145          1           0        9.352356    0.789811   -0.717056
    146          1           0       10.095665   -0.726881   -0.769680
    147          1           0        9.664447   -2.823956    2.014727
    148          1           0        8.610102   -4.058644    1.352246
    149          1           0        8.195001   -1.976767    3.371062
    150          1           0        7.702376   -3.707068    3.461562
    151          1           0        6.736988   -2.487952    2.514930
    152          1           0        4.093294   -6.363535   -1.476882
    153          1           0        5.757157   -5.731324   -1.257725
    154          1           0        4.939909   -5.518926   -2.857499
    155          1           0        0.745966   -2.643269   -3.525331
    156          1           0       -3.381685   -3.758089   -2.975266
    157          1           0       -3.330144   -2.045154   -2.209003
    158          1           0       -2.986504   -3.566936   -1.349736
 ---------------------------------------------------------------------

 SCF Done:  E(RCAM-B3LYP) =  -4068.90740347     A.U. after   25 cycles

 Excitation energies and oscillator strengths:

 Excited State   1:      Singlet-A      0.4651 eV 2665.97 nm  f=0.0112  <S**2>=0.000
     308 -> 314        0.13216
     312 -> 313       -0.10248
     312 -> 314        0.66747
     312 -> 315       -0.13647
 This state for optimization and/or second-order correction.
 Total Energy, E(TD-HF/TD-DFT) =  -4068.89031276
 Copying the excited state density for this state as the 1-particle RhoCI density.

 Excited State   2:      Singlet-A      1.3496 eV  918.70 nm  f=0.0686  <S**2>=0.000
     310 -> 314       -0.13423
     310 -> 315        0.16352
     311 -> 313        0.10091
     312 -> 313        0.11817
     312 -> 314        0.14361
     312 -> 315        0.63008

 Excited State   3:      Singlet-A      1.4293 eV  867.44 nm  f=0.0077  <S**2>=0.000
     312 -> 313        0.68749
     312 -> 315       -0.12895

 Excited State   4:      Singlet-A      1.5943 eV  777.68 nm  f=0.0013  <S**2>=0.000
     310 -> 313       -0.10263
     310 -> 314        0.61780
     310 -> 315        0.19110
     311 -> 313        0.11230
     311 -> 314        0.14719

 Excited State   5:      Singlet-A      1.6609 eV  746.49 nm  f=0.3717  <S**2>=0.000
     309 -> 316        0.16289
     311 -> 313        0.66255

 The electronic state is 1-A.
 Alpha  occ. eigenvalues --  -46.88265 -46.87458 -19.29580 -19.26023 -19.21344
 Alpha  occ. eigenvalues --  -19.18648 -19.18568 -19.18503 -19.18344 -19.16785
 Alpha  occ. eigenvalues --  -14.43702 -14.42130 -14.41220 -14.40722 -14.40380
 Alpha  occ. eigenvalues --  -14.39166 -14.38468 -14.37685 -10.40774 -10.38758
 Alpha  occ. eigenvalues --  -10.37933 -10.36983 -10.35348 -10.35239 -10.34594
 Alpha  occ. eigenvalues --  -10.33486 -10.32819 -10.32114 -10.32104 -10.31976
 Alpha  occ. eigenvalues --  -10.31488 -10.31420 -10.31070 -10.30736 -10.30268
 Alpha  occ. eigenvalues --  -10.30213 -10.29951 -10.29785 -10.29310 -10.29253
 Alpha  occ. eigenvalues --  -10.29250 -10.28845 -10.28646 -10.28356 -10.28304
 Alpha  occ. eigenvalues --  -10.28097 -10.27991 -10.27917 -10.27904 -10.27893
 Alpha  occ. eigenvalues --  -10.27862 -10.27573 -10.27572 -10.27475 -10.27435
 Alpha  occ. eigenvalues --  -10.27391 -10.27336 -10.27332 -10.27321 -10.27302
 Alpha  occ. eigenvalues --  -10.27264 -10.27108 -10.27051 -10.26531 -10.26252
 Alpha  occ. eigenvalues --  -10.26228 -10.26022 -10.26003 -10.25979 -10.25807
 Alpha  occ. eigenvalues --  -10.25789 -10.25600 -10.25538 -10.25302 -10.25261
 Alpha  occ. eigenvalues --  -10.25258 -10.25256 -10.25220 -10.24959 -10.24847
 Alpha  occ. eigenvalues --  -10.24788 -10.24735 -10.24606 -10.24567 -10.24390
 Alpha  occ. eigenvalues --  -10.23581  -3.18630  -3.16207  -1.93853  -1.92979
 Alpha  occ. eigenvalues --   -1.92709  -1.91089  -1.90676  -1.90516  -1.19911
 Alpha  occ. eigenvalues --   -1.16362  -1.15822  -1.09372  -1.09104  -1.08587
 Alpha  occ. eigenvalues --   -1.06827  -1.06819  -1.06301  -1.05297  -1.04381
 Alpha  occ. eigenvalues --   -1.04226  -1.03454  -1.02967  -1.02898  -1.01969
 Alpha  occ. eigenvalues --   -1.01047  -0.96781  -0.92143  -0.91300  -0.90476
 Alpha  occ. eigenvalues --   -0.89845  -0.89411  -0.88792  -0.88403  -0.88118
 Alpha  occ. eigenvalues --   -0.87719  -0.87538  -0.87399  -0.86918  -0.85636
 Alpha  occ. eigenvalues --   -0.85024  -0.84925  -0.84236  -0.84007  -0.83676
 Alpha  occ. eigenvalues --   -0.82790  -0.82565  -0.82150  -0.81498  -0.81254
 Alpha  occ. eigenvalues --   -0.80812  -0.80373  -0.78516  -0.78368  -0.78130
 Alpha  occ. eigenvalues --   -0.77382  -0.76776  -0.76446  -0.76130  -0.75780
 Alpha  occ. eigenvalues --   -0.75041  -0.74608  -0.73521  -0.72732  -0.72473
 Alpha  occ. eigenvalues --   -0.71665  -0.70490  -0.70172  -0.69905  -0.69548
 Alpha  occ. eigenvalues --   -0.68672  -0.67726  -0.67493  -0.67016  -0.66393
 Alpha  occ. eigenvalues --   -0.65727  -0.65492  -0.65365  -0.64964  -0.64538
 Alpha  occ. eigenvalues --   -0.64158  -0.64089  -0.63750  -0.63110  -0.62853
 Alpha  occ. eigenvalues --   -0.62017  -0.61115  -0.60186  -0.59871  -0.59420
 Alpha  occ. eigenvalues --   -0.59201  -0.58751  -0.58612  -0.58367  -0.58013
 Alpha  occ. eigenvalues --   -0.57694  -0.57438  -0.57178  -0.57071  -0.56698
 Alpha  occ. eigenvalues --   -0.56198  -0.55987  -0.55710  -0.55248  -0.54991
 Alpha  occ. eigenvalues --   -0.54756  -0.54381  -0.54326  -0.54202  -0.54172
 Alpha  occ. eigenvalues --   -0.53609  -0.53462  -0.53314  -0.52972  -0.52851
 Alpha  occ. eigenvalues --   -0.52693  -0.52388  -0.52311  -0.52209  -0.51933
 Alpha  occ. eigenvalues --   -0.51798  -0.51543  -0.51372  -0.51090  -0.51043
 Alpha  occ. eigenvalues --   -0.50610  -0.50504  -0.50339  -0.50106  -0.49932
 Alpha  occ. eigenvalues --   -0.49756  -0.49640  -0.49254  -0.49199  -0.49019
 Alpha  occ. eigenvalues --   -0.48824  -0.48646  -0.48494  -0.48349  -0.48297
 Alpha  occ. eigenvalues --   -0.48186  -0.48097  -0.47984  -0.47786  -0.47533
 Alpha  occ. eigenvalues --   -0.47223  -0.47130  -0.47066  -0.46695  -0.46518
 Alpha  occ. eigenvalues --   -0.46426  -0.46251  -0.46020  -0.45845  -0.45665
 Alpha  occ. eigenvalues --   -0.45617  -0.45356  -0.45020  -0.44804  -0.44789
 Alpha  occ. eigenvalues --   -0.44569  -0.44433  -0.44329  -0.44198  -0.44030
 Alpha  occ. eigenvalues --   -0.43899  -0.43694  -0.43605  -0.43494  -0.43361
 Alpha  occ. eigenvalues --   -0.43158  -0.42861  -0.42687  -0.42493  -0.42404
 Alpha  occ. eigenvalues --   -0.42326  -0.42276  -0.41990  -0.41672  -0.41517
 Alpha  occ. eigenvalues --   -0.41390  -0.41126  -0.41002  -0.40867  -0.40763
 Alpha  occ. eigenvalues --   -0.40618  -0.40503  -0.40407  -0.40380  -0.39836
 Alpha  occ. eigenvalues --   -0.39800  -0.39632  -0.39271  -0.38997  -0.38712
 Alpha  occ. eigenvalues --   -0.38467  -0.38053  -0.37760  -0.37621  -0.37189
 Alpha  occ. eigenvalues --   -0.37057  -0.36975  -0.36400  -0.36198  -0.35544
 Alpha  occ. eigenvalues --   -0.35182  -0.34840  -0.34417  -0.34017  -0.33271
 Alpha  occ. eigenvalues --   -0.33005  -0.31928  -0.31149  -0.31035  -0.30862
 Alpha  occ. eigenvalues --   -0.30710  -0.30296  -0.29538  -0.29423  -0.29229
 Alpha  occ. eigenvalues --   -0.29088  -0.27105  -0.26342  -0.23920  -0.22369
 Alpha  occ. eigenvalues --   -0.20879  -0.17852
 Alpha virt. eigenvalues --   -0.08673  -0.08155  -0.05979  -0.01495  -0.00652
 Alpha virt. eigenvalues --    0.00139   0.01247   0.02144   0.03466   0.03518
 Alpha virt. eigenvalues --    0.04247   0.04927   0.05147   0.05440   0.05750

 Mulliken charges:
               1
     1  Mg   0.583586
     2  C   -0.040731
     3  C   -0.111657
     4  C   -0.031960
     5  C   -0.039000
     6  N   -0.271723
     7  C   -0.025645
     8  C   -0.019657
     9  C   -0.080839
    10  C    0.044568
    11  C    0.107326
    12  C    0.052294
    13  C   -0.071016
    14  H    0.034651
    15  N   -0.420226
    16  C    0.151210
    17  C   -0.198413
    18  C   -0.013010
    19  C    0.124152
    20  C    0.115139
    21  C   -0.002356
    22  O   -0.268585
    23  C    0.066777
    24  N   -0.330342
    25  C   -0.020881
    26  C    0.013637
    27  C   -0.024113
    28  C    0.024274
    29  C    0.089473
    30  C    0.080020
    31  C   -0.051374
    32  N   -0.288860
    33  C    0.499892
    34  C   -0.496777
    35  C   -0.010055
    36  C    0.129525
    37  C    0.456531
    38  C    0.041299
    39  O   -0.189733
    40  C   -0.001354
    41  C    0.210081
    42  O   -0.245561
    43  O   -0.306719
    44  C    0.158070
    45  H   -0.029427
    46  H   -0.022087
    47  H   -0.050220
    48  H   -0.000453
    49  H   -0.005649
    50  H    0.015628
    51  H    0.017846
    52  H    0.012791
    53  H    0.017205
    54  H    0.045893
    55  H    0.016971
    56  H    0.019479
    57  H   -0.003514
    58  H    0.013916
    59  H    0.024423
    60  H    0.036338
    61  H    0.024893
    62  H    0.025143
    63  H    0.006365
    64  H    0.009200
    65  H    0.020613
    66  H    0.017080
    67  H   -0.003477
    68  H    0.006536
    69  H   -0.000903
    70  H    0.014936
    71  H    0.017725
    72  H    0.102903
    73  H    0.052602
    74  H    0.024059
    75  H    0.020264
    76  H    0.033523
    77  H    0.041469
    78  H    0.046938
    79  H    0.055173
    80  Mg   0.839913
    81  C   -0.019936
    82  C   -0.085358
    83  C   -0.045631
    84  C   -0.064528
    85  N   -0.259105
    86  C   -0.027903
    87  C   -0.033414
    88  C   -0.096194
    89  C    0.051868
    90  C    0.119231
    91  C    0.202116
    92  C   -0.220363
    93  H    0.146887
    94  N   -0.423546
    95  C    0.163723
    96  C   -0.173166
    97  C   -0.007657
    98  C    0.152773
    99  C    0.097645
   100  C    0.015668
   101  O   -0.253464
   102  C    0.061270
   103  N   -0.349808
   104  C    0.037807
   105  C   -0.019943
   106  C   -0.034404
   107  C    0.087970
   108  C    0.073775
   109  C    0.034867
   110  C   -0.007672
   111  N   -0.323452
   112  C    0.077636
   113  C   -0.162251
   114  C    0.001375
   115  C    0.097548
   116  C    0.131116
   117  C    0.048099
   118  O   -0.192070
   119  C    0.000069
   120  C    0.237345
   121  O   -0.218629
   122  O   -0.266273
   123  C    0.253290
   124  H   -0.013477
   125  H   -0.015690
   126  H   -0.041220
   127  H   -0.019789
   128  H    0.014103
   129  H    0.016593
   130  H    0.011465
   131  H    0.021998
   132  H    0.028644
   133  H    0.052362
   134  H   -0.081111
   135  H    0.113816
   136  H    0.016236
   137  H    0.026284
   138  H    0.040039
   139  H    0.038955
   140  H    0.035921
   141  H    0.034370
   142  H    0.014303
   143  H    0.011731
   144  H    0.024947
   145  H    0.011687
   146  H    0.005330
   147  H    0.005739
   148  H    0.003233
   149  H    0.010659
   150  H    0.017576
   151  H    0.030955
   152  H    0.045933
   153  H    0.008802
   154  H    0.045288
   155  H    0.034857
   156  H   -0.015407
   157  H   -0.294974
   158  H    0.066518
 Sum of Mulliken charges =  -0.00000

 Dipole moment (field-independent basis, Debye):
    X=             -1.9199    Y=             -0.0863    Z=             -2.2067  Tot=              2.9263
 Quadrupole moment (field-independent basis, Debye-Ang):
   XX=           -495.0401   YY=           -549.4550   ZZ=           -471.5310
   XY=             -4.3542   XZ=              2.3714   YZ=              9.9479

 Normal termination of Gaussian 16 at Wed Sep  8 23:42:54 2021.
