 Gaussian 16, Revision A.03,
 Gaussian 16:  ES64L-G16RevA.03 25-Dec-2016

 -----------------------------------
 #p cam-b3lyp/Def2SVP td=(nstates=5)
 -----------------------------------

 --------------------------------
 TDDFT excited states in gaussian
 --------------------------------
 Symbolic Z-matrix:
 Charge =  0 Multiplicity = 1

                         Standard orientation:
 ---------------------------------------------------------------------
 Center     Atomic      Atomic             Coordinates (Angstroms)
 Number     Number       Type             X           Y           Z
 ---------------------------------------------------------------------
      1         12           0       -7.858255   -0.734120   -0.081566
      2          6           0       -8.069561    2.699879    0.905964
      3          6           0       -8.666481    0.278492   -3.238218
      4          6           0       -8.123545   -3.792313   -0.877618
      5          6           0       -8.190316   -1.569580    3.285540
      6          7           0       -8.287768    1.263402   -0.933663
      7          6           0       -8.276934    2.506042   -0.461541
      8          6           0       -8.431708    3.589579   -1.570309
      9          6           0       -9.165178    2.710949   -2.680277
     10          6           0       -8.649073    1.338868   -2.284105
     11          6           0      -10.685435    2.718385   -2.556728
     12          6           0       -7.049575    4.119843   -2.080466
     13          6           0       -7.110008    5.399674   -2.919355
     14          1           0       -6.033491    6.370627   -2.794020
     15          7           0       -7.845061   -1.601823   -1.856324
     16          6           0       -8.188735   -1.034671   -3.037643
     17          6           0       -8.011815   -2.086743   -4.061618
     18          6           0       -7.719774   -3.364864   -3.355070
     19          6           0       -7.912821   -2.971174   -1.982802
     20          6           0       -8.075662   -1.820620   -5.534321
     21          6           0       -7.338993   -4.727821   -3.840339
     22          8           0       -7.358396   -5.752135   -3.075500
     23          6           0       -7.023738   -4.849958   -5.275170
     24          7           0       -8.339168   -2.448532    1.007999
     25          6           0       -8.326121   -3.656836    0.434577
     26          6           0       -8.421961   -4.748393    1.458909
     27          6           0       -8.258268   -4.037359    2.879257
     28          6           0       -8.173770   -2.567500    2.399001
     29          6           0       -9.720079   -5.567356    1.444762
     30          6           0       -7.142254   -4.574488    3.810076
     31          6           0       -5.786118   -4.270141    3.213949
     32          7           0       -7.912699    0.343389    1.801797
     33          6           0       -8.081024   -0.204134    3.081859
     34          6           0       -8.160681    0.924452    4.027384
     35          6           0       -8.049059    2.057937    3.224517
     36          6           0       -7.934938    1.663124    1.860922
     37          6           0       -8.374742    0.822728    5.430332
     38          6           0       -8.024398    3.511413    3.198885
     39          8           0       -7.989518    4.393392    4.058180
     40          6           0       -8.159163    3.988223    1.685505
     41          6           0       -7.103581    5.032179    1.442171
     42          8           0       -5.892167    4.732857    1.457915
     43          8           0       -7.684862    6.156994    0.997821
     44          6           0       -6.689928    7.224087    0.708733
     45          1           0       -9.141202    0.447635   -4.206708
     46          1           0       -8.110547   -4.862195   -1.095843
     47          1           0       -8.208943   -1.755352    4.360991
     48          1           0       -9.058131    4.437537   -1.292846
     49          1           0       -8.831952    2.965201   -3.686278
     50          1           0      -11.008702    3.223070   -1.646391
     51          1           0      -10.980886    1.669212   -2.535784
     52          1           0      -11.144652    3.141203   -3.450664
     53          1           0       -6.651899    3.429211   -2.824067
     54          1           0       -6.361455    4.267037   -1.247309
     55          1           0       -8.079471    5.890384   -2.828501
     56          1           0       -7.044530    5.121889   -3.971376
     57          1           0       -8.469044   -0.826946   -5.745054
     58          1           0       -8.819500   -2.500765   -5.948828
     59          1           0       -7.115057   -1.984341   -6.022955
     60          1           0       -7.887452   -4.535571   -5.861436
     61          1           0       -6.687165   -5.875510   -5.422858
     62          1           0       -6.218344   -4.156875   -5.519966
     63          1           0       -7.622609   -5.476974    1.329941
     64          1           0       -9.164648   -4.111466    3.480636
     65          1           0       -9.560718   -6.638429    1.317825
     66          1           0      -10.359965   -5.171105    0.656839
     67          1           0      -10.352020   -5.437538    2.322950
     68          1           0       -7.215547   -5.657411    3.904164
     69          1           0       -7.178326   -4.151170    4.813944
     70          1           0       -5.637795   -5.091901    2.514275
     71          1           0       -5.019816   -4.274849    3.989816
     72          1           0       -5.804334   -3.347397    2.633691
     73          1           0       -7.683245    1.524773    5.896093
     74          1           0       -8.205147   -0.193987    5.784072
     75          1           0       -9.421521    1.118841    5.496874
     76          1           0       -9.165714    4.389511    1.571731
     77          1           0       -6.979098    8.098896    1.291249
     78          1           0       -6.653208    7.327934   -0.375828
     79          1           0       -5.678958    7.054127    1.080742
     80         12           0        8.021107   -0.784801    0.231987
     81          6           0        7.838339    2.750860   -0.355164
     82          6           0        7.208804   -1.221091   -3.051978
     83          6           0        7.731915   -3.889551    0.818753
     84          6           0        7.687252   -0.096968    3.632143
     85          7           0        7.602762    0.656417   -1.392874
     86          6           0        7.623391    1.975270   -1.513473
     87          6           0        7.480970    2.490169   -2.970919
     88          6           0        6.729692    1.219182   -3.602638
     89          6           0        7.234619    0.138051   -2.649289
     90          6           0        5.216624    1.293365   -3.482329
     91          6           0        8.870771    2.735294   -3.656754
     92          6           0        8.811653    3.527335   -4.964769
     93          1           0        9.902655    4.448584   -5.270540
     94          7           0        8.025034   -2.332418   -1.010373
     95          6           0        7.688616   -2.327609   -2.317305
     96          6           0        7.838044   -3.717253   -2.776327
     97          6           0        8.131212   -4.572713   -1.594391
     98          6           0        7.949541   -3.613651   -0.523286
     99          6           0        7.780320   -4.106345   -4.225020
    100          6           0        8.499914   -6.018293   -1.450974
    101          8           0        8.475886   -6.609728   -0.314115
    102          6           0        8.799525   -6.744838   -2.693491
    103          7           0        7.537524   -1.856655    1.946521
    104          6           0        7.533469   -3.201228    1.943093
    105          6           0        7.428918   -3.749971    3.346077
    106          6           0        7.607890   -2.490028    4.314635
    107          6           0        7.699858   -1.368591    3.256665
    108          6           0        6.123173   -4.469446    3.683392
    109          6           0        8.723065   -2.583216    5.391837
    110          6           0       10.081778   -2.587455    4.729052
    111          7           0        7.986536    0.989886    1.463795
    112          6           0        7.810742    1.053375    2.863493
    113          6           0        7.743796    2.483063    3.229457
    114          6           0        7.863143    3.157153    2.004771
    115          6           0        7.974879    2.213850    0.947800
    116          6           0        7.543765    2.997419    4.541537
    117          6           0        7.909342    4.452079    1.364671
    118          8           0        7.947101    5.616199    1.761085
    119          6           0        7.768269    4.245230   -0.204939
    120          6           0        8.831804    5.067819   -0.879292
    121          8           0       10.035229    4.796031   -0.722673
    122          8           0        8.251394    5.897880   -1.765006
    123          6           0        9.266717    6.727083   -2.467410
    124          1           0        6.738600   -1.471493   -4.003348
    125          1           0        7.734963   -4.948056    1.089030
    126          1           0        7.682551    0.201486    4.682659
    127          1           0        6.868519    3.376983   -3.081586
    128          1           0        7.069689    1.022900   -4.616160
    129          1           0        4.900792    2.135460   -2.884613
    130          1           0        4.912573    0.364465   -3.017843
    131          1           0        4.759223    1.297386   -4.475856
    132          1           0        9.257851    1.779638   -4.033116
    133          1           0        9.552398    3.209490   -2.977664
    134          1           0        7.841882    4.020181   -5.104734
    135          1           0        8.878191    2.824874   -5.799120
    136          1           0        7.387341   -3.291190   -4.845103
    137          1           0        7.030845   -4.900304   -4.313241
    138          1           0        8.736036   -4.479326   -4.599392
    139          1           0        7.937995   -6.698910   -3.355391
    140          1           0        9.127811   -7.737602   -2.379601
    141          1           0        9.619978   -6.233087   -3.208854
    142          1           0        8.222177   -4.460500    3.543532
    143          1           0        6.698273   -2.294688    4.901381
    144          1           0        6.274794   -5.508505    4.031884
    145          1           0        5.487282   -4.450847    2.808273
    146          1           0        5.503355   -3.975705    4.429883
    147          1           0        8.642259   -3.525037    5.940104
    148          1           0        8.686564   -1.781475    6.121815
    149          1           0       10.215549   -3.636118    4.447116
    150          1           0       10.850390   -2.265764    5.428909
    151          1           0       10.071129   -1.996650    3.805750
    152          1           0        8.235361    3.820625    4.662030
    153          1           0        7.701380    2.230856    5.297385
    154          1           0        6.494952    3.298839    4.475065
    155          1           0        6.764038    4.562768   -0.488268
    156          1           0        8.983282    7.773546   -2.318206
    157          1           0        9.288102    6.354565   -3.508812
    158          1           0       10.276383    6.723238   -2.073677
 ---------------------------------------------------------------------

 SCF Done:  E(RCAM-B3LYP) =  -4069.81169170     A.U. after   19 cycles

 Excitation energies and oscillator strengths:

 Excited State   1:      Singlet-A      1.6704 eV  742.23 nm  f=0.0562  <S**2>=0.000
     309 -> 315       -0.10298
     310 -> 316        0.13850
     311 -> 313       -0.40813
     312 -> 314        0.55177
 This state for optimization and/or second-order correction.
 Total Energy, E(TD-HF/TD-DFT) =  -4069.75030482
 Copying the excited state density for this state as the 1-particle RhoCI density.

 Excited State   2:      Singlet-A      1.6845 eV  736.01 nm  f=0.6984  <S**2>=0.000
     309 -> 315        0.14205
     310 -> 316        0.10464
     311 -> 313        0.55101
     312 -> 314        0.40767

 Excited State   3:      Singlet-A      2.1856 eV  567.28 nm  f=0.0652  <S**2>=0.000
     309 -> 313       -0.12913
     310 -> 314        0.62956
     312 -> 316       -0.26731

 Excited State   4:      Singlet-A      2.1925 eV  565.49 nm  f=0.1295  <S**2>=0.000
     309 -> 313        0.62771
     310 -> 314        0.12818
     311 -> 315       -0.27262

 Excited State   5:      Singlet-A      2.7654 eV  448.35 nm  f=0.0000  <S**2>=0.000
     312 -> 313        0.70710

 The electronic state is 1-A.
 Alpha  occ. eigenvalues --  -46.87834 -46.87590 -19.26295 -19.26292 -19.19103
 Alpha  occ. eigenvalues --  -19.19032 -19.18863 -19.18654 -19.18194 -19.17975
 Alpha  occ. eigenvalues --  -14.42487 -14.42429 -14.41485 -14.41288 -14.39441
 Alpha  occ. eigenvalues --  -14.39283 -14.38622 -14.38527 -10.39093 -10.39032
 Alpha  occ. eigenvalues --  -10.35498 -10.35332 -10.34414 -10.34153 -10.31712
 Alpha  occ. eigenvalues --  -10.31677 -10.31439 -10.31239 -10.30960 -10.30947
 Alpha  occ. eigenvalues --  -10.30605 -10.30543 -10.30325 -10.30288 -10.30246
 Alpha  occ. eigenvalues --  -10.30071 -10.29954 -10.29819 -10.29668 -10.29367
 Alpha  occ. eigenvalues --  -10.29330 -10.29294 -10.28783 -10.28664 -10.28624
 Alpha  occ. eigenvalues --  -10.28573 -10.28401 -10.28335 -10.28151 -10.28083
 Alpha  occ. eigenvalues --  -10.27928 -10.27829 -10.27764 -10.27624 -10.27602
 Alpha  occ. eigenvalues --  -10.27536 -10.27534 -10.27482 -10.27444 -10.27438
 Alpha  occ. eigenvalues --  -10.27416 -10.27414 -10.27398 -10.27303 -10.27181
 Alpha  occ. eigenvalues --  -10.26978 -10.26742 -10.26649 -10.26474 -10.26366
 Alpha  occ. eigenvalues --  -10.26265 -10.26216 -10.26070 -10.26055 -10.25963
 Alpha  occ. eigenvalues --  -10.25869 -10.25861 -10.25754 -10.25465 -10.25319
 Alpha  occ. eigenvalues --  -10.24867 -10.24824 -10.24798 -10.24722 -10.24669
 Alpha  occ. eigenvalues --  -10.24619  -3.16577  -3.16339  -1.91458  -1.91222
 Alpha  occ. eigenvalues --   -1.91045  -1.90887  -1.90810  -1.90647  -1.16642
 Alpha  occ. eigenvalues --   -1.16588  -1.08650  -1.08582  -1.07265  -1.06907
 Alpha  occ. eigenvalues --   -1.06887  -1.06654  -1.04617  -1.04427  -1.03797
 Alpha  occ. eigenvalues --   -1.03593  -1.03270  -1.02967  -1.02447  -1.02040
 Alpha  occ. eigenvalues --   -0.92004  -0.91916  -0.89554  -0.89424  -0.89222
 Alpha  occ. eigenvalues --   -0.89093  -0.88321  -0.88149  -0.87903  -0.87714
 Alpha  occ. eigenvalues --   -0.87709  -0.87617  -0.87320  -0.87058  -0.85018
 Alpha  occ. eigenvalues --   -0.84941  -0.83968  -0.83806  -0.83015  -0.82872
 Alpha  occ. eigenvalues --   -0.82684  -0.82594  -0.81609  -0.81533  -0.80628
 Alpha  occ. eigenvalues --   -0.80379  -0.78838  -0.78568  -0.77254  -0.77081
 Alpha  occ. eigenvalues --   -0.76963  -0.76837  -0.75952  -0.75776  -0.74929
 Alpha  occ. eigenvalues --   -0.74733  -0.72809  -0.72627  -0.71705  -0.71513
 Alpha  occ. eigenvalues --   -0.69940  -0.69689  -0.68909  -0.68767  -0.67676
 Alpha  occ. eigenvalues --   -0.67535  -0.67259  -0.67146  -0.65320  -0.65212
 Alpha  occ. eigenvalues --   -0.64884  -0.64703  -0.64651  -0.64591  -0.64303
 Alpha  occ. eigenvalues --   -0.64134  -0.62317  -0.62216  -0.60484  -0.60274
 Alpha  occ. eigenvalues --   -0.59839  -0.59734  -0.59020  -0.58924  -0.58536
 Alpha  occ. eigenvalues --   -0.58357  -0.57608  -0.57485  -0.57342  -0.57168
 Alpha  occ. eigenvalues --   -0.56345  -0.56136  -0.55998  -0.55829  -0.55559
 Alpha  occ. eigenvalues --   -0.55390  -0.55367  -0.55179  -0.54547  -0.54423
 Alpha  occ. eigenvalues --   -0.53929  -0.53856  -0.53337  -0.53259  -0.53161
 Alpha  occ. eigenvalues --   -0.53081  -0.52943  -0.52841  -0.52800  -0.52612
 Alpha  occ. eigenvalues --   -0.52471  -0.52334  -0.51944  -0.51798  -0.51654
 Alpha  occ. eigenvalues --   -0.51602  -0.51226  -0.51133  -0.50625  -0.50419
 Alpha  occ. eigenvalues --   -0.50067  -0.49961  -0.49919  -0.49799  -0.49552
 Alpha  occ. eigenvalues --   -0.49427  -0.49248  -0.49138  -0.49128  -0.49039
 Alpha  occ. eigenvalues --   -0.48620  -0.48500  -0.48494  -0.48478  -0.48305
 Alpha  occ. eigenvalues --   -0.48278  -0.47731  -0.47533  -0.47333  -0.47054
 Alpha  occ. eigenvalues --   -0.46831  -0.46643  -0.46590  -0.46497  -0.46393
 Alpha  occ. eigenvalues --   -0.46202  -0.46191  -0.46013  -0.45846  -0.45752
 Alpha  occ. eigenvalues --   -0.45234  -0.45138  -0.44606  -0.44548  -0.44449
 Alpha  occ. eigenvalues --   -0.44414  -0.44180  -0.44123  -0.44063  -0.44052
 Alpha  occ. eigenvalues --   -0.44013  -0.43877  -0.43518  -0.43492  -0.43420
 Alpha  occ. eigenvalues --   -0.43321  -0.43059  -0.42870  -0.42832  -0.42723
 Alpha  occ. eigenvalues --   -0.42677  -0.42486  -0.42042  -0.41901  -0.41736
 Alpha  occ. eigenvalues --   -0.41600  -0.41569  -0.41400  -0.41174  -0.40923
 Alpha  occ. eigenvalues --   -0.40905  -0.40869  -0.40666  -0.40641  -0.40604
 Alpha  occ. eigenvalues --   -0.40425  -0.40272  -0.40179  -0.39475  -0.39358
 Alpha  occ. eigenvalues --   -0.38503  -0.38283  -0.37783  -0.37602  -0.37355
 Alpha  occ. eigenvalues --   -0.37299  -0.37198  -0.37137  -0.36732  -0.36712
 Alpha  occ. eigenvalues --   -0.36219  -0.36151  -0.34321  -0.34183  -0.33802
 Alpha  occ. eigenvalues --   -0.33787  -0.33220  -0.33105  -0.31392  -0.31212
 Alpha  occ. eigenvalues --   -0.31071  -0.30904  -0.30053  -0.29880  -0.29489
 Alpha  occ. eigenvalues --   -0.29356  -0.29258  -0.29136  -0.24116  -0.23965
 Alpha  occ. eigenvalues --   -0.21164  -0.21047
 Alpha virt. eigenvalues --   -0.08811  -0.08721  -0.01787  -0.01614  -0.00099
 Alpha virt. eigenvalues --    0.00036   0.02169   0.02282   0.03076   0.03290
 Alpha virt. eigenvalues --    0.04683   0.04793   0.05083   0.05225   0.06145

 Mulliken charges:
               1
     1  Mg   0.838518
     2  C   -0.002950
     3  C   -0.094249
     4  C   -0.045870
     5  C   -0.063948
     6  N   -0.256740
     7  C   -0.052454
     8  C   -0.013983
     9  C   -0.086967
    10  C    0.046237
    11  C    0.104811
    12  C    0.053523
    13  C   -0.071828
    14  H    0.036282
    15  N   -0.433091
    16  C    0.168316
    17  C   -0.177305
    18  C   -0.004117
    19  C    0.148641
    20  C    0.110211
    21  C    0.012158
    22  O   -0.249590
    23  C    0.062569
    24  N   -0.341127
    25  C    0.041194
    26  C   -0.028150
    27  C   -0.024026
    28  C    0.074898
    29  C    0.076139
    30  C    0.035114
    31  C   -0.004500
    32  N   -0.310508
    33  C    0.080483
    34  C   -0.169632
    35  C    0.008463
    36  C    0.083023
    37  C    0.127288
    38  C    0.046230
    39  O   -0.188089
    40  C   -0.005372
    41  C    0.212955
    42  O   -0.257050
    43  O   -0.304837
    44  C    0.157548
    45  H   -0.017658
    46  H   -0.016843
    47  H   -0.041397
    48  H    0.001080
    49  H   -0.004164
    50  H    0.025563
    51  H    0.016453
    52  H    0.016660
    53  H    0.010899
    54  H    0.044208
    55  H    0.018011
    56  H    0.017722
    57  H    0.005836
    58  H    0.026836
    59  H    0.039083
    60  H    0.037403
    61  H    0.035532
    62  H    0.031074
    63  H    0.016541
    64  H    0.009551
    65  H    0.023246
    66  H    0.012550
    67  H    0.004822
    68  H    0.006455
    69  H    0.004784
    70  H    0.008795
    71  H    0.018131
    72  H    0.028903
    73  H    0.047742
    74  H    0.009131
    75  H    0.046123
    76  H    0.035234
    77  H    0.043195
    78  H    0.046299
    79  H    0.053982
    80  Mg   0.837927
    81  C   -0.016788
    82  C   -0.087856
    83  C   -0.045417
    84  C   -0.064571
    85  N   -0.254532
    86  C   -0.049703
    87  C   -0.015099
    88  C   -0.090554
    89  C    0.045806
    90  C    0.114398
    91  C    0.062561
    92  C   -0.077720
    93  H    0.034679
    94  N   -0.423455
    95  C    0.162886
    96  C   -0.174726
    97  C   -0.007861
    98  C    0.152037
    99  C    0.099421
   100  C    0.015514
   101  O   -0.253243
   102  C    0.061236
   103  N   -0.349967
   104  C    0.037533
   105  C   -0.019875
   106  C   -0.034846
   107  C    0.088949
   108  C    0.073601
   109  C    0.034700
   110  C   -0.007643
   111  N   -0.324187
   112  C    0.078515
   113  C   -0.162835
   114  C    0.002431
   115  C    0.096232
   116  C    0.131422
   117  C    0.042640
   118  O   -0.187695
   119  C    0.000796
   120  C    0.211219
   121  O   -0.251145
   122  O   -0.305570
   123  C    0.152093
   124  H   -0.019965
   125  H   -0.015627
   126  H   -0.040240
   127  H   -0.000636
   128  H   -0.004679
   129  H    0.022902
   130  H    0.014684
   131  H    0.015711
   132  H    0.013850
   133  H    0.037682
   134  H    0.020665
   135  H    0.019383
   136  H    0.008505
   137  H    0.026015
   138  H    0.039565
   139  H    0.038193
   140  H    0.036266
   141  H    0.033764
   142  H    0.014246
   143  H    0.012756
   144  H    0.024938
   145  H    0.011832
   146  H    0.005896
   147  H    0.006190
   148  H    0.003756
   149  H    0.010834
   150  H    0.017840
   151  H    0.030079
   152  H    0.045908
   153  H    0.008496
   154  H    0.047816
   155  H    0.035400
   156  H    0.043862
   157  H    0.049295
   158  H    0.053512
 Sum of Mulliken charges =  -0.00000

 Dipole moment (field-independent basis, Debye):
    X=             -3.8922    Y=             -2.2780    Z=             -7.5463  Tot=              8.7912
 Quadrupole moment (field-independent basis, Debye-Ang):
   XX=           -517.7148   YY=           -546.6525   ZZ=           -452.3291
   XY=            -17.4476   XZ=              3.3355   YZ=            -43.7934

 Normal termination of Gaussian 16 at Sat Sep  4 15:18:43 2021.
