 Gaussian 16, Revision A.03,
 Gaussian 16:  ES64L-G16RevA.03 25-Dec-2016

 -----------------------------------
 #p cam-b3lyp/Def2SVP td=(nstates=5)
 -----------------------------------

 --------------------------------
 TDDFT excited states in gaussian
 --------------------------------
 Symbolic Z-matrix:
 Charge =  0 Multiplicity = 1

                         Standard orientation:
 ---------------------------------------------------------------------
 Center     Atomic      Atomic             Coordinates (Angstroms)
 Number     Number       Type             X           Y           Z
 ---------------------------------------------------------------------
      1         12           0       15.618975   -0.897656    0.234897
      2          6           0       15.875597    2.474250   -0.938393
      3          6           0       16.465785    0.271174    3.326792
      4          6           0       15.843229   -3.912172    1.193554
      5          6           0       15.913454   -1.918876   -3.084147
      6          7           0       16.085283    1.135989    0.974823
      7          6           0       16.090017    2.351331    0.436219
      8          6           0       16.269512    3.490613    1.483689
      9          6           0       16.997571    2.661818    2.634787
     10          6           0       16.457613    1.278609    2.316821
     11          6           0       18.516815    2.638711    2.501125
     12          6           0       14.899449    4.069283    1.973383
     13          6           0       14.985640    5.391451    2.741365
     14          1           0       13.923230    6.370990    2.570671
     15          7           0       15.605529   -1.667915    2.054064
     16          6           0       15.966519   -1.043247    3.200694
     17          6           0       15.781032   -2.035567    4.281238
     18          6           0       15.464264   -3.345246    3.646815
     19          6           0       15.653233   -3.029330    2.254024
     20          6           0       15.859765   -1.691321    5.736932
     21          6           0       15.066226   -4.673858    4.207606
     22          8           0       15.064316   -5.738167    3.499216
     23          6           0       14.759686   -4.713353    5.648965
     24          7           0       16.065553   -2.675752   -0.763391
     25          6           0       16.038211   -3.850966   -0.125340
     26          6           0       16.109792   -4.997627   -1.089697
     27          6           0       15.946579   -4.361868   -2.545350
     28          6           0       15.888137   -2.867070   -2.144810
     29          6           0       17.395281   -5.834900   -1.039695
     30          6           0       14.815661   -4.930911   -3.438452
     31          6           0       13.468762   -4.573565   -2.850859
     32          7           0       15.676080    0.075565   -1.704337
     33          6           0       15.826590   -0.542874   -2.953958
     34          6           0       15.916577    0.531603   -3.959676
     35          6           0       15.828232    1.708412   -3.218623
     36          6           0       15.718097    1.389668   -1.834945
     37          6           0       16.118743    0.350902   -5.356426
     38          6           0       15.826027    3.161358   -3.271533
     39          8           0       15.798349    3.996074   -4.177058
     40          6           0       15.979194    3.717042   -1.787086
     41          6           0       14.941544    4.789054   -1.593746
     42          8           0       13.725603    4.508366   -1.585383
     43          8           0       15.543235    5.926967   -1.214715
     44          6           0       14.566914    7.023600   -0.977336
     45          1           0       16.950143    0.484912    4.281598
     46          1           0       15.815448   -4.968368    1.469443
     47          1           0       15.921333   -2.162735   -4.148066
     48          1           0       16.906795    4.312411    1.156669
     49          1           0       16.675678    2.975234    3.627700
     50          1           0       18.841079    3.088353    1.562724
     51          1           0       18.795998    1.585432    2.535073
     52          1           0       18.989009    3.101939    3.367860
     53          1           0       14.496714    3.426150    2.755844
     54          1           0       14.207562    4.182040    1.137976
     55          1           0       15.961812    5.861263    2.617778
     56          1           0       14.923644    5.171957    3.807282
     57          1           0       16.269859   -0.694011    5.891013
     58          1           0       16.596122   -2.359673    6.182794
     59          1           0       14.900380   -1.813314    6.239953
     60          1           0       15.632398   -4.381351    6.211724
     61          1           0       14.408537   -5.724023    5.854128
     62          1           0       13.966823   -3.995506    5.861128
     63          1           0       15.300342   -5.705544   -0.916287
     64          1           0       16.847275   -4.482565   -3.147722
     65          1           0       17.220470   -6.894920   -0.853940
     66          1           0       18.046933   -5.406759   -0.278553
     67          1           0       18.022669   -5.762639   -1.927715
     68          1           0       14.871664   -6.018352   -3.474268
     69          1           0       14.850837   -4.563053   -4.463973
     70          1           0       13.313013   -5.353904   -2.106785
     71          1           0       12.696798   -4.608149   -3.620330
     72          1           0       13.505372   -3.621226   -2.321523
     73          1           0       15.434677    1.037530   -5.854991
     74          1           0       15.930999   -0.680649   -5.653510
     75          1           0       17.169417    0.626525   -5.445707
     76          1           0       16.992583    4.108045   -1.701749
     77          1           0       14.865163    7.861022   -1.608213
     78          1           0       14.539757    7.186440    0.100231
     79          1           0       13.550753    6.849680   -1.333014
     80         12           0      -16.133724   -0.529860   -0.194762
     81          6           0      -13.964199    2.328411   -0.244904
     82          6           0      -17.533299    0.768880    2.631728
     83          6           0      -17.746643   -3.242443    0.133583
     84          6           0      -13.853811   -2.123486   -2.294307
     85          7           0      -15.717053    1.317229    0.948430
     86          6           0      -14.911513    2.358055    0.799677
     87          6           0      -15.187576    3.530191    1.779195
     88          6           0      -15.903177    2.699555    2.952578
     89          6           0      -16.452843    1.536839    2.128784
     90          6           0      -14.928040    2.141130    3.975619
     91          6           0      -16.151494    4.606338    1.167003
     92          6           0      -16.219706    5.923929    1.942267
     93          1           0      -16.381061    7.165862    1.191233
     94          7           0      -17.759313   -0.936774    0.868466
     95          6           0      -18.190335   -0.294288    1.974219
     96          6           0      -19.418625   -0.988929    2.390076
     97          6           0      -19.587301   -2.195618    1.535577
     98          6           0      -18.332511   -2.182813    0.810720
     99          6           0      -20.339005   -0.451809    3.447352
    100          6           0      -20.689378   -3.202637    1.403125
    101          8           0      -20.522477   -4.304041    0.769180
    102          6           0      -21.939797   -2.903677    2.116259
    103          7           0      -15.744714   -2.482761   -0.792420
    104          6           0      -16.636360   -3.464351   -0.570219
    105          6           0      -16.267199   -4.718122   -1.326630
    106          6           0      -15.068875   -4.296599   -2.298189
    107          6           0      -14.885165   -2.829550   -1.851639
    108          6           0      -15.833572   -5.908031   -0.470769
    109          6           0      -15.253596   -4.590808   -3.812117
    110          6           0      -16.354102   -3.721351   -4.376323
    111          7           0      -14.344922    0.038054   -1.265148
    112          6           0      -13.530148   -0.792174   -2.065741
    113          6           0      -12.367271    0.015384   -2.487639
    114          6           0      -12.576175    1.262397   -1.879522
    115          6           0      -13.773592    1.227804   -1.115007
    116          6           0      -11.281428   -0.443285   -3.285568
    117          6           0      -12.050515    2.596872   -1.701867
    118          8           0      -11.109356    3.230311   -2.178009
    119          6           0      -12.860162    3.307501   -0.533162
    120          6           0      -13.248140    4.681751   -1.005854
    121          8           0      -14.043847    4.823814   -1.950985
    122          8           0      -12.789331    5.594690   -0.130411
    123          6           0      -13.158719    6.972785   -0.550229
    124          1           0      -17.886281    0.970296    3.643521
    125          1           0      -18.321149   -4.171599    0.124539
    126          1           0      -13.148858   -2.517768   -3.029328
    127          1           0      -14.300744    4.022606    2.159758
    128          1           0      -16.714953    3.267216    3.399931
    129          1           0      -13.901093    2.295539    3.679494
    130          1           0      -15.147117    1.083611    4.044162
    131          1           0      -15.139759    2.557497    4.964629
    132          1           0      -17.188444    4.265882    1.283528
    133          1           0      -15.901981    4.802458    0.142355
    134          1           0      -15.403362    6.017458    2.668759
    135          1           0      -17.124503    5.919656    2.554902
    136          1           0      -19.870151    0.363075    4.012639
    137          1           0      -20.478222   -1.249265    4.185280
    138          1           0      -21.314578   -0.163874    3.049848
    139          1           0      -21.732666   -2.794407    3.178148
    140          1           0      -22.636368   -3.693517    1.828471
    141          1           0      -22.318281   -1.936071    1.768238
    142          1           0      -17.099127   -5.067373   -1.925807
    143          1           0      -14.135716   -4.821200   -2.045522
    144          1           0      -16.442885   -6.815165   -0.643741
    145          1           0      -15.876370   -5.613854    0.569507
    146          1           0      -14.791996   -6.203571   -0.584615
    147          1           0      -15.569125   -5.626397   -3.960923
    148          1           0      -14.350229   -4.442566   -4.394308
    149          1           0      -17.262127   -4.275477   -4.120326
    150          1           0      -16.245736   -3.617483   -5.454056
    151          1           0      -16.399038   -2.756975   -3.857082
    152          1           0      -11.074116    0.336031   -4.006812
    153          1           0      -11.517829   -1.386003   -3.774617
    154          1           0      -10.511507   -0.560641   -2.518291
    155          1           0      -12.209206    3.343938    0.341189
    156          1           0      -12.229991    7.548776   -0.608441
    157          1           0      -13.918017    7.313655    0.178477
    158          1           0      -13.551617    7.103247   -1.551754
 ---------------------------------------------------------------------

 SCF Done:  E(RCAM-B3LYP) =  -4069.81174946     A.U. after   19 cycles

 Excitation energies and oscillator strengths:

 Excited State   1:      Singlet-A      1.6755 eV  740.00 nm  f=0.3156  <S**2>=0.000
     310 -> 316        0.17088
     311 -> 313        0.67541
     312 -> 314       -0.12036
     310 <- 316        0.10300
 This state for optimization and/or second-order correction.
 Total Energy, E(TD-HF/TD-DFT) =  -4069.75017739
 Copying the excited state density for this state as the 1-particle RhoCI density.

 Excited State   2:      Singlet-A      1.6800 eV  738.01 nm  f=0.4647  <S**2>=0.000
     309 -> 315        0.17284
     311 -> 313        0.12034
     312 -> 314        0.67505
     309 <- 315        0.10349

 Excited State   3:      Singlet-A      2.1861 eV  567.15 nm  f=0.0945  <S**2>=0.000
     310 -> 313        0.64202
     311 -> 316       -0.27295

 Excited State   4:      Singlet-A      2.1925 eV  565.50 nm  f=0.1055  <S**2>=0.000
     309 -> 314        0.64026
     312 -> 315       -0.27809

 Excited State   5:      Singlet-A      3.0523 eV  406.20 nm  f=0.0000  <S**2>=0.000
     312 -> 313        0.70709

 The electronic state is 1-A.
 Alpha  occ. eigenvalues --  -46.87751 -46.87659 -19.26343 -19.26233 -19.19155
 Alpha  occ. eigenvalues --  -19.18969 -19.18773 -19.18714 -19.18123 -19.18046
 Alpha  occ. eigenvalues --  -14.42497 -14.42405 -14.41405 -14.41358 -14.39358
 Alpha  occ. eigenvalues --  -14.39351 -14.38598 -14.38542 -10.39085 -10.39029
 Alpha  occ. eigenvalues --  -10.35407 -10.35391 -10.34343 -10.34224 -10.31749
 Alpha  occ. eigenvalues --  -10.31627 -10.31360 -10.31307 -10.31023 -10.30864
 Alpha  occ. eigenvalues --  -10.30525 -10.30463 -10.30396 -10.30358 -10.30163
 Alpha  occ. eigenvalues --  -10.30140 -10.29893 -10.29876 -10.29586 -10.29436
 Alpha  occ. eigenvalues --  -10.29399 -10.29210 -10.28718 -10.28704 -10.28653
 Alpha  occ. eigenvalues --  -10.28490 -10.28403 -10.28320 -10.28140 -10.28072
 Alpha  occ. eigenvalues --  -10.27999 -10.27748 -10.27683 -10.27668 -10.27540
 Alpha  occ. eigenvalues --  -10.27517 -10.27482 -10.27467 -10.27464 -10.27458
 Alpha  occ. eigenvalues --  -10.27440 -10.27407 -10.27375 -10.27358 -10.27111
 Alpha  occ. eigenvalues --  -10.27046 -10.26692 -10.26657 -10.26416 -10.26370
 Alpha  occ. eigenvalues --  -10.26193 -10.26139 -10.26135 -10.26027 -10.25975
 Alpha  occ. eigenvalues --  -10.25933 -10.25843 -10.25797 -10.25398 -10.25396
 Alpha  occ. eigenvalues --  -10.24870 -10.24788 -10.24744 -10.24728 -10.24689
 Alpha  occ. eigenvalues --  -10.24640  -3.16494  -3.16409  -1.91376  -1.91291
 Alpha  occ. eigenvalues --   -1.90962  -1.90880  -1.90805  -1.90717  -1.16638
 Alpha  occ. eigenvalues --   -1.16582  -1.08653  -1.08580  -1.07174  -1.06966
 Alpha  occ. eigenvalues --   -1.06940  -1.06591  -1.04536  -1.04494  -1.03716
 Alpha  occ. eigenvalues --   -1.03662  -1.03189  -1.03037  -1.02367  -1.02110
 Alpha  occ. eigenvalues --   -0.91985  -0.91927  -0.89493  -0.89475  -0.89151
 Alpha  occ. eigenvalues --   -0.89143  -0.88243  -0.88219  -0.87825  -0.87790
 Alpha  occ. eigenvalues --   -0.87683  -0.87628  -0.87231  -0.87119  -0.84999
 Alpha  occ. eigenvalues --   -0.84937  -0.83892  -0.83874  -0.82931  -0.82925
 Alpha  occ. eigenvalues --   -0.82652  -0.82604  -0.81593  -0.81538  -0.80551
 Alpha  occ. eigenvalues --   -0.80440  -0.78753  -0.78634  -0.77174  -0.77143
 Alpha  occ. eigenvalues --   -0.76896  -0.76888  -0.75878  -0.75837  -0.74854
 Alpha  occ. eigenvalues --   -0.74802  -0.72730  -0.72697  -0.71628  -0.71580
 Alpha  occ. eigenvalues --   -0.69863  -0.69756  -0.68828  -0.68826  -0.67600
 Alpha  occ. eigenvalues --   -0.67596  -0.67199  -0.67174  -0.65270  -0.65241
 Alpha  occ. eigenvalues --   -0.64808  -0.64768  -0.64652  -0.64575  -0.64225
 Alpha  occ. eigenvalues --   -0.64202  -0.62275  -0.62250  -0.60399  -0.60339
 Alpha  occ. eigenvalues --   -0.59795  -0.59759  -0.58991  -0.58942  -0.58459
 Alpha  occ. eigenvalues --   -0.58423  -0.57550  -0.57537  -0.57264  -0.57235
 Alpha  occ. eigenvalues --   -0.56265  -0.56202  -0.55930  -0.55883  -0.55476
 Alpha  occ. eigenvalues --   -0.55450  -0.55294  -0.55245  -0.54485  -0.54477
 Alpha  occ. eigenvalues --   -0.53912  -0.53850  -0.53254  -0.53226  -0.53177
 Alpha  occ. eigenvalues --   -0.53140  -0.52900  -0.52868  -0.52713  -0.52668
 Alpha  occ. eigenvalues --   -0.52399  -0.52393  -0.51880  -0.51869  -0.51657
 Alpha  occ. eigenvalues --   -0.51571  -0.51198  -0.51150  -0.50530  -0.50475
 Alpha  occ. eigenvalues --   -0.49988  -0.49979  -0.49875  -0.49866  -0.49487
 Alpha  occ. eigenvalues --   -0.49470  -0.49200  -0.49170  -0.49102  -0.49051
 Alpha  occ. eigenvalues --   -0.48556  -0.48547  -0.48418  -0.48401  -0.48374
 Alpha  occ. eigenvalues --   -0.48337  -0.47650  -0.47593  -0.47253  -0.47117
 Alpha  occ. eigenvalues --   -0.46752  -0.46707  -0.46553  -0.46510  -0.46314
 Alpha  occ. eigenvalues --   -0.46269  -0.46117  -0.46083  -0.45818  -0.45775
 Alpha  occ. eigenvalues --   -0.45208  -0.45158  -0.44532  -0.44511  -0.44475
 Alpha  occ. eigenvalues --   -0.44463  -0.44126  -0.44100  -0.44076  -0.44044
 Alpha  occ. eigenvalues --   -0.43974  -0.43937  -0.43550  -0.43448  -0.43384
 Alpha  occ. eigenvalues --   -0.43341  -0.42982  -0.42927  -0.42898  -0.42651
 Alpha  occ. eigenvalues --   -0.42608  -0.42552  -0.41964  -0.41963  -0.41667
 Alpha  occ. eigenvalues --   -0.41659  -0.41488  -0.41458  -0.41097  -0.40989
 Alpha  occ. eigenvalues --   -0.40824  -0.40780  -0.40722  -0.40698  -0.40527
 Alpha  occ. eigenvalues --   -0.40492  -0.40226  -0.40188  -0.39424  -0.39396
 Alpha  occ. eigenvalues --   -0.38425  -0.38350  -0.37702  -0.37653  -0.37276
 Alpha  occ. eigenvalues --   -0.37265  -0.37218  -0.37198  -0.36767  -0.36665
 Alpha  occ. eigenvalues --   -0.36215  -0.36146  -0.34252  -0.34241  -0.33857
 Alpha  occ. eigenvalues --   -0.33720  -0.33174  -0.33141  -0.31303  -0.31273
 Alpha  occ. eigenvalues --   -0.30991  -0.30971  -0.29982  -0.29950  -0.29405
 Alpha  occ. eigenvalues --   -0.29326  -0.29277  -0.29209  -0.24036  -0.24035
 Alpha  occ. eigenvalues --   -0.21116  -0.21083
 Alpha virt. eigenvalues --   -0.08790  -0.08730  -0.01705  -0.01683  -0.00028
 Alpha virt. eigenvalues --   -0.00014   0.02210   0.02246   0.03170   0.03227
 Alpha virt. eigenvalues --    0.04731   0.04763   0.05148   0.05170   0.06184

 Mulliken charges:
               1
     1  Mg   0.838758
     2  C   -0.002948
     3  C   -0.094121
     4  C   -0.045871
     5  C   -0.063966
     6  N   -0.256772
     7  C   -0.052467
     8  C   -0.014001
     9  C   -0.087011
    10  C    0.046343
    11  C    0.104828
    12  C    0.053456
    13  C   -0.071821
    14  H    0.036229
    15  N   -0.433128
    16  C    0.168438
    17  C   -0.177170
    18  C   -0.004030
    19  C    0.148720
    20  C    0.110191
    21  C    0.012287
    22  O   -0.249660
    23  C    0.062471
    24  N   -0.341143
    25  C    0.041230
    26  C   -0.028154
    27  C   -0.023987
    28  C    0.074869
    29  C    0.076192
    30  C    0.035127
    31  C   -0.004507
    32  N   -0.310482
    33  C    0.080452
    34  C   -0.169677
    35  C    0.008364
    36  C    0.083027
    37  C    0.127298
    38  C    0.046147
    39  O   -0.188390
    40  C   -0.005337
    41  C    0.212875
    42  O   -0.257007
    43  O   -0.304836
    44  C    0.157660
    45  H   -0.017650
    46  H   -0.016878
    47  H   -0.041490
    48  H    0.000921
    49  H   -0.004040
    50  H    0.025458
    51  H    0.016417
    52  H    0.016611
    53  H    0.011228
    54  H    0.044196
    55  H    0.017819
    56  H    0.017924
    57  H    0.005854
    58  H    0.026759
    59  H    0.039552
    60  H    0.037303
    61  H    0.035605
    62  H    0.031536
    63  H    0.016551
    64  H    0.009424
    65  H    0.023169
    66  H    0.012514
    67  H    0.004716
    68  H    0.006323
    69  H    0.004742
    70  H    0.008762
    71  H    0.018210
    72  H    0.029027
    73  H    0.047643
    74  H    0.009121
    75  H    0.045968
    76  H    0.035112
    77  H    0.042942
    78  H    0.046384
    79  H    0.053792
    80  Mg   0.837840
    81  C   -0.016801
    82  C   -0.087832
    83  C   -0.045529
    84  C   -0.064874
    85  N   -0.254595
    86  C   -0.049838
    87  C   -0.015108
    88  C   -0.090487
    89  C    0.045773
    90  C    0.114374
    91  C    0.062522
    92  C   -0.077898
    93  H    0.034937
    94  N   -0.423508
    95  C    0.162934
    96  C   -0.174659
    97  C   -0.007816
    98  C    0.152110
    99  C    0.099381
   100  C    0.015564
   101  O   -0.253193
   102  C    0.061201
   103  N   -0.350052
   104  C    0.037519
   105  C   -0.019832
   106  C   -0.034835
   107  C    0.088937
   108  C    0.073661
   109  C    0.034732
   110  C   -0.007694
   111  N   -0.324108
   112  C    0.078451
   113  C   -0.163096
   114  C    0.002273
   115  C    0.096213
   116  C    0.131487
   117  C    0.042430
   118  O   -0.187736
   119  C    0.000890
   120  C    0.211291
   121  O   -0.251004
   122  O   -0.305639
   123  C    0.152009
   124  H   -0.019688
   125  H   -0.015584
   126  H   -0.040401
   127  H   -0.000640
   128  H   -0.004338
   129  H    0.022470
   130  H    0.014408
   131  H    0.016249
   132  H    0.013920
   133  H    0.037705
   134  H    0.020776
   135  H    0.019574
   136  H    0.008744
   137  H    0.026114
   138  H    0.039792
   139  H    0.038233
   140  H    0.036392
   141  H    0.033906
   142  H    0.014405
   143  H    0.012441
   144  H    0.025135
   145  H    0.011615
   146  H    0.005681
   147  H    0.006268
   148  H    0.003702
   149  H    0.010923
   150  H    0.017974
   151  H    0.030104
   152  H    0.046102
   153  H    0.008547
   154  H    0.047001
   155  H    0.035033
   156  H    0.043973
   157  H    0.049458
   158  H    0.053614
 Sum of Mulliken charges =  -0.00000

 Dipole moment (field-independent basis, Debye):
    X=              0.0709    Y=             -0.2594    Z=              8.1843  Tot=              8.1887
 Quadrupole moment (field-independent basis, Debye-Ang):
   XX=           -402.3031   YY=           -509.0745   ZZ=           -484.4612
   XY=            -23.6366   XZ=             -2.8042   YZ=             59.5650

 Normal termination of Gaussian 16 at Sun Sep 12 17:52:26 2021.
