 Gaussian 16, Revision A.03,
 Gaussian 16:  ES64L-G16RevA.03 25-Dec-2016

 -----------------------------------
 #p cam-b3lyp/Def2SVP td=(nstates=5)
 -----------------------------------

 --------------------------------
 TDDFT excited states in gaussian
 --------------------------------
 Symbolic Z-matrix:
 Charge =  0 Multiplicity = 1

                         Standard orientation:
 ---------------------------------------------------------------------
 Center     Atomic      Atomic             Coordinates (Angstroms)
 Number     Number       Type             X           Y           Z
 ---------------------------------------------------------------------
      1         12           0        5.101149   -1.114258    0.269858
      2          6           0        5.825582    1.702701   -1.816324
      3          6           0        6.445678    0.649063    2.863313
      4          6           0        4.888769   -3.745796    2.026708
      5          6           0        4.877462   -3.022982   -2.637443
      6          7           0        5.988480    0.910652    0.384001
      7          6           0        6.152021    1.912250   -0.474619
      8          6           0        6.632596    3.231930    0.199819
      9          6           0        7.315965    2.615012    1.501517
     10          6           0        6.512833    1.331007    1.612123
     11          6           0        8.786443    2.259401    1.307256
     12          6           0        5.441315    4.177594    0.571703
     13          6           0        5.834503    5.613378    0.931261
     14          1           0        4.948495    6.700272    0.542672
     15          7           0        5.135606   -1.351827    2.230782
     16          6           0        5.713713   -0.526725    3.136478
     17          6           0        5.466621   -1.137543    4.460308
     18          6           0        4.863201   -2.480592    4.236258
     19          6           0        4.963834   -2.592072    2.803491
     20          6           0        5.750170   -0.438968    5.754658
     21          6           0        4.296837   -3.505951    5.166852
     22          8           0        4.037362   -4.699071    4.787761
     23          6           0        4.134369   -3.097641    6.573951
     24          7           0        5.126744   -3.146276   -0.207512
     25          6           0        4.958075   -4.078989    0.736194
     26          6           0        4.730451   -5.432666    0.131475
     27          6           0        4.535896   -5.190120   -1.434754
     28          6           0        4.780798   -3.661356   -1.469024
     29          6           0        5.847758   -6.461387    0.353669
     30          6           0        3.238918   -5.743892   -2.076317
     31          6           0        2.041368   -4.985389   -1.549397
     32          7           0        5.132967   -0.725889   -1.865371
     33          6           0        5.046575   -1.673009   -2.895989
     34          6           0        5.222041   -0.945938   -4.166677
     35          6           0        5.416115    0.379757   -3.783645
     36          6           0        5.391282    0.470666   -2.362586
     37          6           0        5.248179   -1.529573   -5.464028
     38          6           0        5.663247    1.736749   -4.243380
     39          8           0        5.691517    2.287507   -5.344906
     40          6           0        6.059634    2.627879   -2.984574
     41          6           0        5.250619    3.894498   -3.051519
     42          8           0        4.011385    3.870497   -2.906300
     43          8           0        6.077358    4.951308   -3.037485
     44          6           0        5.337144    6.240897   -3.072091
     45          1           0        7.053349    1.010993    3.694987
     46          1           0        4.704173   -4.662986    2.589846
     47          1           0        4.735655   -3.539082   -3.588749
     48          1           0        7.367931    3.794733   -0.375472
     49          1           0        7.155288    3.239354    2.380210
     50          1           0        9.088626    2.369039    0.265822
     51          1           0        8.878714    1.220042    1.623027
     52          1           0        9.417080    2.835537    1.984857
     53          1           0        5.012720    3.859113    1.521933
     54          1           0        4.699588    4.196323   -0.227556
     55          1           0        6.860484    5.832029    0.633833
     56          1           0        5.842314    5.703504    2.017547
     57          1           0        6.342041    0.462636    5.601872
     58          1           0        6.398993   -1.094736    6.334923
     59          1           0        4.839664   -0.231318    6.316969
     60          1           0        5.103765   -2.805169    6.978032
     61          1           0        3.633946   -3.927349    7.071959
     62          1           0        3.504927   -2.208134    6.613064
     63          1           0        3.831035   -5.895332    0.535723
     64          1           0        5.336422   -5.641776   -2.021131
     65          1           0        5.509443   -7.377438    0.838537
     66          1           0        6.637407   -5.981798    0.931370
     67          1           0        6.385747   -6.753768   -0.547718
     68          1           0        3.099618   -6.790347   -1.807108
     69          1           0        3.234893   -5.677987   -3.164385
     70          1           0        1.826773   -5.492033   -0.609134
     71          1           0        1.202013   -5.072320   -2.240148
     72          1           0        2.297236   -3.952590   -1.312032
     73          1           0        4.648483   -0.880918   -6.102448
     74          1           0        4.853723   -2.545344   -5.449281
     75          1           0        6.316543   -1.499565   -5.677462
     76          1           0        7.129226    2.820746   -3.061371
     77          1           0        5.712667    6.803704   -3.926763
     78          1           0        5.447243    6.687996   -2.083969
     79          1           0        4.275741    6.181079   -3.315370
     80         12           0       -5.263002    1.040100    0.597950
     81          6           0       -5.739610   -1.974654   -1.289671
     82          6           0       -4.158352    2.492668   -2.283783
     83          6           0       -4.409518    3.567357    2.316095
     84          6           0       -5.304037   -0.921541    3.478219
     85          7           0       -5.026318    0.257433   -1.457198
     86          6           0       -5.297678   -0.885425   -2.069239
     87          6           0       -5.160096   -0.835921   -3.614609
     88          6           0       -4.132129    0.392861   -3.725266
     89          6           0       -4.478456    1.118939   -2.426985
     90          6           0       -2.675038   -0.033704   -3.659905
     91          6           0       -6.520804   -0.512312   -4.325784
     92          6           0       -6.529424   -0.751860   -5.837171
     93          1           0       -7.756838   -1.243572   -6.456968
     94          7           0       -4.877552    2.904128    0.036323
     95          6           0       -4.460178    3.318168   -1.178434
     96          6           0       -4.301631    4.776953   -1.073716
     97          6           0       -4.500836    5.169590    0.347859
     98          6           0       -4.584973    3.864636    0.972450
     99          6           0       -4.069670    5.657971   -2.266788
    100          6           0       -4.586904    6.499413    1.033688
    101          8           0       -4.524730    6.604271    2.309611
    102          6           0       -4.652160    7.682736    0.163652
    103          7           0       -4.696311    1.267863    2.585240
    104          6           0       -4.427625    2.483762    3.092515
    105          6           0       -4.313269    2.433856    4.597443
    106          6           0       -4.802319    0.970214    5.017170
    107          6           0       -5.040585    0.370892    3.613807
    108          6           0       -2.917667    2.686747    5.167301
    109          6           0       -5.948309    0.883801    6.062115
    110          6           0       -7.231133    1.417742    5.466569
    111          7           0       -5.662420   -1.031609    1.063262
    112          6           0       -5.598583   -1.648545    2.331885
    113          6           0       -5.839323   -3.091606    2.126842
    114          6           0       -6.004998   -3.218552    0.739428
    115          6           0       -5.856534   -1.947669    0.121124
    116          6           0       -5.834491   -4.088408    3.142955
    117          6           0       -6.261176   -4.140354   -0.343786
    118          8           0       -6.554161   -5.332954   -0.418610
    119          6           0       -5.975273   -3.396218   -1.718884
    120          6           0       -7.131246   -3.666736   -2.642508
    121          8           0       -8.265517   -3.229385   -2.380315
    122          8           0       -6.666328   -4.206813   -3.783801
    123          6           0       -7.774516   -4.482867   -4.736440
    124          1           0       -3.584204    2.976747   -3.074297
    125          1           0       -4.222756    4.423853    2.968017
    126          1           0       -5.429908   -1.584840    4.336637
    127          1           0       -4.727960   -1.723548   -4.060859
    128          1           0       -4.356829    1.019691   -4.584318
    129          1           0       -2.572609   -1.083924   -3.430403
    130          1           0       -2.226664    0.569230   -2.881143
    131          1           0       -2.160586    0.238806   -4.585876
    132          1           0       -6.685707    0.572667   -4.306568
    133          1           0       -7.327153   -1.053008   -3.869611
    134          1           0       -5.668295   -1.346690   -6.165142
    135          1           0       -6.399332    0.208731   -6.341510
    136          1           0       -3.803292    5.071092   -3.154488
    137          1           0       -3.174423    6.252848   -2.055764
    138          1           0       -4.905493    6.333710   -2.460268
    139          1           0       -3.773332    7.709431   -0.476196
    140          1           0       -4.799411    8.531135    0.834786
    141          1           0       -5.520078    7.583260   -0.497738
    142          1           0       -4.962871    3.167291    5.059174
    143          1           0       -3.991141    0.385285    5.475091
    144          1           0       -2.885381    3.527339    5.885937
    145          1           0       -2.239594    2.864722    4.343237
    146          1           0       -2.459555    1.832639    5.663110
    147          1           0       -5.721467    1.513516    6.925916
    148          1           0       -6.120175   -0.121299    6.432563
    149          1           0       -7.136430    2.498869    5.605465
    150          1           0       -8.093974    1.025233    6.000864
    151          1           0       -7.273849    1.226451    4.388036
    152          1           0       -6.681093   -4.733804    2.950003
    153          1           0       -5.889497   -3.645105    4.135041
    154          1           0       -4.863424   -4.554096    2.954716
    155          1           0       -5.036164   -3.786173   -2.113329
    156          1           0       -7.713328   -5.543508   -4.999053
    157          1           0       -7.651015   -3.752554   -5.558119
    158          1           0       -8.788182   -4.416601   -4.358906
 ---------------------------------------------------------------------

 SCF Done:  E(RCAM-B3LYP) =  -4069.81222984     A.U. after   19 cycles

 Excitation energies and oscillator strengths:

 Excited State   1:      Singlet-A      1.6678 eV  743.38 nm  f=0.2278  <S**2>=0.000
     309 -> 315        0.10708
     310 -> 316        0.13395
     311 -> 313        0.42538
     312 -> 314        0.53855
 This state for optimization and/or second-order correction.
 Total Energy, E(TD-HF/TD-DFT) =  -4069.75093790
 Copying the excited state density for this state as the 1-particle RhoCI density.

 Excited State   2:      Singlet-A      1.6844 eV  736.09 nm  f=0.4743  <S**2>=0.000
     309 -> 315        0.13857
     310 -> 316       -0.10887
     311 -> 313        0.53776
     312 -> 314       -0.42493

 Excited State   3:      Singlet-A      2.1858 eV  567.23 nm  f=0.0885  <S**2>=0.000
     309 -> 313        0.10862
     310 -> 314        0.63339
     312 -> 316       -0.26817

 Excited State   4:      Singlet-A      2.1927 eV  565.44 nm  f=0.1075  <S**2>=0.000
     309 -> 313        0.63159
     310 -> 314       -0.10758
     311 -> 315       -0.27406

 Excited State   5:      Singlet-A      2.4782 eV  500.31 nm  f=0.0000  <S**2>=0.000
     312 -> 313        0.70709

 The electronic state is 1-A.
 Alpha  occ. eigenvalues --  -46.87892 -46.87487 -19.26462 -19.26224 -19.19209
 Alpha  occ. eigenvalues --  -19.19029 -19.18896 -19.18576 -19.18309 -19.17898
 Alpha  occ. eigenvalues --  -14.42544 -14.42309 -14.41537 -14.41198 -14.39497
 Alpha  occ. eigenvalues --  -14.39177 -14.38692 -14.38430 -10.39260 -10.38957
 Alpha  occ. eigenvalues --  -10.35529 -10.35253 -10.34529 -10.34076 -10.31868
 Alpha  occ. eigenvalues --  -10.31644 -10.31508 -10.31105 -10.31002 -10.30829
 Alpha  occ. eigenvalues --  -10.30677 -10.30608 -10.30283 -10.30241 -10.30180
 Alpha  occ. eigenvalues --  -10.30011 -10.29983 -10.29756 -10.29734 -10.29346
 Alpha  occ. eigenvalues --  -10.29257 -10.29235 -10.28841 -10.28618 -10.28502
 Alpha  occ. eigenvalues --  -10.28471 -10.28468 -10.28226 -10.28204 -10.27900
 Alpha  occ. eigenvalues --  -10.27875 -10.27825 -10.27820 -10.27683 -10.27564
 Alpha  occ. eigenvalues --  -10.27555 -10.27506 -10.27501 -10.27453 -10.27425
 Alpha  occ. eigenvalues --  -10.27311 -10.27297 -10.27295 -10.27295 -10.27225
 Alpha  occ. eigenvalues --  -10.26900 -10.26795 -10.26501 -10.26488 -10.26316
 Alpha  occ. eigenvalues --  -10.26280 -10.26219 -10.26110 -10.26066 -10.25983
 Alpha  occ. eigenvalues --  -10.25774 -10.25699 -10.25661 -10.25475 -10.25370
 Alpha  occ. eigenvalues --  -10.24947 -10.24876 -10.24719 -10.24701 -10.24657
 Alpha  occ. eigenvalues --  -10.24536  -3.16634  -3.16237  -1.91516  -1.91119
 Alpha  occ. eigenvalues --   -1.91102  -1.90945  -1.90708  -1.90545  -1.16812
 Alpha  occ. eigenvalues --   -1.16516  -1.08773  -1.08510  -1.07295  -1.06830
 Alpha  occ. eigenvalues --   -1.06828  -1.06813  -1.04677  -1.04306  -1.03850
 Alpha  occ. eigenvalues --   -1.03491  -1.03332  -1.02876  -1.02507  -1.01943
 Alpha  occ. eigenvalues --   -0.92084  -0.91818  -0.89596  -0.89361  -0.89278
 Alpha  occ. eigenvalues --   -0.88920  -0.88356  -0.88105  -0.87987  -0.87764
 Alpha  occ. eigenvalues --   -0.87627  -0.87498  -0.87365  -0.86941  -0.85074
 Alpha  occ. eigenvalues --   -0.84800  -0.84007  -0.83775  -0.83046  -0.82785
 Alpha  occ. eigenvalues --   -0.82745  -0.82467  -0.81716  -0.81446  -0.80706
 Alpha  occ. eigenvalues --   -0.80282  -0.78895  -0.78455  -0.77307  -0.77034
 Alpha  occ. eigenvalues --   -0.76969  -0.76732  -0.76031  -0.75639  -0.74974
 Alpha  occ. eigenvalues --   -0.74685  -0.72873  -0.72528  -0.71764  -0.71410
 Alpha  occ. eigenvalues --   -0.69964  -0.69654  -0.68967  -0.68635  -0.67742
 Alpha  occ. eigenvalues --   -0.67442  -0.67309  -0.67021  -0.65385  -0.65081
 Alpha  occ. eigenvalues --   -0.64962  -0.64718  -0.64607  -0.64488  -0.64346
 Alpha  occ. eigenvalues --   -0.64074  -0.62434  -0.62137  -0.60528  -0.60181
 Alpha  occ. eigenvalues --   -0.59899  -0.59587  -0.59085  -0.58831  -0.58606
 Alpha  occ. eigenvalues --   -0.58267  -0.57723  -0.57403  -0.57403  -0.57096
 Alpha  occ. eigenvalues --   -0.56418  -0.56117  -0.56030  -0.55734  -0.55619
 Alpha  occ. eigenvalues --   -0.55436  -0.55289  -0.55129  -0.54634  -0.54371
 Alpha  occ. eigenvalues --   -0.53987  -0.53693  -0.53395  -0.53322  -0.53072
 Alpha  occ. eigenvalues --   -0.53032  -0.52971  -0.52844  -0.52733  -0.52497
 Alpha  occ. eigenvalues --   -0.52479  -0.52302  -0.52044  -0.51728  -0.51716
 Alpha  occ. eigenvalues --   -0.51467  -0.51301  -0.51045  -0.50653  -0.50302
 Alpha  occ. eigenvalues --   -0.50097  -0.50004  -0.49811  -0.49718  -0.49612
 Alpha  occ. eigenvalues --   -0.49326  -0.49307  -0.49196  -0.49019  -0.48903
 Alpha  occ. eigenvalues --   -0.48711  -0.48552  -0.48536  -0.48379  -0.48263
 Alpha  occ. eigenvalues --   -0.48179  -0.47787  -0.47420  -0.47389  -0.46952
 Alpha  occ. eigenvalues --   -0.46887  -0.46650  -0.46546  -0.46459  -0.46352
 Alpha  occ. eigenvalues --   -0.46266  -0.46110  -0.45951  -0.45950  -0.45668
 Alpha  occ. eigenvalues --   -0.45273  -0.45095  -0.44700  -0.44589  -0.44361
 Alpha  occ. eigenvalues --   -0.44282  -0.44238  -0.44177  -0.44125  -0.43946
 Alpha  occ. eigenvalues --   -0.43928  -0.43771  -0.43625  -0.43470  -0.43410
 Alpha  occ. eigenvalues --   -0.43212  -0.43127  -0.42851  -0.42791  -0.42747
 Alpha  occ. eigenvalues --   -0.42729  -0.42424  -0.42092  -0.41824  -0.41807
 Alpha  occ. eigenvalues --   -0.41621  -0.41509  -0.41280  -0.41231  -0.40951
 Alpha  occ. eigenvalues --   -0.40903  -0.40805  -0.40643  -0.40562  -0.40527
 Alpha  occ. eigenvalues --   -0.40350  -0.40319  -0.40041  -0.39491  -0.39325
 Alpha  occ. eigenvalues --   -0.38536  -0.38227  -0.37839  -0.37470  -0.37397
 Alpha  occ. eigenvalues --   -0.37362  -0.37122  -0.37007  -0.36860  -0.36644
 Alpha  occ. eigenvalues --   -0.36300  -0.36077  -0.34385  -0.34085  -0.33944
 Alpha  occ. eigenvalues --   -0.33723  -0.33290  -0.33005  -0.31425  -0.31135
 Alpha  occ. eigenvalues --   -0.31132  -0.30803  -0.30170  -0.29805  -0.29550
 Alpha  occ. eigenvalues --   -0.29433  -0.29155  -0.29042  -0.24178  -0.23862
 Alpha  occ. eigenvalues --   -0.21224  -0.20942
 Alpha virt. eigenvalues --   -0.08874  -0.08618  -0.01840  -0.01519  -0.00153
 Alpha virt. eigenvalues --    0.00146   0.02084   0.02360   0.03013   0.03386
 Alpha virt. eigenvalues --    0.04628   0.04922   0.04928   0.05303   0.06087

 Mulliken charges:
               1
     1  Mg   0.838783
     2  C   -0.003269
     3  C   -0.093988
     4  C   -0.045665
     5  C   -0.064048
     6  N   -0.256890
     7  C   -0.052407
     8  C   -0.014122
     9  C   -0.087055
    10  C    0.046514
    11  C    0.104746
    12  C    0.053404
    13  C   -0.071913
    14  H    0.036037
    15  N   -0.433225
    16  C    0.168644
    17  C   -0.176998
    18  C   -0.003805
    19  C    0.148897
    20  C    0.110122
    21  C    0.012386
    22  O   -0.249015
    23  C    0.062464
    24  N   -0.341206
    25  C    0.041413
    26  C   -0.028367
    27  C   -0.024008
    28  C    0.074893
    29  C    0.076038
    30  C    0.035035
    31  C   -0.004542
    32  N   -0.310215
    33  C    0.080001
    34  C   -0.170565
    35  C    0.007932
    36  C    0.082533
    37  C    0.127562
    38  C    0.045289
    39  O   -0.189381
    40  C   -0.005033
    41  C    0.212858
    42  O   -0.258440
    43  O   -0.304357
    44  C    0.158107
    45  H   -0.017321
    46  H   -0.016326
    47  H   -0.041585
    48  H    0.000844
    49  H   -0.003713
    50  H    0.025457
    51  H    0.016550
    52  H    0.016932
    53  H    0.011722
    54  H    0.043475
    55  H    0.017850
    56  H    0.018560
    57  H    0.006144
    58  H    0.027137
    59  H    0.039623
    60  H    0.037551
    61  H    0.035914
    62  H    0.031127
    63  H    0.017222
    64  H    0.009560
    65  H    0.023797
    66  H    0.012454
    67  H    0.004910
    68  H    0.007358
    69  H    0.004312
    70  H    0.010016
    71  H    0.018023
    72  H    0.028061
    73  H    0.046263
    74  H    0.009096
    75  H    0.046292
    76  H    0.035396
    77  H    0.042906
    78  H    0.047021
    79  H    0.052224
    80  Mg   0.837925
    81  C   -0.016791
    82  C   -0.086683
    83  C   -0.045664
    84  C   -0.065059
    85  N   -0.254631
    86  C   -0.049684
    87  C   -0.015145
    88  C   -0.090365
    89  C    0.045155
    90  C    0.113727
    91  C    0.062478
    92  C   -0.077680
    93  H    0.034027
    94  N   -0.423696
    95  C    0.162596
    96  C   -0.172924
    97  C   -0.008226
    98  C    0.152697
    99  C    0.098884
   100  C    0.015507
   101  O   -0.254104
   102  C    0.061218
   103  N   -0.350000
   104  C    0.037574
   105  C   -0.019673
   106  C   -0.034709
   107  C    0.088723
   108  C    0.074069
   109  C    0.034908
   110  C   -0.007548
   111  N   -0.324004
   112  C    0.078174
   113  C   -0.163347
   114  C    0.002119
   115  C    0.096034
   116  C    0.131515
   117  C    0.042105
   118  O   -0.188636
   119  C    0.001063
   120  C    0.211259
   121  O   -0.251130
   122  O   -0.305703
   123  C    0.152128
   124  H   -0.016317
   125  H   -0.016394
   126  H   -0.041007
   127  H   -0.001082
   128  H   -0.003921
   129  H    0.020953
   130  H    0.017187
   131  H    0.019148
   132  H    0.013875
   133  H    0.037162
   134  H    0.020873
   135  H    0.020026
   136  H    0.010432
   137  H    0.027598
   138  H    0.039097
   139  H    0.038729
   140  H    0.035560
   141  H    0.033879
   142  H    0.014004
   143  H    0.011752
   144  H    0.024076
   145  H    0.011885
   146  H    0.004309
   147  H    0.005378
   148  H    0.003501
   149  H    0.010633
   150  H    0.017620
   151  H    0.030586
   152  H    0.045516
   153  H    0.008058
   154  H    0.047241
   155  H    0.034658
   156  H    0.043400
   157  H    0.049708
   158  H    0.053397
 Sum of Mulliken charges =  -0.00000

 Dipole moment (field-independent basis, Debye):
    X=              4.9643    Y=              3.2417    Z=              1.3713  Tot=              6.0856
 Quadrupole moment (field-independent basis, Debye-Ang):
   XX=           -520.8555   YY=           -518.6041   ZZ=           -479.9243
   XY=            -12.2978   XZ=             37.8975   YZ=             14.1987

 Normal termination of Gaussian 16 at Sat Sep  4 01:23:38 2021.
