 Gaussian 16, Revision A.03,
 Gaussian 16:  ES64L-G16RevA.03 25-Dec-2016

 -----------------------------------
 #p cam-b3lyp/Def2SVP td=(nstates=5)
 -----------------------------------

 --------------------------------
 TDDFT excited states in gaussian
 --------------------------------
 Symbolic Z-matrix:
 Charge =  0 Multiplicity = 1

                         Standard orientation:
 ---------------------------------------------------------------------
 Center     Atomic      Atomic             Coordinates (Angstroms)
 Number     Number       Type             X           Y           Z
 ---------------------------------------------------------------------
      1         12           0        5.138343    0.847798    0.512985
      2          6           0        5.848753   -2.004258   -1.529883
      3          6           0        5.704759    2.777313   -2.243681
      4          6           0        4.962575    3.395000    2.393806
      5          6           0        5.741187   -1.173654    3.287147
      6          7           0        5.697264    0.334759   -1.566689
      7          6           0        5.880779   -0.799363   -2.235465
      8          6           0        6.035573   -0.592474   -3.771892
      9          6           0        6.536981    0.920994   -3.772841
     10          6           0        5.913974    1.384092   -2.467725
     11          6           0        8.052397    1.060838   -3.670562
     12          6           0        4.675523   -0.745885   -4.532458
     13          6           0        4.789349   -0.883019   -6.053508
     14          1           0        3.851433   -1.750035   -6.750604
     15          7           0        4.830637    2.748402    0.070411
     16          6           0        5.104838    3.360493   -1.106639
     17          6           0        4.697021    4.771715   -0.936876
     18          6           0        4.340154    4.973133    0.494965
     19          6           0        4.726868    3.703958    1.056237
     20          6           0        4.628414    5.750252   -2.068913
     21          6           0        3.754774    6.130143    1.241148
     22          8           0        3.740868    6.178682    2.518656
     23          6           0        3.271602    7.260127    0.427070
     24          7           0        5.536840    1.146317    2.540230
     25          6           0        5.322527    2.333372    3.118118
     26          6           0        5.404954    2.235902    4.612656
     27          6           0        5.481073    0.677107    4.950469
     28          6           0        5.513036    0.123564    3.504496
     29          6           0        6.591296    2.958200    5.266022
     30          6           0        4.420196    0.117503    5.931185
     31          6           0        3.050490    0.174171    5.292599
     32          7           0        5.522746   -1.259734    0.861680
     33          6           0        5.767162   -1.879290    2.095813
     34          6           0        6.079073   -3.292829    1.815300
     35          6           0        6.010242   -3.394207    0.427197
     36          6           0        5.702279   -2.118576   -0.126171
     37          6           0        6.433203   -4.275664    2.781251
     38          6           0        6.149449   -4.277999   -0.718835
     39          8           0        6.310556   -5.490596   -0.864258
     40          6           0        6.170500   -3.387394   -2.038762
     41          6           0        5.221029   -4.012619   -3.024108
     42          8           0        3.992458   -4.030324   -2.805784
     43          8           0        5.874777   -4.275331   -4.166096
     44          6           0        4.982797   -4.870116   -5.196997
     45          1           0        6.086211    3.492634   -2.974948
     46          1           0        4.803254    4.223073    3.087600
     47          1           0        5.856693   -1.883259    4.108470
     48          1           0        6.781653   -1.232125   -4.243736
     49          1           0        6.126352    1.485210   -4.609959
     50          1           0        8.529537    0.098920   -3.483555
     51          1           0        8.226306    1.740656   -2.836239
     52          1           0        8.455786    1.559337   -4.552352
     53          1           0        4.121987    0.191105   -4.471562
     54          1           0        4.104694   -1.586489   -4.136398
     55          1           0        5.812681   -1.103917   -6.358312
     56          1           0        4.577104    0.088096   -6.500821
     57          1           0        5.107351    5.359345   -2.965773
     58          1           0        5.239331    6.607368   -1.786351
     59          1           0        3.607472    6.076233   -2.268273
     60          1           0        4.095809    7.652725   -0.168830
     61          1           0        2.805650    7.955507    1.124339
     62          1           0        2.528819    6.892617   -0.281562
     63          1           0        4.518151    2.660157    5.081711
     64          1           0        6.433664    0.403032    5.404481
     65          1           0        6.297381    3.693709    6.015253
     66          1           0        7.181690    3.420034    4.475177
     67          1           0        7.326744    2.301674    5.730249
     68          1           0        4.378956    0.726929    6.833319
     69          1           0        4.614767   -0.911269    6.234533
     70          1           0        2.732968    1.197807    5.487997
     71          1           0        2.378776   -0.540648    5.769092
     72          1           0        3.110228    0.052397    4.210893
     73          1           0        5.882111   -5.177527    2.514961
     74          1           0        6.188316   -3.945278    3.790448
     75          1           0        7.507918   -4.345227    2.613904
     76          1           0        7.197689   -3.389646   -2.402079
     77          1           0        5.432555   -5.814248   -5.504515
     78          1           0        4.839047   -4.105644   -5.960753
     79          1           0        4.006149   -5.210444   -4.851056
     80         12           0       -5.297395   -0.957101    0.467062
     81          6           0       -5.529177    1.650318   -1.987871
     82          6           0       -4.842585    1.486992    2.802481
     83          6           0       -4.641041   -3.233783    2.577359
     84          6           0       -4.630187   -3.166204   -2.144527
     85          7           0       -5.216713    1.247351    0.305385
     86          6           0       -5.379235    2.129003   -0.669611
     87          6           0       -5.461545    3.604717   -0.195218
     88          6           0       -4.671041    3.454972    1.194588
     89          6           0       -4.951961    1.980712    1.477952
     90          6           0       -3.168759    3.636705    1.055067
     91          6           0       -6.940156    4.077596    0.033041
     92          6           0       -7.113893    5.589132    0.196888
     93          1           0       -8.317592    6.214107   -0.344367
     94          7           0       -5.298915   -0.908367    2.451046
     95          6           0       -5.122213    0.173227    3.238577
     96          6           0       -5.189744   -0.321350    4.622415
     97          6           0       -5.256124   -1.807628    4.586641
     98          6           0       -5.042284   -2.047107    3.173489
     99          6           0       -5.267117    0.592994    5.810449
    100          6           0       -5.463347   -2.842786    5.650462
    101          8           0       -5.247221   -4.086882    5.430602
    102          6           0       -5.836625   -2.347393    6.983397
    103          7           0       -4.511974   -2.872570    0.276228
    104          6           0       -4.378069   -3.674698    1.347009
    105          6           0       -4.054897   -5.090034    0.931341
    106          6           0       -4.238771   -5.123933   -0.656944
    107          6           0       -4.564015   -3.634766   -0.905883
    108          6           0       -2.654797   -5.586034    1.292009
    109          6           0       -5.203755   -6.197248   -1.230940
    110          6           0       -6.624737   -5.887095   -0.818630
    111          7           0       -5.288866   -0.856834   -1.691168
    112          6           0       -4.955007   -1.891920   -2.591835
    113          6           0       -4.983919   -1.312867   -3.950619
    114          6           0       -5.312688    0.035156   -3.742682
    115          6           0       -5.457261    0.283668   -2.350983
    116          6           0       -4.680210   -2.005308   -5.156607
    117          6           0       -5.559871    1.306843   -4.383309
    118          8           0       -5.662895    1.686851   -5.548948
    119          6           0       -5.586903    2.438165   -3.267169
    120          6           0       -6.797700    3.297937   -3.506489
    121          8           0       -7.941947    2.827630   -3.379484
    122          8           0       -6.409825    4.580214   -3.631715
    123          6           0       -7.576946    5.473380   -3.859519
    124          1           0       -4.466711    2.156745    3.576446
    125          1           0       -4.509376   -4.080733    3.254707
    126          1           0       -4.529650   -3.812327   -3.019219
    127          1           0       -4.955424    4.316771   -0.836000
    128          1           0       -5.108408    4.081848    1.967296
    129          1           0       -2.867250    3.719787    0.021464
    130          1           0       -2.723095    2.761821    1.510030
    131          1           0       -2.835193    4.490055    1.652453
    132          1           0       -7.274758    3.741624    1.022941
    133          1           0       -7.578996    3.723494   -0.752531
    134          1           0       -6.219970    6.142966   -0.114760
    135          1           0       -7.210698    5.813882    1.261845
    136          1           0       -5.031451    1.628852    5.536834
    137          1           0       -4.460049    0.301568    6.491311
    138          1           0       -6.219868    0.517339    6.338846
    139          1           0       -5.068369   -1.667654    7.344236
    140          1           0       -6.027542   -3.239081    7.583659
    141          1           0       -6.758195   -1.761526    6.893450
    142          1           0       -4.746464   -5.792400    1.380240
    143          1           0       -3.289121   -5.328677   -1.172785
    144          1           0       -2.662525   -6.505584    1.907193
    145          1           0       -2.132191   -4.789665    1.805069
    146          1           0       -2.001463   -5.781984    0.443501
    147          1           0       -4.967488   -7.179943   -0.815436
    148          1           0       -5.158650   -6.285096   -2.311334
    149          1           0       -6.688804   -6.314184    0.186644
    150          1           0       -7.332289   -6.362196   -1.495147
    151          1           0       -6.781159   -4.805899   -0.728014
    152          1           0       -5.429093   -1.712864   -5.880582
    153          1           0       -4.671873   -3.082692   -5.005169
    154          1           0       -3.680907   -1.611790   -5.361096
    155          1           0       -4.658979    3.004931   -3.352653
    156          1           0       -7.380541    6.026415   -4.783236
    157          1           0       -7.685706    6.065430   -2.931396
    158          1           0       -8.527518    5.006911   -4.090335
 ---------------------------------------------------------------------

 SCF Done:  E(RCAM-B3LYP) =  -4069.81209662     A.U. after   19 cycles

 Excitation energies and oscillator strengths:

 Excited State   1:      Singlet-A      1.6710 eV  741.99 nm  f=0.2827  <S**2>=0.000
     310 -> 316       -0.15222
     311 -> 313        0.32542
     312 -> 314        0.60413
 This state for optimization and/or second-order correction.
 Total Energy, E(TD-HF/TD-DFT) =  -4069.75068940
 Copying the excited state density for this state as the 1-particle RhoCI density.

 Excited State   2:      Singlet-A      1.6797 eV  738.13 nm  f=0.4192  <S**2>=0.000
     309 -> 315       -0.15417
     311 -> 313        0.60348
     312 -> 314       -0.32504

 Excited State   3:      Singlet-A      2.1843 eV  567.61 nm  f=0.0920  <S**2>=0.000
     309 -> 313        0.13949
     310 -> 314        0.62767
     312 -> 316        0.26530

 Excited State   4:      Singlet-A      2.1921 eV  565.61 nm  f=0.1051  <S**2>=0.000
     309 -> 313        0.62540
     310 -> 314       -0.13861
     311 -> 315        0.27111

 Excited State   5:      Singlet-A      2.4846 eV  499.01 nm  f=0.0000  <S**2>=0.000
     312 -> 313        0.70709

 The electronic state is 1-A.
 Alpha  occ. eigenvalues --  -46.87885 -46.87499 -19.26356 -19.26314 -19.19104
 Alpha  occ. eigenvalues --  -19.19102 -19.18953 -19.18581 -19.18254 -19.17954
 Alpha  occ. eigenvalues --  -14.42530 -14.42344 -14.41542 -14.41180 -14.39496
 Alpha  occ. eigenvalues --  -14.39197 -14.38674 -14.38446 -10.39160 -10.39031
 Alpha  occ. eigenvalues --  -10.35588 -10.35260 -10.34473 -10.34133 -10.31744
 Alpha  occ. eigenvalues --  -10.31743 -10.31476 -10.31166 -10.30989 -10.30885
 Alpha  occ. eigenvalues --  -10.30651 -10.30604 -10.30306 -10.30241 -10.30215
 Alpha  occ. eigenvalues --  -10.30017 -10.29945 -10.29724 -10.29706 -10.29347
 Alpha  occ. eigenvalues --  -10.29274 -10.29258 -10.28796 -10.28616 -10.28595
 Alpha  occ. eigenvalues --  -10.28536 -10.28453 -10.28263 -10.28163 -10.28017
 Alpha  occ. eigenvalues --  -10.27881 -10.27860 -10.27804 -10.27681 -10.27611
 Alpha  occ. eigenvalues --  -10.27567 -10.27558 -10.27513 -10.27488 -10.27341
 Alpha  occ. eigenvalues --  -10.27339 -10.27324 -10.27250 -10.27237 -10.27106
 Alpha  occ. eigenvalues --  -10.26964 -10.26731 -10.26608 -10.26566 -10.26307
 Alpha  occ. eigenvalues --  -10.26306 -10.26278 -10.26109 -10.25915 -10.25905
 Alpha  occ. eigenvalues --  -10.25894 -10.25752 -10.25718 -10.25547 -10.25019
 Alpha  occ. eigenvalues --  -10.24920 -10.24886 -10.24828 -10.24736 -10.24535
 Alpha  occ. eigenvalues --  -10.24518  -3.16628  -3.16249  -1.91510  -1.91131
 Alpha  occ. eigenvalues --   -1.91096  -1.90938  -1.90720  -1.90557  -1.16706
 Alpha  occ. eigenvalues --   -1.16602  -1.08711  -1.08569  -1.07359  -1.06890
 Alpha  occ. eigenvalues --   -1.06834  -1.06723  -1.04661  -1.04348  -1.03851
 Alpha  occ. eigenvalues --   -1.03503  -1.03325  -1.02868  -1.02501  -1.01948
 Alpha  occ. eigenvalues --   -0.92056  -0.91854  -0.89622  -0.89306  -0.89239
 Alpha  occ. eigenvalues --   -0.89028  -0.88391  -0.88001  -0.87951  -0.87749
 Alpha  occ. eigenvalues --   -0.87653  -0.87527  -0.87376  -0.86985  -0.85045
 Alpha  occ. eigenvalues --   -0.84872  -0.84045  -0.83663  -0.83089  -0.82781
 Alpha  occ. eigenvalues --   -0.82727  -0.82524  -0.81663  -0.81495  -0.80682
 Alpha  occ. eigenvalues --   -0.80320  -0.78889  -0.78495  -0.77302  -0.77005
 Alpha  occ. eigenvalues --   -0.77001  -0.76755  -0.75992  -0.75720  -0.74995
 Alpha  occ. eigenvalues --   -0.74582  -0.72860  -0.72544  -0.71755  -0.71409
 Alpha  occ. eigenvalues --   -0.70019  -0.69537  -0.68944  -0.68700  -0.67734
 Alpha  occ. eigenvalues --   -0.67457  -0.67283  -0.67089  -0.65351  -0.65153
 Alpha  occ. eigenvalues --   -0.64939  -0.64703  -0.64625  -0.64521  -0.64369
 Alpha  occ. eigenvalues --   -0.64006  -0.62379  -0.62172  -0.60545  -0.60182
 Alpha  occ. eigenvalues --   -0.59868  -0.59669  -0.59075  -0.58835  -0.58592
 Alpha  occ. eigenvalues --   -0.58279  -0.57666  -0.57459  -0.57407  -0.57071
 Alpha  occ. eigenvalues --   -0.56396  -0.56072  -0.56051  -0.55795  -0.55617
 Alpha  occ. eigenvalues --   -0.55438  -0.55340  -0.55076  -0.54617  -0.54324
 Alpha  occ. eigenvalues --   -0.53950  -0.53793  -0.53397  -0.53303  -0.53081
 Alpha  occ. eigenvalues --   -0.53019  -0.53003  -0.52848  -0.52783  -0.52554
 Alpha  occ. eigenvalues --   -0.52548  -0.52199  -0.51995  -0.51750  -0.51685
 Alpha  occ. eigenvalues --   -0.51548  -0.51280  -0.51068  -0.50683  -0.50339
 Alpha  occ. eigenvalues --   -0.50134  -0.50018  -0.49844  -0.49651  -0.49597
 Alpha  occ. eigenvalues --   -0.49362  -0.49301  -0.49158  -0.49085  -0.48983
 Alpha  occ. eigenvalues --   -0.48670  -0.48572  -0.48544  -0.48443  -0.48221
 Alpha  occ. eigenvalues --   -0.48157  -0.47780  -0.47453  -0.47387  -0.46955
 Alpha  occ. eigenvalues --   -0.46882  -0.46615  -0.46551  -0.46449  -0.46421
 Alpha  occ. eigenvalues --   -0.46251  -0.46114  -0.45911  -0.45896  -0.45701
 Alpha  occ. eigenvalues --   -0.45303  -0.44982  -0.44661  -0.44601  -0.44393
 Alpha  occ. eigenvalues --   -0.44340  -0.44244  -0.44153  -0.44107  -0.44003
 Alpha  occ. eigenvalues --   -0.43914  -0.43824  -0.43576  -0.43464  -0.43446
 Alpha  occ. eigenvalues --   -0.43238  -0.43112  -0.42847  -0.42795  -0.42749
 Alpha  occ. eigenvalues --   -0.42748  -0.42361  -0.42101  -0.41802  -0.41791
 Alpha  occ. eigenvalues --   -0.41595  -0.41530  -0.41320  -0.41221  -0.40955
 Alpha  occ. eigenvalues --   -0.40928  -0.40831  -0.40665  -0.40598  -0.40562
 Alpha  occ. eigenvalues --   -0.40287  -0.40276  -0.40129  -0.39558  -0.39207
 Alpha  occ. eigenvalues --   -0.38565  -0.38139  -0.37799  -0.37541  -0.37415
 Alpha  occ. eigenvalues --   -0.37326  -0.37093  -0.37055  -0.36798  -0.36683
 Alpha  occ. eigenvalues --   -0.36279  -0.36044  -0.34372  -0.34099  -0.33855
 Alpha  occ. eigenvalues --   -0.33786  -0.33275  -0.33017  -0.31482  -0.31137
 Alpha  occ. eigenvalues --   -0.31125  -0.30819  -0.30112  -0.29861  -0.29547
 Alpha  occ. eigenvalues --   -0.29410  -0.29186  -0.29072  -0.24168  -0.23877
 Alpha  occ. eigenvalues --   -0.21215  -0.20958
 Alpha virt. eigenvalues --   -0.08866  -0.08642  -0.01845  -0.01516  -0.00161
 Alpha virt. eigenvalues --    0.00104   0.02109   0.02340   0.03016   0.03377
 Alpha virt. eigenvalues --    0.04650   0.04877   0.05019   0.05230   0.06139

 Mulliken charges:
               1
     1  Mg   0.838743
     2  C   -0.002953
     3  C   -0.093575
     4  C   -0.046388
     5  C   -0.063914
     6  N   -0.256826
     7  C   -0.052189
     8  C   -0.014116
     9  C   -0.087040
    10  C    0.046302
    11  C    0.104735
    12  C    0.053289
    13  C   -0.072149
    14  H    0.036632
    15  N   -0.433091
    16  C    0.168246
    17  C   -0.176989
    18  C   -0.004426
    19  C    0.148573
    20  C    0.110040
    21  C    0.011448
    22  O   -0.250492
    23  C    0.062738
    24  N   -0.341134
    25  C    0.041306
    26  C   -0.028047
    27  C   -0.023968
    28  C    0.074774
    29  C    0.076185
    30  C    0.035185
    31  C   -0.004485
    32  N   -0.310502
    33  C    0.080493
    34  C   -0.169570
    35  C    0.008362
    36  C    0.083013
    37  C    0.127321
    38  C    0.046028
    39  O   -0.188324
    40  C   -0.005287
    41  C    0.212987
    42  O   -0.257570
    43  O   -0.304601
    44  C    0.157811
    45  H   -0.017220
    46  H   -0.017382
    47  H   -0.041321
    48  H    0.001063
    49  H   -0.003457
    50  H    0.025479
    51  H    0.016329
    52  H    0.017022
    53  H    0.011726
    54  H    0.043819
    55  H    0.017824
    56  H    0.018722
    57  H    0.006510
    58  H    0.026858
    59  H    0.039626
    60  H    0.038046
    61  H    0.034735
    62  H    0.031031
    63  H    0.015636
    64  H    0.009694
    65  H    0.022837
    66  H    0.012779
    67  H    0.004978
    68  H    0.005960
    69  H    0.005326
    70  H    0.007207
    71  H    0.018667
    72  H    0.029339
    73  H    0.047666
    74  H    0.009324
    75  H    0.046172
    76  H    0.035420
    77  H    0.043063
    78  H    0.046886
    79  H    0.053063
    80  Mg   0.838080
    81  C   -0.017209
    82  C   -0.088102
    83  C   -0.045368
    84  C   -0.063166
    85  N   -0.254592
    86  C   -0.049981
    87  C   -0.015058
    88  C   -0.090420
    89  C    0.045717
    90  C    0.114308
    91  C    0.062590
    92  C   -0.077605
    93  H    0.034324
    94  N   -0.423509
    95  C    0.163051
    96  C   -0.174745
    97  C   -0.007872
    98  C    0.152279
    99  C    0.099453
   100  C    0.015348
   101  O   -0.252982
   102  C    0.061292
   103  N   -0.349969
   104  C    0.038340
   105  C   -0.020479
   106  C   -0.035016
   107  C    0.089023
   108  C    0.072488
   109  C    0.034592
   110  C   -0.007557
   111  N   -0.324027
   112  C    0.078307
   113  C   -0.162926
   114  C    0.001741
   115  C    0.096374
   116  C    0.131654
   117  C    0.041925
   118  O   -0.189153
   119  C    0.001099
   120  C    0.211161
   121  O   -0.250946
   122  O   -0.305978
   123  C    0.152130
   124  H   -0.019450
   125  H   -0.015266
   126  H   -0.039955
   127  H   -0.001693
   128  H   -0.004432
   129  H    0.021026
   130  H    0.015323
   131  H    0.017123
   132  H    0.014037
   133  H    0.037497
   134  H    0.020250
   135  H    0.019735
   136  H    0.008872
   137  H    0.025802
   138  H    0.039446
   139  H    0.037916
   140  H    0.036135
   141  H    0.033755
   142  H    0.013812
   143  H    0.015311
   144  H    0.024648
   145  H    0.012320
   146  H    0.010235
   147  H    0.006727
   148  H    0.003497
   149  H    0.010771
   150  H    0.017325
   151  H    0.029584
   152  H    0.045227
   153  H    0.008846
   154  H    0.046876
   155  H    0.033820
   156  H    0.043207
   157  H    0.049468
   158  H    0.053590
 Sum of Mulliken charges =  -0.00000

 Dipole moment (field-independent basis, Debye):
    X=              3.2672    Y=              5.3189    Z=              1.3638  Tot=              6.3895
 Quadrupole moment (field-independent basis, Debye-Ang):
   XX=           -520.7893   YY=           -509.2275   ZZ=           -489.1769
   XY=              8.5725   XZ=            -38.2386   YZ=              7.7208

 Normal termination of Gaussian 16 at Sat Sep  4 03:51:09 2021.
