 Gaussian 16, Revision A.03,
 Gaussian 16:  ES64L-G16RevA.03 25-Dec-2016

 -----------------------------------
 #p cam-b3lyp/Def2SVP td=(nstates=5)
 -----------------------------------

 --------------------------------
 TDDFT excited states in gaussian
 --------------------------------
 Symbolic Z-matrix:
 Charge =  0 Multiplicity = 1

                         Standard orientation:
 ---------------------------------------------------------------------
 Center     Atomic      Atomic             Coordinates (Angstroms)
 Number     Number       Type             X           Y           Z
 ---------------------------------------------------------------------
      1         12           0        4.362577    0.650115    1.323611
      2          6           0        5.280418   -2.342256   -0.412909
      3          6           0        5.989817    2.389663   -1.119569
      4          6           0        3.958439    3.266893    3.068824
      5          6           0        3.821021   -1.327315    4.141793
      6          7           0        5.455846   -0.005769   -0.486147
      7          6           0        5.683724   -1.177906   -1.070389
      8          6           0        6.324829   -1.049089   -2.484519
      9          6           0        6.996880    0.388026   -2.326266
     10          6           0        6.072480    0.973864   -1.273554
     11          6           0        8.413745    0.339414   -1.763566
     12          6           0        5.253231   -1.057832   -3.626154
     13          6           0        5.805830   -1.264324   -5.039431
     14          1           0        5.019442   -2.031356   -5.993687
     15          7           0        4.456634    2.556686    0.814701
     16          6           0        5.154149    3.085421   -0.219320
     17          6           0        4.903019    4.542094   -0.177857
     18          6           0        4.156742    4.839653    1.076186
     19          6           0        4.183986    3.553466    1.724536
     20          6           0        5.311538    5.478975   -1.272899
     21          6           0        3.529175    6.087997    1.610909
     22          8           0        3.133376    6.185067    2.822724
     23          6           0        3.469645    7.239017    0.691860
     24          7           0        4.160339    0.970716    3.376402
     25          6           0        3.938035    2.195851    3.864877
     26          6           0        3.547850    2.144054    5.312293
     27          6           0        3.312100    0.601652    5.651661
     28          6           0        3.709927   -0.004547    4.283258
     29          6           0        4.562919    2.734692    6.300622
     30          6           0        1.939114    0.216859    6.257684
     31          6           0        0.848844    0.422097    5.229926
     32          7           0        4.342294   -1.474728    1.765965
     33          6           0        4.115680   -2.074128    3.013378
     34          6           0        4.309756   -3.525100    2.837077
     35          6           0        4.654243   -3.668209    1.494433
     36          6           0        4.699734   -2.385257    0.877784
     37          6           0        4.220617   -4.508369    3.861611
     38          6           0        5.018536   -4.604233    0.443240
     39          8           0        5.055588   -5.832004    0.349965
     40          6           0        5.557312   -3.772766   -0.803440
     41          6           0        4.879557   -4.309295   -2.034737
     42          8           0        3.651703   -4.163914   -2.203872
     43          8           0        5.809592   -4.694330   -2.922050
     44          6           0        5.203945   -5.209613   -4.178963
     45          1           0        6.666310    3.023684   -1.696037
     46          1           0        3.705579    4.133507    3.683218
     47          1           0        3.586686   -2.014986    4.956439
     48          1           0        7.088388   -1.794676   -2.707008
     49          1           0        6.938515    0.968186   -3.246989
     50          1           0        8.680622   -0.667405   -1.442609
     51          1           0        8.412993    1.022246   -0.913723
     52          1           0        9.128303    0.750166   -2.477336
     53          1           0        4.835512   -0.056936   -3.734684
     54          1           0        4.483712   -1.804564   -3.427264
     55          1           0        6.835065   -1.623564   -5.016407
     56          1           0        5.869338   -0.291396   -5.526852
     57          1           0        5.985170    4.997948   -1.980978
     58          1           0        5.914374    6.262097   -0.813532
     59          1           0        4.451893    5.923460   -1.774672
     60          1           0        4.480234    7.502303    0.378909
     61          1           0        2.909026    8.012869    1.215033
     62          1           0        2.936450    6.942140   -0.211752
     63          1           0        2.624098    2.693748    5.488200
     64          1           0        4.036525    0.226649    6.375024
     65          1           0        4.154045    3.528558    6.926165
     66          1           0        5.421387    3.088883    5.730646
     67          1           0        5.029160    2.008300    6.965747
     68          1           0        1.705494    0.859533    7.105822
     69          1           0        1.895204   -0.816319    6.602456
     70          1           0        0.624197    1.484108    5.322118
     71          1           0       -0.023828   -0.184251    5.474868
     72          1           0        1.218635    0.253883    4.218272
     73          1           0        3.663388   -5.342789    3.435925
     74          1           0        3.725630   -4.112690    4.748194
     75          1           0        5.276338   -4.718983    4.031760
     76          1           0        6.636716   -3.917902   -0.834153
     77          1           0        5.597927   -6.213619   -4.337023
     78          1           0        5.401308   -4.461863   -4.947287
     79          1           0        4.132529   -5.411100   -4.150495
     80         12           0       -4.186122    0.246017   -1.432116
     81          6           0       -5.878250   -1.674379    1.083402
     82          6           0       -6.180522    2.871210   -0.557275
     83          6           0       -3.034261    1.825427   -3.931333
     84          6           0       -3.163564   -2.769405   -2.848891
     85          7           0       -5.784712    0.449161    0.082983
     86          6           0       -6.298894   -0.329450    1.023045
     87          6           0       -7.262229    0.394225    2.001739
     88          6           0       -7.701947    1.611085    1.050545
     89          6           0       -6.467574    1.678606    0.153647
     90          6           0       -8.906781    1.290690    0.181597
     91          6           0       -6.529741    0.908355    3.290596
     92          6           0       -7.457489    1.348324    4.425268
     93          1           0       -7.040117    1.098368    5.802147
     94          7           0       -4.187798    2.189205   -1.835313
     95          6           0       -5.056670    3.114602   -1.377062
     96          6           0       -4.641400    4.390210   -1.980810
     97          6           0       -3.557303    4.113773   -2.962164
     98          6           0       -3.565589    2.664630   -2.962846
     99          6           0       -5.205302    5.714279   -1.553874
    100          6           0       -2.669823    5.006005   -3.776114
    101          8           0       -1.959926    4.550517   -4.741213
    102          6           0       -2.727205    6.442969   -3.470643
    103          7           0       -3.414985   -0.376055   -3.259871
    104          6           0       -2.934285    0.513490   -4.146180
    105          6           0       -2.184651   -0.177196   -5.260359
    106          6           0       -2.054327   -1.705463   -4.807576
    107          6           0       -2.864476   -1.650123   -3.493808
    108          6           0       -2.835503   -0.109682   -6.641743
    109          6           0       -0.623372   -2.308389   -4.768721
    110          6           0        0.184295   -1.650503   -3.673154
    111          7           0       -4.296193   -1.842931   -0.891505
    112          6           0       -3.827173   -2.943880   -1.641185
    113          6           0       -4.231940   -4.166986   -0.918278
    114          6           0       -4.933869   -3.689447    0.198753
    115          6           0       -4.981830   -2.269618    0.163150
    116          6           0       -3.985246   -5.503485   -1.341409
    117          6           0       -5.654322   -4.063984    1.394310
    118          8           0       -5.864077   -5.121766    1.986634
    119          6           0       -6.406821   -2.780581    1.953783
    120          6           0       -6.143454   -2.695418    3.432265
    121          8           0       -4.993858   -2.487216    3.858517
    122          8           0       -7.317966   -2.656458    4.087531
    123          6           0       -7.108998   -2.560680    5.556879
    124          1           0       -6.904866    3.685288   -0.518760
    125          1           0       -2.526873    2.324049   -4.760437
    126          1           0       -2.798468   -3.745928   -3.174161
    127          1           0       -8.131631   -0.182830    2.293160
    128          1           0       -7.813998    2.533115    1.615046
    129          1           0       -9.196943    0.253613    0.261725
    130          1           0       -8.608265    1.522788   -0.832334
    131          1           0       -9.731698    1.969646    0.415799
    132          1           0       -6.040086    1.864832    3.066688
    133          1           0       -5.837540    0.173909    3.654012
    134          1           0       -8.489016    1.009998    4.268938
    135          1           0       -7.528217    2.438668    4.412656
    136          1           0       -6.101198    5.588690   -0.933384
    137          1           0       -5.569187    6.213497   -2.458432
    138          1           0       -4.461907    6.353171   -1.072371
    139          1           0       -3.746000    6.799697   -3.601991
    140          1           0       -1.958816    6.905043   -4.093490
    141          1           0       -2.477475    6.586134   -2.413402
    142          1           0       -1.192227    0.240909   -5.375980
    143          1           0       -2.599656   -2.379017   -5.484911
    144          1           0       -2.178623    0.336021   -7.412411
    145          1           0       -3.757377    0.450353   -6.557714
    146          1           0       -3.180002   -1.063747   -7.037064
    147          1           0       -0.100299   -2.103005   -5.705929
    148          1           0       -0.611386   -3.383256   -4.622079
    149          1           0        0.544025   -0.733153   -4.148699
    150          1           0        1.011865   -2.289209   -3.371114
    151          1           0       -0.456721   -1.357132   -2.833701
    152          1           0       -3.664421   -6.052893   -0.466357
    153          1           0       -3.237026   -5.538981   -2.130513
    154          1           0       -4.978683   -5.779465   -1.704985
    155          1           0       -7.468165   -2.901040    1.733279
    156          1           0       -7.650101   -3.396175    6.011673
    157          1           0       -7.429628   -1.540023    5.838318
    158          1           0       -6.106410   -2.728493    5.932527
 ---------------------------------------------------------------------

 SCF Done:  E(RCAM-B3LYP) =  -4069.81315358     A.U. after   19 cycles

 Excitation energies and oscillator strengths:

 Excited State   1:      Singlet-A      1.6461 eV  753.20 nm  f=0.0040  <S**2>=0.000
     309 -> 315       -0.11311
     310 -> 316        0.12199
     311 -> 313       -0.46573
     312 -> 314        0.50601
 This state for optimization and/or second-order correction.
 Total Energy, E(TD-HF/TD-DFT) =  -4069.75266020
 Copying the excited state density for this state as the 1-particle RhoCI density.

 Excited State   2:      Singlet-A      1.7020 eV  728.44 nm  f=0.6994  <S**2>=0.000
     309 -> 315        0.13343
     310 -> 316        0.12190
     311 -> 313        0.50345
     312 -> 314        0.46345

 Excited State   3:      Singlet-A      2.1809 eV  568.49 nm  f=0.0275  <S**2>=0.000
     309 -> 313        0.28124
     310 -> 314        0.57989
     311 -> 315       -0.11641
     312 -> 316       -0.24210

 Excited State   4:      Singlet-A      2.1946 eV  564.94 nm  f=0.1529  <S**2>=0.000
     309 -> 313        0.57581
     310 -> 314       -0.27761
     311 -> 315       -0.25246
     312 -> 316        0.12325

 Excited State   5:      Singlet-A      2.4622 eV  503.55 nm  f=0.0000  <S**2>=0.000
     312 -> 313        0.70702

 The electronic state is 1-A.
 Alpha  occ. eigenvalues --  -46.87630 -46.87432 -19.26372 -19.26231 -19.19167
 Alpha  occ. eigenvalues --  -19.19030 -19.18697 -19.18596 -19.18056 -19.17855
 Alpha  occ. eigenvalues --  -14.42294 -14.42280 -14.41279 -14.41114 -14.39240
 Alpha  occ. eigenvalues --  -14.39135 -14.38420 -14.38365 -10.39182 -10.38954
 Alpha  occ. eigenvalues --  -10.35333 -10.35280 -10.34284 -10.34033 -10.31784
 Alpha  occ. eigenvalues --  -10.31669 -10.31253 -10.31082 -10.30840 -10.30782
 Alpha  occ. eigenvalues --  -10.30403 -10.30343 -10.30165 -10.30119 -10.30023
 Alpha  occ. eigenvalues --  -10.29889 -10.29746 -10.29638 -10.29467 -10.29218
 Alpha  occ. eigenvalues --  -10.29175 -10.29084 -10.28665 -10.28559 -10.28544
 Alpha  occ. eigenvalues --  -10.28535 -10.28220 -10.28203 -10.28004 -10.27967
 Alpha  occ. eigenvalues --  -10.27782 -10.27630 -10.27564 -10.27450 -10.27425
 Alpha  occ. eigenvalues --  -10.27303 -10.27299 -10.27275 -10.27273 -10.27269
 Alpha  occ. eigenvalues --  -10.27258 -10.27257 -10.27163 -10.27101 -10.27099
 Alpha  occ. eigenvalues --  -10.26875 -10.26668 -10.26554 -10.26371 -10.26320
 Alpha  occ. eigenvalues --  -10.26126 -10.25873 -10.25867 -10.25827 -10.25651
 Alpha  occ. eigenvalues --  -10.25613 -10.25589 -10.25522 -10.25277 -10.25200
 Alpha  occ. eigenvalues --  -10.24676 -10.24653 -10.24629 -10.24468 -10.24282
 Alpha  occ. eigenvalues --  -10.23921  -3.16373  -3.16182  -1.91254  -1.91064
 Alpha  occ. eigenvalues --   -1.90841  -1.90683  -1.90653  -1.90490  -1.16721
 Alpha  occ. eigenvalues --   -1.16521  -1.08528  -1.08466  -1.07102  -1.06856
 Alpha  occ. eigenvalues --   -1.06813  -1.06747  -1.04432  -1.04284  -1.03595
 Alpha  occ. eigenvalues --   -1.03437  -1.03068  -1.02799  -1.02246  -1.01880
 Alpha  occ. eigenvalues --   -0.91848  -0.91777  -0.89318  -0.89188  -0.89081
 Alpha  occ. eigenvalues --   -0.88965  -0.88089  -0.87901  -0.87690  -0.87542
 Alpha  occ. eigenvalues --   -0.87523  -0.87460  -0.87121  -0.86946  -0.84874
 Alpha  occ. eigenvalues --   -0.84816  -0.83735  -0.83529  -0.82819  -0.82754
 Alpha  occ. eigenvalues --   -0.82544  -0.82451  -0.81521  -0.81404  -0.80483
 Alpha  occ. eigenvalues --   -0.80247  -0.78635  -0.78426  -0.77060  -0.76922
 Alpha  occ. eigenvalues --   -0.76830  -0.76655  -0.75819  -0.75644  -0.74732
 Alpha  occ. eigenvalues --   -0.74534  -0.72604  -0.72452  -0.71534  -0.71371
 Alpha  occ. eigenvalues --   -0.69657  -0.69330  -0.68756  -0.68630  -0.67507
 Alpha  occ. eigenvalues --   -0.67397  -0.67126  -0.67045  -0.65179  -0.65084
 Alpha  occ. eigenvalues --   -0.64735  -0.64541  -0.64492  -0.64441  -0.64077
 Alpha  occ. eigenvalues --   -0.63882  -0.62250  -0.62083  -0.60283  -0.60137
 Alpha  occ. eigenvalues --   -0.59680  -0.59605  -0.58842  -0.58764  -0.58370
 Alpha  occ. eigenvalues --   -0.58202  -0.57532  -0.57370  -0.57158  -0.56997
 Alpha  occ. eigenvalues --   -0.56182  -0.55986  -0.55953  -0.55722  -0.55398
 Alpha  occ. eigenvalues --   -0.55289  -0.55205  -0.54982  -0.54421  -0.54197
 Alpha  occ. eigenvalues --   -0.53799  -0.53740  -0.53154  -0.53114  -0.53029
 Alpha  occ. eigenvalues --   -0.52935  -0.52839  -0.52706  -0.52637  -0.52532
 Alpha  occ. eigenvalues --   -0.52172  -0.51911  -0.51730  -0.51603  -0.51517
 Alpha  occ. eigenvalues --   -0.51496  -0.51054  -0.50948  -0.50422  -0.50314
 Alpha  occ. eigenvalues --   -0.49846  -0.49798  -0.49764  -0.49534  -0.49408
 Alpha  occ. eigenvalues --   -0.49320  -0.49104  -0.49025  -0.48985  -0.48899
 Alpha  occ. eigenvalues --   -0.48505  -0.48376  -0.48339  -0.48299  -0.48195
 Alpha  occ. eigenvalues --   -0.48117  -0.47565  -0.47389  -0.47162  -0.46923
 Alpha  occ. eigenvalues --   -0.46633  -0.46466  -0.46460  -0.46360  -0.46208
 Alpha  occ. eigenvalues --   -0.46026  -0.46014  -0.45846  -0.45717  -0.45602
 Alpha  occ. eigenvalues --   -0.45025  -0.44926  -0.44471  -0.44365  -0.44343
 Alpha  occ. eigenvalues --   -0.44240  -0.44011  -0.43953  -0.43946  -0.43891
 Alpha  occ. eigenvalues --   -0.43779  -0.43742  -0.43415  -0.43318  -0.43244
 Alpha  occ. eigenvalues --   -0.43178  -0.42890  -0.42759  -0.42707  -0.42678
 Alpha  occ. eigenvalues --   -0.42440  -0.42236  -0.41820  -0.41609  -0.41568
 Alpha  occ. eigenvalues --   -0.41451  -0.41417  -0.41199  -0.41006  -0.40786
 Alpha  occ. eigenvalues --   -0.40742  -0.40703  -0.40594  -0.40478  -0.40375
 Alpha  occ. eigenvalues --   -0.40162  -0.40143  -0.40084  -0.39172  -0.38960
 Alpha  occ. eigenvalues --   -0.38287  -0.38062  -0.37671  -0.37482  -0.37152
 Alpha  occ. eigenvalues --   -0.37137  -0.37018  -0.36969  -0.36728  -0.36603
 Alpha  occ. eigenvalues --   -0.36081  -0.35960  -0.34133  -0.34027  -0.33843
 Alpha  occ. eigenvalues --   -0.33714  -0.33038  -0.32946  -0.31227  -0.31154
 Alpha  occ. eigenvalues --   -0.30892  -0.30756  -0.29921  -0.29758  -0.29290
 Alpha  occ. eigenvalues --   -0.29158  -0.29127  -0.28983  -0.23924  -0.23807
 Alpha  occ. eigenvalues --   -0.20960  -0.20886
 Alpha virt. eigenvalues --   -0.08615  -0.08573  -0.01588  -0.01460   0.00077
 Alpha virt. eigenvalues --    0.00140   0.02341   0.02427   0.02911   0.03864
 Alpha virt. eigenvalues --    0.04831   0.04920   0.04964   0.05309   0.06169

 Mulliken charges:
               1
     1  Mg   0.839354
     2  C   -0.004179
     3  C   -0.093601
     4  C   -0.045917
     5  C   -0.062694
     6  N   -0.256816
     7  C   -0.052627
     8  C   -0.014173
     9  C   -0.087057
    10  C    0.046344
    11  C    0.104868
    12  C    0.051712
    13  C   -0.071213
    14  H    0.033328
    15  N   -0.433074
    16  C    0.168762
    17  C   -0.176693
    18  C   -0.004116
    19  C    0.148691
    20  C    0.110076
    21  C    0.011897
    22  O   -0.250388
    23  C    0.062344
    24  N   -0.341255
    25  C    0.041445
    26  C   -0.027912
    27  C   -0.024157
    28  C    0.075143
    29  C    0.076383
    30  C    0.034874
    31  C   -0.005141
    32  N   -0.310682
    33  C    0.080938
    34  C   -0.168117
    35  C    0.008139
    36  C    0.083606
    37  C    0.127105
    38  C    0.046063
    39  O   -0.188785
    40  C   -0.005659
    41  C    0.213383
    42  O   -0.258097
    43  O   -0.303953
    44  C    0.157829
    45  H   -0.017882
    46  H   -0.017274
    47  H   -0.040366
    48  H    0.000471
    49  H   -0.003868
    50  H    0.025225
    51  H    0.016598
    52  H    0.016454
    53  H    0.012899
    54  H    0.044706
    55  H    0.018127
    56  H    0.018932
    57  H    0.005980
    58  H    0.026093
    59  H    0.040843
    60  H    0.037504
    61  H    0.034215
    62  H    0.031982
    63  H    0.016358
    64  H    0.009074
    65  H    0.022602
    66  H    0.012110
    67  H    0.004629
    68  H    0.005327
    69  H    0.005940
    70  H    0.006635
    71  H    0.024403
    72  H    0.028770
    73  H    0.048628
    74  H    0.010573
    75  H    0.045347
    76  H    0.035271
    77  H    0.043628
    78  H    0.046664
    79  H    0.051679
    80  Mg   0.837922
    81  C   -0.017445
    82  C   -0.088037
    83  C   -0.045915
    84  C   -0.062747
    85  N   -0.254588
    86  C   -0.049774
    87  C   -0.015172
    88  C   -0.090427
    89  C    0.045515
    90  C    0.114538
    91  C    0.062573
    92  C   -0.077481
    93  H    0.033816
    94  N   -0.423253
    95  C    0.162654
    96  C   -0.174958
    97  C   -0.008472
    98  C    0.151865
    99  C    0.099423
   100  C    0.014566
   101  O   -0.254862
   102  C    0.061446
   103  N   -0.350444
   104  C    0.037819
   105  C   -0.019050
   106  C   -0.034869
   107  C    0.089856
   108  C    0.074208
   109  C    0.034632
   110  C   -0.015708
   111  N   -0.324521
   112  C    0.079500
   113  C   -0.160890
   114  C    0.001880
   115  C    0.096872
   116  C    0.131149
   117  C    0.042644
   118  O   -0.187972
   119  C    0.000758
   120  C    0.211336
   121  O   -0.251489
   122  O   -0.305543
   123  C    0.152347
   124  H   -0.020413
   125  H   -0.016738
   126  H   -0.038025
   127  H   -0.001011
   128  H   -0.004674
   129  H    0.022182
   130  H    0.014367
   131  H    0.015718
   132  H    0.014312
   133  H    0.037261
   134  H    0.020640
   135  H    0.019635
   136  H    0.008576
   137  H    0.025176
   138  H    0.039454
   139  H    0.038506
   140  H    0.033984
   141  H    0.033757
   142  H    0.013524
   143  H    0.011250
   144  H    0.023437
   145  H    0.010889
   146  H    0.005261
   147  H    0.002422
   148  H    0.006852
   149  H    0.004221
   150  H    0.039312
   151  H    0.027168
   152  H    0.047366
   153  H    0.011400
   154  H    0.045843
   155  H    0.034613
   156  H    0.043705
   157  H    0.049304
   158  H    0.052772
 Sum of Mulliken charges =  -0.00000

 Dipole moment (field-independent basis, Debye):
    X=              0.2937    Y=              6.5581    Z=             -2.1056  Tot=              6.8941
 Quadrupole moment (field-independent basis, Debye-Ang):
   XX=           -458.8458   YY=           -537.3157   ZZ=           -480.2294
   XY=            -14.2996   XZ=            -22.9588   YZ=             12.4652

 Normal termination of Gaussian 16 at Thu Sep  9 16:31:19 2021.
