 Gaussian 16, Revision A.03,
 Gaussian 16:  ES64L-G16RevA.03 25-Dec-2016

 -----------------------------------
 #p cam-b3lyp/Def2SVP td=(nstates=5)
 -----------------------------------

 --------------------------------
 TDDFT excited states in gaussian
 --------------------------------
 Symbolic Z-matrix:
 Charge =  0 Multiplicity = 1

                         Standard orientation:
 ---------------------------------------------------------------------
 Center     Atomic      Atomic             Coordinates (Angstroms)
 Number     Number       Type             X           Y           Z
 ---------------------------------------------------------------------
      1         12           0        7.708985    0.663531    0.097487
      2          6           0        8.051998   -2.594574   -1.344494
      3          6           0        8.635824    1.937722   -2.929140
      4          6           0        7.854442    3.520204    1.466751
      5          6           0        7.924030   -0.859453    3.224776
      6          7           0        8.248120   -0.307021   -1.817718
      7          6           0        8.282371   -1.561624   -2.255859
      8          6           0        8.511850   -1.673236   -3.792823
      9          6           0        9.230677   -0.272169   -4.042413
     10          6           0        8.643989    0.511983   -2.881884
     11          6           0       10.746408   -0.327794   -3.881269
     12          6           0        7.167405   -1.777168   -4.588685
     13          6           0        7.305211   -2.214541   -6.049872
     14          1           0        6.271009   -3.058802   -6.628661
     15          7           0        7.698177    2.469812   -0.702563
     16          6           0        8.094687    2.803525   -1.954243
     17          6           0        7.894456    4.264117   -2.069391
     18          6           0        7.528517    4.780896   -0.721384
     19          6           0        7.706961    3.599838    0.083995
     20          6           0        8.004728    5.010249   -3.363562
     21          6           0        7.098032    6.128351   -0.234373
     22          8           0        7.053232    6.419553    1.009720
     23          6           0        6.811269    7.139639   -1.267865
     24          7           0        8.086324    1.282378    2.055108
     25          6           0        8.032146    2.575494    2.392598
     26          6           0        8.054571    2.752500    3.881928
     27          6           0        7.889944    1.290827    4.503349
     28          6           0        7.883192    0.474341    3.187455
     29          6           0        9.314348    3.413235    4.458470
     30          6           0        6.729317    1.080422    5.507885
     31          6           0        5.402644    1.205138    4.792704
     32          7           0        7.767923   -1.372343    0.847679
     33          6           0        7.881323   -1.774681    2.186312
     34          6           0        7.989710   -3.245164    2.187724
     35          6           0        7.948232   -3.597165    0.840052
     36          6           0        7.848358   -2.419295    0.045736
     37          6           0        8.166046   -4.066687    3.335957
     38          6           0        7.989853   -4.692731   -0.114862
     39          8           0        7.974732   -5.921314   -0.026275
     40          6           0        8.181420   -4.080151   -1.572214
     41          6           0        7.180057   -4.742414   -2.478849
     42          8           0        5.956323   -4.547245   -2.331368
     43          8           0        7.821795   -5.305164   -3.514236
     44          6           0        6.883118   -5.954476   -4.467879
     45          1           0        9.140249    2.441319   -3.756114
     46          1           0        7.798247    4.478712    1.986887
     47          1           0        7.909058   -1.409600    4.167414
     48          1           0        9.169265   -2.488216   -4.096201
     49          1           0        8.932925    0.174750   -4.990742
     50          1           0       11.070734   -1.293720   -3.494331
     51          1           0       10.993597    0.466863   -3.177061
     52          1           0       11.245062   -0.066519   -4.815002
     53          1           0        6.756463   -0.777860   -4.732112
     54          1           0        6.467314   -2.439698   -4.078535
     55          1           0        8.293455   -2.629444   -6.250217
     56          1           0        7.251907   -1.325876   -6.678866
     57          1           0        8.447417    4.393683   -4.144854
     58          1           0        8.726588    5.811848   -3.208433
     59          1           0        7.049414    5.431418   -3.677129
     60          1           0        7.701794    7.293587   -1.877632
     61          1           0        6.432268    8.012514   -0.737489
     62          1           0        6.043956    6.751534   -1.938352
     63          1           0        7.226366    3.377182    4.214005
     64          1           0        8.777720    0.977881    5.053433
     65          1           0        9.109789    4.311013    5.042298
     66          1           0        9.989754    3.630078    3.631368
     67          1           0        9.930770    2.760719    5.076259
     68          1           0        6.751399    1.849457    6.279276
     69          1           0        6.760954    0.110893    6.005142
     70          1           0        5.233781    2.281300    4.778862
     71          1           0        4.618952    0.694151    5.352999
     72          1           0        5.476103    0.873479    3.756803
     73          1           0        7.496247   -4.917022    3.208405
     74          1           0        7.942464   -3.520234    4.251928
     75          1           0        9.223286   -4.315602    3.245722
     76          1           0        9.207457   -4.294163   -1.869819
     77          1           0        7.197785   -6.993015   -4.571099
     78          1           0        6.876534   -5.336160   -5.365680
     79          1           0        5.857068   -6.083766   -4.121693
     80         12           0       -8.142443    0.191095   -0.369857
     81          6           0       -6.755672   -1.274411    2.598009
     82          6           0       -7.502990    3.240942    1.017274
     83          6           0       -9.760437    1.507211   -2.760955
     84          6           0       -9.682234   -2.872103   -0.995630
     85          7           0       -7.241913    0.777893    1.563273
     86          6           0       -6.695677    0.134718    2.584208
     87          6           0       -5.977638    1.050568    3.611437
     88          6           0       -6.770356    2.414814    3.312600
     89          6           0       -7.171019    2.152049    1.862391
     90          6           0       -8.037166    2.567913    4.137875
     91          6           0       -4.444840    1.199203    3.310729
     92          6           0       -3.625131    1.823654    4.442052
     93          1           0       -2.262634    1.345653    4.660167
     94          7           0       -8.144064    2.056979   -1.045899
     95          6           0       -7.836003    3.173624   -0.353453
     96          6           0       -8.010266    4.291230   -1.294068
     97          6           0       -8.604889    3.758815   -2.550124
     98          6           0       -8.884912    2.394018   -2.151373
     99          6           0       -7.552731    5.688507   -0.991269
    100          6           0       -8.887918    4.379303   -3.884693
    101          8           0       -9.627191    3.796942   -4.754848
    102          6           0       -8.351049    5.729826   -4.106873
    103          7           0       -9.688846   -0.500520   -1.575112
    104          6           0      -10.175550    0.253889   -2.576060
    105          6           0      -11.083933   -0.551514   -3.474151
    106          6           0      -10.914222   -2.071081   -3.005446
    107          6           0       -9.963272   -1.861444   -1.806641
    108          6           0      -12.563697   -0.170253   -3.437893
    109          6           0      -10.513645   -3.103092   -4.095018
    110          6           0       -9.106521   -2.827809   -4.574181
    111          7           0       -8.079348   -1.787184    0.496454
    112          6           0       -8.823856   -2.918102    0.095464
    113          6           0       -8.526118   -3.998884    1.057592
    114          6           0       -7.639795   -3.410195    1.972122
    115          6           0       -7.417703   -2.052131    1.617393
    116          6           0       -9.088878   -5.306218    1.040502
    117          6           0       -6.849878   -3.625770    3.163031
    118          8           0       -6.575658   -4.602976    3.858439
    119          6           0       -6.341074   -2.216626    3.693897
    120          6           0       -4.872512   -2.336857    3.996192
    121          8           0       -4.054053   -2.543359    3.082907
    122          8           0       -4.654372   -1.973906    5.273328
    123          6           0       -3.210448   -2.065907    5.617472
    124          1           0       -7.554947    4.238993    1.453248
    125          1           0      -10.260028    1.879662   -3.658263
    126          1           0      -10.046285   -3.885466   -1.177886
    127          1           0       -6.110454    0.762648    4.647415
    128          1           0       -6.111135    3.276667    3.375880
    129          1           0       -8.258499    1.676248    4.705403
    130          1           0       -8.828193    2.770470    3.427740
    131          1           0       -7.968103    3.455445    4.773377
    132          1           0       -4.304655    1.961947    2.533996
    133          1           0       -4.017653    0.255119    3.033530
    134          1           0       -4.179815    1.848251    5.387918
    135          1           0       -3.452361    2.876312    4.205215
    136          1           0       -7.304656    5.809343    0.070457
    137          1           0       -8.413977    6.347503   -1.145681
    138          1           0       -6.737285    6.014673   -1.640369
    139          1           0       -8.745757    6.404262   -3.350689
    140          1           0       -8.579825    5.967697   -5.147521
    141          1           0       -7.264608    5.701750   -3.967303
    142          1           0      -10.778007   -0.466913   -4.509696
    143          1           0      -11.850539   -2.478287   -2.596369
    144          1           0      -12.969361    0.099597   -4.431216
    145          1           0      -12.688382    0.647994   -2.741143
    146          1           0      -13.226043   -0.928838   -3.024301
    147          1           0      -11.163693   -3.003946   -4.967810
    148          1           0      -10.579524   -4.132764   -3.759710
    149          1           0       -9.249515   -2.040491   -5.320344
    150          1           0       -8.672286   -3.720248   -5.020308
    151          1           0       -8.490998   -2.410716   -3.768689
    152          1           0       -8.278876   -5.996432    1.235469
    153          1           0       -9.572774   -5.518375    0.089392
    154          1           0       -9.810087   -5.218797    1.857493
    155          1           0       -6.923373   -1.971821    4.583031
    156          1           0       -3.131789   -2.716053    6.494291
    157          1           0       -2.863491   -1.021735    5.731872
    158          1           0       -2.559748   -2.576013    4.916890
 ---------------------------------------------------------------------

 SCF Done:  E(RCAM-B3LYP) =  -4069.81153407     A.U. after   19 cycles

 Excitation energies and oscillator strengths:

 Excited State   1:      Singlet-A      1.6697 eV  742.57 nm  f=0.0171  <S**2>=0.000
     309 -> 315       -0.10479
     310 -> 316        0.13666
     311 -> 313       -0.41643
     312 -> 314        0.54562
 This state for optimization and/or second-order correction.
 Total Energy, E(TD-HF/TD-DFT) =  -4069.75017486
 Copying the excited state density for this state as the 1-particle RhoCI density.

 Excited State   2:      Singlet-A      1.6854 eV  735.62 nm  f=0.7391  <S**2>=0.000
     309 -> 315        0.14047
     310 -> 316        0.10673
     311 -> 313        0.54476
     312 -> 314        0.41588

 Excited State   3:      Singlet-A      2.1853 eV  567.35 nm  f=0.0701  <S**2>=0.000
     309 -> 313        0.13623
     310 -> 314        0.62813
     312 -> 316       -0.26636

 Excited State   4:      Singlet-A      2.1922 eV  565.57 nm  f=0.1259  <S**2>=0.000
     309 -> 313        0.62621
     310 -> 314       -0.13531
     311 -> 315       -0.27179

 Excited State   5:      Singlet-A      2.7990 eV  442.96 nm  f=0.0000  <S**2>=0.000
     312 -> 313        0.70706

 The electronic state is 1-A.
 Alpha  occ. eigenvalues --  -46.87751 -46.87588 -19.26229 -19.26174 -19.19034
 Alpha  occ. eigenvalues --  -19.18906 -19.18803 -19.18663 -19.18098 -19.17963
 Alpha  occ. eigenvalues --  -14.42425 -14.42402 -14.41410 -14.41289 -14.39360
 Alpha  occ. eigenvalues --  -14.39282 -14.38536 -14.38525 -10.38971 -10.38969
 Alpha  occ. eigenvalues --  -10.35438 -10.35342 -10.34316 -10.34139 -10.31630
 Alpha  occ. eigenvalues --  -10.31558 -10.31349 -10.31231 -10.30950 -10.30860
 Alpha  occ. eigenvalues --  -10.30518 -10.30464 -10.30326 -10.30284 -10.30179
 Alpha  occ. eigenvalues --  -10.30079 -10.29882 -10.29825 -10.29587 -10.29371
 Alpha  occ. eigenvalues --  -10.29330 -10.29216 -10.28684 -10.28636 -10.28552
 Alpha  occ. eigenvalues --  -10.28451 -10.28331 -10.28315 -10.28063 -10.28058
 Alpha  occ. eigenvalues --  -10.27928 -10.27744 -10.27681 -10.27598 -10.27545
 Alpha  occ. eigenvalues --  -10.27491 -10.27461 -10.27453 -10.27439 -10.27412
 Alpha  occ. eigenvalues --  -10.27409 -10.27398 -10.27352 -10.27320 -10.27082
 Alpha  occ. eigenvalues --  -10.26958 -10.26623 -10.26592 -10.26418 -10.26381
 Alpha  occ. eigenvalues --  -10.26193 -10.26181 -10.26081 -10.25981 -10.25958
 Alpha  occ. eigenvalues --  -10.25865 -10.25781 -10.25772 -10.25430 -10.25351
 Alpha  occ. eigenvalues --  -10.24797 -10.24780 -10.24750 -10.24709 -10.24670
 Alpha  occ. eigenvalues --  -10.24621  -3.16493  -3.16338  -1.91375  -1.91220
 Alpha  occ. eigenvalues --   -1.90962  -1.90809  -1.90804  -1.90645  -1.16522
 Alpha  occ. eigenvalues --   -1.16522  -1.08566  -1.08551  -1.07207  -1.06917
 Alpha  occ. eigenvalues --   -1.06821  -1.06530  -1.04532  -1.04422  -1.03720
 Alpha  occ. eigenvalues --   -1.03592  -1.03190  -1.02969  -1.02367  -1.02040
 Alpha  occ. eigenvalues --   -0.91915  -0.91908  -0.89494  -0.89427  -0.89127
 Alpha  occ. eigenvalues --   -0.89072  -0.88264  -0.88157  -0.87816  -0.87718
 Alpha  occ. eigenvalues --   -0.87625  -0.87610  -0.87244  -0.87061  -0.84926
 Alpha  occ. eigenvalues --   -0.84921  -0.83916  -0.83812  -0.82953  -0.82878
 Alpha  occ. eigenvalues --   -0.82598  -0.82579  -0.81513  -0.81505  -0.80541
 Alpha  occ. eigenvalues --   -0.80362  -0.78758  -0.78569  -0.77178  -0.77072
 Alpha  occ. eigenvalues --   -0.76876  -0.76818  -0.75861  -0.75757  -0.74867
 Alpha  occ. eigenvalues --   -0.74737  -0.72730  -0.72627  -0.71627  -0.71509
 Alpha  occ. eigenvalues --   -0.69897  -0.69696  -0.68821  -0.68751  -0.67596
 Alpha  occ. eigenvalues --   -0.67528  -0.67164  -0.67122  -0.65227  -0.65189
 Alpha  occ. eigenvalues --   -0.64801  -0.64695  -0.64572  -0.64569  -0.64240
 Alpha  occ. eigenvalues --   -0.64136  -0.62221  -0.62183  -0.60413  -0.60278
 Alpha  occ. eigenvalues --   -0.59748  -0.59719  -0.58941  -0.58919  -0.58455
 Alpha  occ. eigenvalues --   -0.58349  -0.57512  -0.57460  -0.57266  -0.57167
 Alpha  occ. eigenvalues --   -0.56263  -0.56131  -0.55895  -0.55791  -0.55481
 Alpha  occ. eigenvalues --   -0.55379  -0.55298  -0.55172  -0.54468  -0.54405
 Alpha  occ. eigenvalues --   -0.53834  -0.53831  -0.53262  -0.53172  -0.53159
 Alpha  occ. eigenvalues --   -0.53065  -0.52856  -0.52816  -0.52721  -0.52608
 Alpha  occ. eigenvalues --   -0.52427  -0.52338  -0.51856  -0.51806  -0.51580
 Alpha  occ. eigenvalues --   -0.51560  -0.51143  -0.51122  -0.50556  -0.50423
 Alpha  occ. eigenvalues --   -0.50014  -0.49913  -0.49887  -0.49807  -0.49468
 Alpha  occ. eigenvalues --   -0.49420  -0.49161  -0.49124  -0.49038  -0.49026
 Alpha  occ. eigenvalues --   -0.48532  -0.48474  -0.48437  -0.48399  -0.48310
 Alpha  occ. eigenvalues --   -0.48274  -0.47652  -0.47522  -0.47256  -0.47051
 Alpha  occ. eigenvalues --   -0.46756  -0.46636  -0.46495  -0.46475  -0.46317
 Alpha  occ. eigenvalues --   -0.46199  -0.46111  -0.46008  -0.45753  -0.45735
 Alpha  occ. eigenvalues --   -0.45176  -0.45145  -0.44517  -0.44475  -0.44434
 Alpha  occ. eigenvalues --   -0.44402  -0.44114  -0.44054  -0.44036  -0.44009
 Alpha  occ. eigenvalues --   -0.43965  -0.43868  -0.43462  -0.43426  -0.43342
 Alpha  occ. eigenvalues --   -0.43308  -0.42978  -0.42844  -0.42807  -0.42663
 Alpha  occ. eigenvalues --   -0.42579  -0.42491  -0.41973  -0.41891  -0.41653
 Alpha  occ. eigenvalues --   -0.41591  -0.41479  -0.41382  -0.41095  -0.40918
 Alpha  occ. eigenvalues --   -0.40828  -0.40800  -0.40658  -0.40627  -0.40541
 Alpha  occ. eigenvalues --   -0.40426  -0.40167  -0.40143  -0.39436  -0.39364
 Alpha  occ. eigenvalues --   -0.38442  -0.38285  -0.37683  -0.37567  -0.37289
 Alpha  occ. eigenvalues --   -0.37203  -0.37197  -0.37120  -0.36665  -0.36634
 Alpha  occ. eigenvalues --   -0.36136  -0.36130  -0.34238  -0.34179  -0.33744
 Alpha  occ. eigenvalues --   -0.33669  -0.33136  -0.33101  -0.31332  -0.31221
 Alpha  occ. eigenvalues --   -0.30990  -0.30901  -0.29955  -0.29866  -0.29409
 Alpha  occ. eigenvalues --   -0.29269  -0.29260  -0.29136  -0.24034  -0.23963
 Alpha  occ. eigenvalues --   -0.21084  -0.21046
 Alpha virt. eigenvalues --   -0.08730  -0.08721  -0.01711  -0.01615  -0.00022
 Alpha virt. eigenvalues --    0.00036   0.02255   0.02285   0.03181   0.03313
 Alpha virt. eigenvalues --    0.04771   0.04807   0.05200   0.05281   0.06250

 Mulliken charges:
               1
     1  Mg   0.839056
     2  C   -0.002652
     3  C   -0.094003
     4  C   -0.046122
     5  C   -0.064114
     6  N   -0.256735
     7  C   -0.052307
     8  C   -0.014031
     9  C   -0.087008
    10  C    0.046298
    11  C    0.104843
    12  C    0.053444
    13  C   -0.071920
    14  H    0.036683
    15  N   -0.433068
    16  C    0.168310
    17  C   -0.177242
    18  C   -0.004269
    19  C    0.148658
    20  C    0.110207
    21  C    0.012007
    22  O   -0.250158
    23  C    0.062594
    24  N   -0.341143
    25  C    0.041182
    26  C   -0.028067
    27  C   -0.023986
    28  C    0.074905
    29  C    0.076242
    30  C    0.035219
    31  C   -0.004357
    32  N   -0.310592
    33  C    0.080672
    34  C   -0.169408
    35  C    0.008605
    36  C    0.083300
    37  C    0.127205
    38  C    0.046568
    39  O   -0.187833
    40  C   -0.005493
    41  C    0.212864
    42  O   -0.256290
    43  O   -0.305021
    44  C    0.157497
    45  H   -0.017694
    46  H   -0.017273
    47  H   -0.041566
    48  H    0.001010
    49  H   -0.004023
    50  H    0.025483
    51  H    0.016293
    52  H    0.016589
    53  H    0.011200
    54  H    0.044629
    55  H    0.017729
    56  H    0.017801
    57  H    0.005944
    58  H    0.026603
    59  H    0.039283
    60  H    0.037433
    61  H    0.035057
    62  H    0.031329
    63  H    0.016053
    64  H    0.009469
    65  H    0.022845
    66  H    0.012635
    67  H    0.004710
    68  H    0.005943
    69  H    0.004826
    70  H    0.008221
    71  H    0.017455
    72  H    0.029651
    73  H    0.048214
    74  H    0.008957
    75  H    0.045969
    76  H    0.035083
    77  H    0.042965
    78  H    0.046250
    79  H    0.054381
    80  Mg   0.838111
    81  C   -0.016607
    82  C   -0.087751
    83  C   -0.045637
    84  C   -0.064966
    85  N   -0.254556
    86  C   -0.049722
    87  C   -0.015115
    88  C   -0.090514
    89  C    0.045764
    90  C    0.114416
    91  C    0.062497
    92  C   -0.077971
    93  H    0.035362
    94  N   -0.423443
    95  C    0.162859
    96  C   -0.174747
    97  C   -0.007976
    98  C    0.152096
    99  C    0.099421
   100  C    0.015419
   101  O   -0.253428
   102  C    0.061266
   103  N   -0.350087
   104  C    0.037477
   105  C   -0.019754
   106  C   -0.034832
   107  C    0.088993
   108  C    0.073734
   109  C    0.034759
   110  C   -0.007662
   111  N   -0.324191
   112  C    0.078644
   113  C   -0.162949
   114  C    0.002391
   115  C    0.096431
   116  C    0.131408
   117  C    0.042705
   118  O   -0.187452
   119  C    0.000809
   120  C    0.211252
   121  O   -0.250130
   122  O   -0.305926
   123  C    0.151795
   124  H   -0.019795
   125  H   -0.015810
   126  H   -0.040475
   127  H   -0.000704
   128  H   -0.004285
   129  H    0.022389
   130  H    0.014282
   131  H    0.016152
   132  H    0.013996
   133  H    0.038213
   134  H    0.020460
   135  H    0.019605
   136  H    0.008791
   137  H    0.025910
   138  H    0.039554
   139  H    0.038198
   140  H    0.036062
   141  H    0.033754
   142  H    0.014258
   143  H    0.012313
   144  H    0.024934
   145  H    0.011572
   146  H    0.005559
   147  H    0.006052
   148  H    0.003703
   149  H    0.010720
   150  H    0.018029
   151  H    0.030361
   152  H    0.046442
   153  H    0.008475
   154  H    0.046797
   155  H    0.034836
   156  H    0.043727
   157  H    0.049158
   158  H    0.054573
 Sum of Mulliken charges =  -0.00000

 Dipole moment (field-independent basis, Debye):
    X=              1.3797    Y=              7.0765    Z=             -1.9034  Tot=              7.4568
 Quadrupole moment (field-independent basis, Debye-Ang):
   XX=           -468.9045   YY=           -533.7895   ZZ=           -470.9337
   XY=             10.3795   XZ=            -28.6587   YZ=             20.4313

 Normal termination of Gaussian 16 at Sat Sep 11 23:56:10 2021.
