 Gaussian 16, Revision A.03,
 Gaussian 16:  ES64L-G16RevA.03 25-Dec-2016

 -----------------------------------
 #p cam-b3lyp/Def2SVP td=(nstates=5)
 -----------------------------------

 --------------------------------
 TDDFT excited states in gaussian
 --------------------------------
 Symbolic Z-matrix:
 Charge =  0 Multiplicity = 1

                         Standard orientation:
 ---------------------------------------------------------------------
 Center     Atomic      Atomic             Coordinates (Angstroms)
 Number     Number       Type             X           Y           Z
 ---------------------------------------------------------------------
      1         12           0        5.410861   -0.526627    0.790353
      2          6           0        5.819353    2.451675   -1.152600
      3          6           0        5.851797    1.403915    3.569139
      4          6           0        5.507205   -3.197351    2.497565
      5          6           0        6.131104   -2.334690   -2.100636
      6          7           0        5.779068    1.641177    1.046667
      7          6           0        5.854231    2.682948    0.224332
      8          6           0        5.897651    4.052902    0.965083
      9          6           0        6.470249    3.561582    2.369624
     10          6           0        5.974935    2.126315    2.345207
     11          6           0        7.994009    3.554247    2.437466
     12          6           0        4.476199    4.691591    1.117675
     13          6           0        4.463348    6.165744    1.532478
     14          1           0        3.432602    7.037213    0.988922
     15          7           0        5.161873   -0.818036    2.728377
     16          6           0        5.372086    0.084447    3.716618
     17          6           0        5.047802   -0.611867    4.980211
     18          6           0        4.814757   -2.047916    4.661549
     19          6           0        5.182371   -2.084098    3.269095
     20          6           0        4.937983    0.087446    6.300306
     21          6           0        4.346641   -3.206298    5.484440
     22          8           0        4.435548   -4.413330    5.072441
     23          6           0        3.856362   -2.894218    6.839164
     24          7           0        5.981455   -2.482567    0.336092
     25          6           0        5.871050   -3.461381    1.240922
     26          6           0        6.065853   -4.809713    0.613235
     27          6           0        6.092589   -4.563289   -0.964204
     28          6           0        5.983928   -3.018471   -0.963600
     29          6           0        7.333507   -5.566542    1.033085
     30          6           0        5.086178   -5.373141   -1.819596
     31          6           0        3.674888   -4.923448   -1.514418
     32          7           0        5.718804   -0.067401   -1.308534
     33          6           0        6.029116   -0.973283   -2.333111
     34          6           0        6.249088   -0.181811   -3.557551
     35          6           0        6.066542    1.139378   -3.153843
     36          6           0        5.778278    1.173059   -1.759547
     37          6           0        6.629947   -0.699172   -4.827085
     38          6           0        6.072221    2.532207   -3.570799
     39          8           0        6.162397    3.112925   -4.653448
     40          6           0        6.032646    3.445698   -2.267037
     41          6           0        4.979469    4.498388   -2.481442
     42          8           0        3.772447    4.190085   -2.555028
     43          8           0        5.527932    5.713488   -2.328919
     44          6           0        4.529896    6.802961   -2.499581
     45          1           0        6.208844    1.864724    4.492239
     46          1           0        5.443254   -4.151470    3.024826
     47          1           0        6.276246   -2.836220   -3.059205
     48          1           0        6.572435    4.786829    0.524127
     49          1           0        6.022952    4.102682    3.203206
     50          1           0        8.437151    3.765305    1.464326
     51          1           0        8.265718    2.552293    2.770267
     52          1           0        8.350553    4.234115    3.211696
     53          1           0        3.975261    4.251821    1.980069
     54          1           0        3.898164    4.569968    0.200937
     55          1           0        5.447637    6.620649    1.417832
     56          1           0        4.263957    6.217629    2.602876
     57          1           0        5.325429    1.104173    6.248372
     58          1           0        5.610068   -0.424516    6.988715
     59          1           0        3.921547    0.064471    6.693577
     60          1           0        4.649258   -2.404520    7.404903
     61          1           0        3.480928   -3.832251    7.246586
     62          1           0        3.043237   -2.171775    6.762672
     63          1           0        5.240280   -5.477290    0.856539
     64          1           0        7.063497   -4.801872   -1.399049
     65          1           0        7.135405   -6.551564    1.456397
     66          1           0        7.881625   -4.941289    1.737298
     67          1           0        8.070452   -5.698455    0.241297
     68          1           0        5.145572   -6.432695   -1.573093
     69          1           0        5.253859   -5.272208   -2.891951
     70          1           0        3.423729   -5.497720   -0.623372
     71          1           0        3.008821   -5.173743   -2.340807
     72          1           0        3.643453   -3.868402   -1.241700
     73          1           0        6.016540   -0.181024   -5.564121
     74          1           0        6.481445   -1.777674   -4.875908
     75          1           0        7.683544   -0.421253   -4.850574
     76          1           0        7.026783    3.877712   -2.156685
     77          1           0        4.907771    7.465295   -3.278528
     78          1           0        4.363817    7.228879   -1.509926
     79          1           0        3.568102    6.513409   -2.924378
     80         12           0       -5.057604   -0.777287   -0.696401
     81          6           0       -7.497214    1.509805    0.606145
     82          6           0       -3.474359    1.920103   -2.057293
     83          6           0       -3.149878   -2.796012   -2.230268
     84          6           0       -7.394911   -3.319708   -0.228700
     85          7           0       -5.522406    1.384866   -0.660178
     86          6           0       -6.441472    2.143356   -0.081934
     87          6           0       -6.172631    3.668873   -0.182389
     88          6           0       -5.243155    3.663515   -1.491935
     89          6           0       -4.678950    2.248238   -1.385435
     90          6           0       -6.029214    3.768041   -2.788283
     91          6           0       -5.401913    4.223508    1.066760
     92          6           0       -5.377219    5.749254    1.181874
     93          1           0       -5.432501    6.347842    2.512709
     94          7           0       -3.285267   -0.480896   -1.538737
     95          6           0       -2.794637    0.682998   -2.014046
     96          6           0       -1.461718    0.368278   -2.551126
     97          6           0       -1.273007   -1.107113   -2.503071
     98          6           0       -2.599162   -1.529473   -2.099321
     99          6           0       -0.482684    1.426265   -2.970146
    100          6           0       -0.097555   -1.992352   -2.787456
    101          8           0       -0.225085   -3.261611   -2.912171
    102          6           0        1.191203   -1.320126   -3.008126
    103          7           0       -5.313690   -2.730563   -1.360808
    104          6           0       -4.306948   -3.397128   -1.952489
    105          6           0       -4.633197   -4.864773   -2.093825
    106          6           0       -5.974160   -5.089805   -1.251951
    107          6           0       -6.252218   -3.631955   -0.824448
    108          6           0       -4.839816   -5.365678   -3.523088
    109          6           0       -5.940005   -6.188246   -0.154255
    110          6           0       -5.007708   -5.774158    0.961424
    111          7           0       -7.008381   -0.948011    0.216499
    112          6           0       -7.823084   -2.099720    0.278927
    113          6           0       -9.103571   -1.694390    0.894144
    114          6           0       -8.952398   -0.319221    1.127742
    115          6           0       -7.676032    0.106729    0.670627
    116          6           0      -10.223495   -2.543395    1.120100
    117          6           0       -9.586416    0.871022    1.647384
    118          8           0      -10.636578    1.106034    2.243779
    119          6           0       -8.721284    2.133186    1.217409
    120          6           0       -8.533389    3.002558    2.430427
    121          8           0       -7.873075    2.596521    3.402905
    122          8           0       -8.976370    4.243126    2.156320
    123          6           0       -8.801009    5.145355    3.325522
    124          1           0       -3.027038    2.666290   -2.714561
    125          1           0       -2.488971   -3.556111   -2.653258
    126          1           0       -8.137733   -4.073518    0.040881
    127          1           0       -7.053923    4.275083   -0.354425
    128          1           0       -4.446297    4.398546   -1.413725
    129          1           0       -7.094214    3.709500   -2.619513
    130          1           0       -5.697210    2.940275   -3.401174
    131          1           0       -5.745964    4.675799   -3.328735
    132          1           0       -4.329259    4.027130    0.941906
    133          1           0       -5.788959    3.798997    1.972637
    134          1           0       -6.107614    6.224723    0.515994
    135          1           0       -4.410876    6.108951    0.820211
    136          1           0       -0.962122    2.409880   -3.047885
    137          1           0       -0.177202    1.191203   -3.995468
    138          1           0        0.404955    1.454243   -2.334544
    139          1           0        1.100493   -0.630894   -3.844299
    140          1           0        1.925715   -2.121705   -3.107288
    141          1           0        1.425729   -0.714837   -2.125378
    142          1           0       -3.846423   -5.478187   -1.672145
    143          1           0       -6.812886   -5.394068   -1.895215
    144          1           0       -4.166055   -6.200108   -3.794831
    145          1           0       -4.704976   -4.532269   -4.199690
    146          1           0       -5.852068   -5.691323   -3.756507
    147          1           0       -5.540546   -7.119704   -0.562884
    148          1           0       -6.915985   -6.412150    0.263263
    149          1           0       -4.024267   -6.069418    0.583597
    150          1           0       -5.252187   -6.302338    1.880823
    151          1           0       -5.000239   -4.684871    1.084161
    152          1           0      -10.592434   -2.314951    2.111158
    153          1           0       -9.951702   -3.592908    1.028360
    154          1           0      -10.881800   -2.217543    0.310327
    155          1           0       -9.265099    2.648438    0.424712
    156          1           0       -9.783844    5.570558    3.551219
    157          1           0       -7.999827    5.852550    3.039645
    158          1           0       -8.544057    4.690887    4.275203
 ---------------------------------------------------------------------

 SCF Done:  E(RCAM-B3LYP) =  -4069.81383068     A.U. after   18 cycles

 Excitation energies and oscillator strengths:

 Excited State   1:      Singlet-A      1.6549 eV  749.19 nm  f=0.2025  <S**2>=0.000
     309 -> 315        0.11646
     310 -> 316        0.12288
     311 -> 313       -0.47074
     312 -> 314        0.50065
 This state for optimization and/or second-order correction.
 Total Energy, E(TD-HF/TD-DFT) =  -4069.75301404
 Copying the excited state density for this state as the 1-particle RhoCI density.

 Excited State   2:      Singlet-A      1.6959 eV  731.10 nm  f=0.5627  <S**2>=0.000
     309 -> 315       -0.13126
     310 -> 316        0.12202
     311 -> 313        0.49888
     312 -> 314        0.46928

 Excited State   3:      Singlet-A      2.1875 eV  566.79 nm  f=0.0119  <S**2>=0.000
     309 -> 313       -0.33788
     310 -> 314        0.54747
     311 -> 315       -0.14225
     312 -> 316       -0.23264

 Excited State   4:      Singlet-A      2.1976 eV  564.18 nm  f=0.1674  <S**2>=0.000
     309 -> 313        0.54475
     310 -> 314        0.33479
     311 -> 315        0.23950
     312 -> 316       -0.14686

 Excited State   5:      Singlet-A      2.4401 eV  508.10 nm  f=0.0000  <S**2>=0.000
     312 -> 313        0.70680

 The electronic state is 1-A.
 Alpha  occ. eigenvalues --  -46.87972 -46.87422 -19.26663 -19.26228 -19.19450
 Alpha  occ. eigenvalues --  -19.19025 -19.18896 -19.18448 -19.18406 -19.17834
 Alpha  occ. eigenvalues --  -14.42622 -14.42262 -14.41580 -14.41122 -14.39559
 Alpha  occ. eigenvalues --  -14.39101 -14.38792 -14.38361 -10.39480 -10.38949
 Alpha  occ. eigenvalues --  -10.35524 -10.35075 -10.34634 -10.34018 -10.32058
 Alpha  occ. eigenvalues --  -10.31669 -10.31598 -10.31087 -10.31081 -10.30761
 Alpha  occ. eigenvalues --  -10.30753 -10.30663 -10.30285 -10.30172 -10.30105
 Alpha  occ. eigenvalues --  -10.30044 -10.29880 -10.29789 -10.29696 -10.29402
 Alpha  occ. eigenvalues --  -10.29153 -10.29108 -10.28966 -10.28807 -10.28557
 Alpha  occ. eigenvalues --  -10.28540 -10.28518 -10.28308 -10.28141 -10.27965
 Alpha  occ. eigenvalues --  -10.27921 -10.27884 -10.27732 -10.27731 -10.27590
 Alpha  occ. eigenvalues --  -10.27578 -10.27446 -10.27436 -10.27423 -10.27403
 Alpha  occ. eigenvalues --  -10.27326 -10.27250 -10.27199 -10.27160 -10.26981
 Alpha  occ. eigenvalues --  -10.26858 -10.26707 -10.26533 -10.26440 -10.26400
 Alpha  occ. eigenvalues --  -10.26138 -10.26006 -10.25971 -10.25951 -10.25927
 Alpha  occ. eigenvalues --  -10.25810 -10.25691 -10.25652 -10.25435 -10.25245
 Alpha  occ. eigenvalues --  -10.25026 -10.24918 -10.24619 -10.24567 -10.24461
 Alpha  occ. eigenvalues --  -10.24239  -3.16716  -3.16173  -1.91599  -1.91183
 Alpha  occ. eigenvalues --   -1.91055  -1.91027  -1.90643  -1.90480  -1.17015
 Alpha  occ. eigenvalues --   -1.16518  -1.08882  -1.08453  -1.07291  -1.07054
 Alpha  occ. eigenvalues --   -1.06808  -1.06685  -1.04758  -1.04255  -1.03898
 Alpha  occ. eigenvalues --   -1.03424  -1.03396  -1.02797  -1.02569  -1.01867
 Alpha  occ. eigenvalues --   -0.92175  -0.91758  -0.89563  -0.89380  -0.89276
 Alpha  occ. eigenvalues --   -0.88944  -0.88301  -0.88045  -0.88017  -0.87831
 Alpha  occ. eigenvalues --   -0.87561  -0.87442  -0.87392  -0.86705  -0.85167
 Alpha  occ. eigenvalues --   -0.84783  -0.83935  -0.83686  -0.83004  -0.82802
 Alpha  occ. eigenvalues --   -0.82604  -0.82346  -0.81820  -0.81410  -0.80773
 Alpha  occ. eigenvalues --   -0.80214  -0.78933  -0.78283  -0.77341  -0.77090
 Alpha  occ. eigenvalues --   -0.76882  -0.76711  -0.76111  -0.75595  -0.74948
 Alpha  occ. eigenvalues --   -0.74588  -0.72915  -0.72447  -0.71820  -0.71359
 Alpha  occ. eigenvalues --   -0.69803  -0.69563  -0.69040  -0.68593  -0.67804
 Alpha  occ. eigenvalues --   -0.67405  -0.67364  -0.66948  -0.65485  -0.65063
 Alpha  occ. eigenvalues --   -0.65041  -0.64765  -0.64549  -0.64446  -0.64293
 Alpha  occ. eigenvalues --   -0.63995  -0.62537  -0.62100  -0.60546  -0.59999
 Alpha  occ. eigenvalues --   -0.59993  -0.59570  -0.59140  -0.58766  -0.58664
 Alpha  occ. eigenvalues --   -0.58190  -0.57854  -0.57412  -0.57361  -0.56981
 Alpha  occ. eigenvalues --   -0.56488  -0.56241  -0.55934  -0.55683  -0.55668
 Alpha  occ. eigenvalues --   -0.55449  -0.55166  -0.55051  -0.54635  -0.54312
 Alpha  occ. eigenvalues --   -0.54099  -0.53703  -0.53421  -0.53394  -0.53122
 Alpha  occ. eigenvalues --   -0.52989  -0.52881  -0.52879  -0.52687  -0.52325
 Alpha  occ. eigenvalues --   -0.52261  -0.52199  -0.52088  -0.51806  -0.51671
 Alpha  occ. eigenvalues --   -0.51393  -0.51334  -0.50984  -0.50640  -0.50094
 Alpha  occ. eigenvalues --   -0.50049  -0.49946  -0.49674  -0.49645  -0.49594
 Alpha  occ. eigenvalues --   -0.49396  -0.49276  -0.49203  -0.48917  -0.48887
 Alpha  occ. eigenvalues --   -0.48812  -0.48593  -0.48520  -0.48338  -0.48181
 Alpha  occ. eigenvalues --   -0.48011  -0.47818  -0.47429  -0.47311  -0.46916
 Alpha  occ. eigenvalues --   -0.46790  -0.46746  -0.46513  -0.46481  -0.46324
 Alpha  occ. eigenvalues --   -0.46285  -0.46039  -0.45988  -0.45861  -0.45635
 Alpha  occ. eigenvalues --   -0.45233  -0.44998  -0.44779  -0.44612  -0.44307
 Alpha  occ. eigenvalues --   -0.44304  -0.44247  -0.44195  -0.44120  -0.43905
 Alpha  occ. eigenvalues --   -0.43832  -0.43707  -0.43602  -0.43508  -0.43376
 Alpha  occ. eigenvalues --   -0.43177  -0.43163  -0.43006  -0.42755  -0.42672
 Alpha  occ. eigenvalues --   -0.42628  -0.42304  -0.42024  -0.41855  -0.41768
 Alpha  occ. eigenvalues --   -0.41667  -0.41448  -0.41292  -0.41250  -0.41006
 Alpha  occ. eigenvalues --   -0.40924  -0.40765  -0.40562  -0.40505  -0.40443
 Alpha  occ. eigenvalues --   -0.40431  -0.40298  -0.40017  -0.39294  -0.39238
 Alpha  occ. eigenvalues --   -0.38508  -0.38158  -0.37961  -0.37470  -0.37469
 Alpha  occ. eigenvalues --   -0.37379  -0.37052  -0.37014  -0.36963  -0.36624
 Alpha  occ. eigenvalues --   -0.36331  -0.36024  -0.34460  -0.34156  -0.34021
 Alpha  occ. eigenvalues --   -0.33707  -0.33357  -0.32938  -0.31429  -0.31190
 Alpha  occ. eigenvalues --   -0.30990  -0.30737  -0.30273  -0.29747  -0.29612
 Alpha  occ. eigenvalues --   -0.29505  -0.29043  -0.28948  -0.24248  -0.23801
 Alpha  occ. eigenvalues --   -0.21279  -0.20864
 Alpha virt. eigenvalues --   -0.08930  -0.08525  -0.01889  -0.01448  -0.00202
 Alpha virt. eigenvalues --    0.00256   0.02012   0.02405   0.02612   0.03434
 Alpha virt. eigenvalues --    0.04539   0.04727   0.04940   0.05316   0.05919

 Mulliken charges:
               1
     1  Mg   0.834266
     2  C   -0.004910
     3  C   -0.094195
     4  C   -0.044767
     5  C   -0.064248
     6  N   -0.256951
     7  C   -0.053290
     8  C   -0.013720
     9  C   -0.087039
    10  C    0.046429
    11  C    0.104672
    12  C    0.053399
    13  C   -0.071632
    14  H    0.034565
    15  N   -0.433644
    16  C    0.168874
    17  C   -0.176696
    18  C   -0.003232
    19  C    0.149096
    20  C    0.109994
    21  C    0.013075
    22  O   -0.248417
    23  C    0.062137
    24  N   -0.341646
    25  C    0.042134
    26  C   -0.028315
    27  C   -0.024051
    28  C    0.075769
    29  C    0.076144
    30  C    0.034217
    31  C   -0.007407
    32  N   -0.310289
    33  C    0.078935
    34  C   -0.171205
    35  C    0.007487
    36  C    0.079736
    37  C    0.127696
    38  C    0.043951
    39  O   -0.189336
    40  C   -0.004759
    41  C    0.213911
    42  O   -0.261929
    43  O   -0.303671
    44  C    0.158022
    45  H   -0.017126
    46  H   -0.015663
    47  H   -0.040525
    48  H    0.000935
    49  H   -0.003733
    50  H    0.025561
    51  H    0.016942
    52  H    0.017130
    53  H    0.011579
    54  H    0.041392
    55  H    0.018575
    56  H    0.018889
    57  H    0.005973
    58  H    0.027446
    59  H    0.040684
    60  H    0.037324
    61  H    0.036600
    62  H    0.032260
    63  H    0.018160
    64  H    0.009065
    65  H    0.023750
    66  H    0.011962
    67  H    0.004976
    68  H    0.006270
    69  H    0.004365
    70  H    0.007722
    71  H    0.031601
    72  H    0.026950
    73  H    0.046035
    74  H    0.010426
    75  H    0.046385
    76  H    0.035860
    77  H    0.043721
    78  H    0.047053
    79  H    0.051451
    80  Mg   0.836705
    81  C   -0.016895
    82  C   -0.086626
    83  C   -0.045878
    84  C   -0.065106
    85  N   -0.254400
    86  C   -0.050764
    87  C   -0.015005
    88  C   -0.090410
    89  C    0.045209
    90  C    0.114343
    91  C    0.062494
    92  C   -0.077324
    93  H    0.033093
    94  N   -0.423662
    95  C    0.162298
    96  C   -0.174342
    97  C   -0.007916
    98  C    0.152464
    99  C    0.099167
   100  C    0.013984
   101  O   -0.256369
   102  C    0.058037
   103  N   -0.350081
   104  C    0.037934
   105  C   -0.019842
   106  C   -0.034486
   107  C    0.088381
   108  C    0.073881
   109  C    0.034919
   110  C   -0.007490
   111  N   -0.323791
   112  C    0.077527
   113  C   -0.163945
   114  C    0.001866
   115  C    0.095467
   116  C    0.131666
   117  C    0.041730
   118  O   -0.189265
   119  C    0.001044
   120  C    0.211158
   121  O   -0.251595
   122  O   -0.305531
   123  C    0.152310
   124  H   -0.017767
   125  H   -0.016291
   126  H   -0.041285
   127  H   -0.001200
   128  H   -0.003791
   129  H    0.022000
   130  H    0.014829
   131  H    0.016394
   132  H    0.014113
   133  H    0.037047
   134  H    0.020741
   135  H    0.019621
   136  H    0.010360
   137  H    0.028741
   138  H    0.050768
   139  H    0.042988
   140  H    0.036536
   141  H    0.037501
   142  H    0.013918
   143  H    0.011889
   144  H    0.024312
   145  H    0.011850
   146  H    0.005384
   147  H    0.005583
   148  H    0.003265
   149  H    0.010821
   150  H    0.017459
   151  H    0.030313
   152  H    0.045162
   153  H    0.007945
   154  H    0.046304
   155  H    0.034631
   156  H    0.043496
   157  H    0.049263
   158  H    0.052991
 Sum of Mulliken charges =  -0.00000

 Dipole moment (field-independent basis, Debye):
    X=              4.3768    Y=              2.9713    Z=              1.3018  Tot=              5.4480
 Quadrupole moment (field-independent basis, Debye-Ang):
   XX=           -541.8006   YY=           -465.5264   ZZ=           -516.9057
   XY=             10.5302   XZ=             49.9367   YZ=             26.7431

 Normal termination of Gaussian 16 at Fri Sep 10 10:16:48 2021.
