 Gaussian 16, Revision A.03,
 Gaussian 16:  ES64L-G16RevA.03 25-Dec-2016

 -----------------------------------
 #p cam-b3lyp/Def2SVP td=(nstates=5)
 -----------------------------------

 --------------------------------
 TDDFT excited states in gaussian
 --------------------------------
 Symbolic Z-matrix:
 Charge =  0 Multiplicity = 1

                         Standard orientation:
 ---------------------------------------------------------------------
 Center     Atomic      Atomic             Coordinates (Angstroms)
 Number     Number       Type             X           Y           Z
 ---------------------------------------------------------------------
      1         12           0        4.006583   -0.468025    1.055337
      2          6           0        4.572902    2.536110   -0.806563
      3          6           0        4.069975    1.446730    3.878945
      4          6           0        3.962171   -3.151233    2.745024
      5          6           0        5.106311   -2.233311   -1.741094
      6          7           0        4.291179    1.705079    1.367218
      7          6           0        4.438956    2.755658    0.566209
      8          6           0        4.362334    4.119494    1.315511
      9          6           0        4.775746    3.628456    2.774952
     10          6           0        4.320414    2.182733    2.682863
     11          6           0        6.280483    3.654644    3.023112
     12          6           0        2.918314    4.724776    1.302350
     13          6           0        2.822031    6.194464    1.721993
     14          1           0        1.842928    7.047499    1.065458
     15          7           0        3.536542   -0.782434    2.948234
     16          6           0        3.607061    0.115568    3.960116
     17          6           0        3.151640   -0.599221    5.171870
     18          6           0        2.991546   -2.037194    4.818744
     19          6           0        3.522328   -2.052552    3.479560
     20          6           0        2.869880    0.085502    6.473990
     21          6           0        2.456345   -3.213158    5.572932
     22          8           0        2.621567   -4.414124    5.166785
     23          6           0        1.801834   -2.924389    6.861835
     24          7           0        4.672435   -2.406510    0.659669
     25          6           0        4.478429   -3.395685    1.538804
     26          6           0        4.777628   -4.733590    0.930174
     27          6           0        4.985361   -4.472389   -0.631355
     28          6           0        4.841407   -2.930461   -0.633900
     29          6           0        6.003891   -5.465594    1.492720
     30          6           0        4.106569   -5.296823   -1.605241
     31          6           0        2.658960   -4.881632   -1.466884
     32          7           0        4.550299    0.016925   -0.989227
     33          6           0        5.000879   -0.872487   -1.975431
     34          6           0        5.345893   -0.065257   -3.160089
     35          6           0        5.086039    1.247811   -2.772568
     36          6           0        4.633865    1.262429   -1.422154
     37          6           0        5.886476   -0.562468   -4.378689
     38          6           0        5.108616    2.644127   -3.177103
     39          8           0        5.312894    3.236476   -4.237709
     40          6           0        4.893527    3.544687   -1.881512
     41          6           0        3.848926    4.575415   -2.212747
     42          8           0        2.666649    4.240828   -2.431011
     43          8           0        4.346969    5.801068   -1.988541
     44          6           0        3.351064    6.869409   -2.269567
     45          1           0        4.304271    1.907063    4.840787
     46          1           0        3.858448   -4.111270    3.254935
     47          1           0        5.375681   -2.722785   -2.678808
     48          1           0        5.067323    4.872306    0.962399
     49          1           0        4.220323    4.151849    3.552955
     50          1           0        6.830785    3.884358    2.110796
     51          1           0        6.534124    2.656063    3.379477
     52          1           0        6.526814    4.335307    3.838462
     53          1           0        2.329096    4.266123    2.096403
     54          1           0        2.455986    4.598521    0.322738
     55          1           0        3.802095    6.672321    1.727850
     56          1           0        2.496040    6.232198    2.761467
     57          1           0        3.236941    1.111081    6.474825
     58          1           0        3.467400   -0.417473    7.234052
     59          1           0        1.814816    0.036212    6.743694
     60          1           0        2.510465   -2.422182    7.520759
     61          1           0        1.402736   -3.874239    7.215891
     62          1           0        0.986883   -2.219680    6.693943
     63          1           0        3.944829   -5.421663    1.069557
     64          1           0        6.006256   -4.685225   -0.949394
     65          1           0        5.780039   -6.458589    1.883303
     66          1           0        6.449965   -4.834606    2.260941
     67          1           0        6.832350   -5.573807    0.793175
     68          1           0        4.161018   -6.356964   -1.360125
     69          1           0        4.397751   -5.182475   -2.649457
     70          1           0        2.317433   -5.469411   -0.615587
     71          1           0        2.101538   -5.139309   -2.368047
     72          1           0        2.570838   -3.830061   -1.193170
     73          1           0        5.352823   -0.051554   -5.180032
     74          1           0        5.769990   -1.643540   -4.451598
     75          1           0        6.928663   -0.260815   -4.275213
     76          1           0        5.857237    3.997848   -1.651228
     77          1           0        3.803042    7.547051   -2.993964
     78          1           0        3.058989    7.282542   -1.303949
     79          1           0        2.453404    6.562233   -2.807329
     80         12           0       -3.648802   -0.820004   -0.983897
     81          6           0       -6.179938    1.358099    0.330747
     82          6           0       -2.195004    1.943308   -2.356909
     83          6           0       -1.662305   -2.753946   -2.526988
     84          6           0       -5.868042   -3.463173   -0.499763
     85          7           0       -4.208999    1.319405   -0.947128
     86          6           0       -5.157451    2.037043   -0.364231
     87          6           0       -4.957254    3.572872   -0.467833
     88          6           0       -4.036169    3.607136   -1.782854
     89          6           0       -3.409018    2.218465   -1.678255
     90          6           0       -4.833703    3.674970   -3.074631
     91          6           0       -4.204621    4.162807    0.776162
     92          6           0       -4.247089    5.688291    0.889570
     93          1           0       -4.321094    6.285533    2.220095
     94          7           0       -1.896360   -0.446249   -1.837033
     95          6           0       -1.460737    0.737678   -2.316427
     96          6           0       -0.118332    0.481809   -2.861072
     97          6           0        0.136036   -0.983681   -2.812631
     98          6           0       -1.167647   -1.464024   -2.400598
     99          6           0        0.810242    1.581716   -3.286963
    100          6           0        1.347965   -1.816182   -3.103068
    101          8           0        1.276245   -3.090009   -3.225729
    102          6           0        2.604263   -1.087645   -3.332057
    103          7           0       -3.821742   -2.783597   -1.644779
    104          6           0       -2.789863   -3.405531   -2.241738
    105          6           0       -3.051402   -4.886399   -2.379635
    106          6           0       -4.376065   -5.169711   -1.529600
    107          6           0       -4.716113   -3.725108   -1.101950
    108          6           0       -3.243943   -5.397820   -3.807141
    109          6           0       -4.286688   -6.264137   -0.431004
    110          6           0       -3.367173   -5.807596    0.678701
    111          7           0       -5.584669   -1.076064   -0.059283
    112          6           0       -6.347006   -2.262757    0.009157
    113          6           0       -7.640607   -1.913924    0.631525
    114          6           0       -7.549319   -0.533108    0.862831
    115          6           0       -6.295854   -0.051455    0.397720
    116          6           0       -8.720356   -2.811569    0.864991
    117          6           0       -8.232539    0.628455    1.385006
    118          8           0       -9.288584    0.817351    1.987359
    119          6           0       -7.426888    1.927258    0.948617
    120          6           0       -7.270692    2.805684    2.159604
    121          8           0       -6.587286    2.430624    3.128575
    122          8           0       -7.769966    4.024987    1.886860
    123          6           0       -7.628008    4.935619    3.054091
    124          1           0       -1.785161    2.707789   -3.017576
    125          1           0       -0.970761   -3.484477   -2.953117
    126          1           0       -6.575029   -4.248893   -0.225005
    127          1           0       -5.865621    4.139097   -0.635259
    128          1           0       -3.272324    4.376949   -1.710123
    129          1           0       -5.894045    3.569386   -2.899496
    130          1           0       -4.468863    2.861986   -3.688638
    131          1           0       -4.594261    4.593716   -3.617683
    132          1           0       -3.125056    4.014119    0.645155
    133          1           0       -4.567094    3.722681    1.684756
    134          1           0       -5.001780    6.129984    0.227538
    135          1           0       -3.299822    6.090098    0.521817
    136          1           0        0.287122    2.542948   -3.362871
    137          1           0        1.119830    1.359131   -4.313842
    138          1           0        1.699479    1.649915   -2.656669
    139          1           0        2.478103   -0.404199   -4.168386
    140          1           0        3.373074   -1.855929   -3.434753
    141          1           0        2.816849   -0.471401   -2.451339
    142          1           0       -2.235672   -5.463705   -1.962006
    143          1           0       -5.204208   -5.511755   -2.167576
    144          1           0       -2.535377   -6.201842   -4.082020
    145          1           0       -3.150257   -4.560122   -4.485380
    146          1           0       -4.242080   -5.768422   -4.034225
    147          1           0       -3.848637   -7.177448   -0.841043
    148          1           0       -5.249285   -6.530644   -0.007486
    149          1           0       -2.373821   -6.059364    0.295362
    150          1           0       -3.582527   -6.344932    1.600073
    151          1           0       -3.407387   -4.718909    0.800280
    152          1           0       -9.093245   -2.598468    1.857981
    153          1           0       -8.402733   -3.848081    0.772701
    154          1           0       -9.397219   -2.516325    0.058793
    155          1           0       -7.997713    2.416826    0.158635
    156          1           0       -8.627418    5.317023    3.285164
    157          1           0       -6.860728    5.677345    2.762742
    158          1           0       -7.345533    4.494233    4.002691
 ---------------------------------------------------------------------

 SCF Done:  E(RCAM-B3LYP) =  -4069.80308907     A.U. after   17 cycles

 Excitation energies and oscillator strengths:

 Excited State   1:      Singlet-A      1.6050 eV  772.48 nm  f=0.1898  <S**2>=0.000
     309 -> 315       -0.12658
     311 -> 313        0.53146
     312 -> 313       -0.10258
     312 -> 314       -0.42427
 This state for optimization and/or second-order correction.
 Total Energy, E(TD-HF/TD-DFT) =  -4069.74410556
 Copying the excited state density for this state as the 1-particle RhoCI density.

 Excited State   2:      Singlet-A      1.7053 eV  727.07 nm  f=0.5565  <S**2>=0.000
     309 -> 315       -0.11736
     310 -> 316        0.13947
     311 -> 313        0.42645
     312 -> 314        0.53464

 Excited State   3:      Singlet-A      2.1072 eV  588.39 nm  f=0.0002  <S**2>=0.000
     312 -> 313        0.69791

 Excited State   4:      Singlet-A      2.1794 eV  568.88 nm  f=0.0132  <S**2>=0.000
     309 -> 313        0.56479
     310 -> 314       -0.30774
     311 -> 315        0.23882
     312 -> 316        0.12739

 Excited State   5:      Singlet-A      2.2000 eV  563.56 nm  f=0.1486  <S**2>=0.000
     309 -> 313        0.30190
     310 -> 314        0.55897
     311 -> 315        0.13869
     312 -> 316       -0.24443

 The electronic state is 1-A.
 Alpha  occ. eigenvalues --  -46.88138 -46.87199 -19.27171 -19.26135 -19.20176
 Alpha  occ. eigenvalues --  -19.18995 -19.18920 -19.18782 -19.18213 -19.17620
 Alpha  occ. eigenvalues --  -14.42824 -14.42045 -14.41624 -14.40891 -14.39701
 Alpha  occ. eigenvalues --  -14.39146 -14.38873 -14.38132 -10.40072 -10.38837
 Alpha  occ. eigenvalues --  -10.35618 -10.35016 -10.34660 -10.33814 -10.32448
 Alpha  occ. eigenvalues --  -10.31818 -10.31613 -10.31291 -10.30968 -10.30861
 Alpha  occ. eigenvalues --  -10.30860 -10.30502 -10.30364 -10.30166 -10.30000
 Alpha  occ. eigenvalues --  -10.29977 -10.29837 -10.29621 -10.29533 -10.29492
 Alpha  occ. eigenvalues --  -10.29167 -10.28990 -10.28905 -10.28864 -10.28781
 Alpha  occ. eigenvalues --  -10.28491 -10.28488 -10.28345 -10.28105 -10.28072
 Alpha  occ. eigenvalues --  -10.27901 -10.27876 -10.27872 -10.27813 -10.27726
 Alpha  occ. eigenvalues --  -10.27680 -10.27452 -10.27276 -10.27172 -10.27158
 Alpha  occ. eigenvalues --  -10.27152 -10.27125 -10.27062 -10.27033 -10.26812
 Alpha  occ. eigenvalues --  -10.26682 -10.26562 -10.26481 -10.26420 -10.26223
 Alpha  occ. eigenvalues --  -10.26083 -10.25813 -10.25633 -10.25487 -10.25453
 Alpha  occ. eigenvalues --  -10.25443 -10.25403 -10.25347 -10.25181 -10.25146
 Alpha  occ. eigenvalues --  -10.25013 -10.24775 -10.24400 -10.24364 -10.24262
 Alpha  occ. eigenvalues --  -10.22653  -3.16890  -3.15952  -1.91771  -1.91354
 Alpha  occ. eigenvalues --   -1.91203  -1.90835  -1.90423  -1.90259  -1.17545
 Alpha  occ. eigenvalues --   -1.16421  -1.09274  -1.08257  -1.07695  -1.07384
 Alpha  occ. eigenvalues --   -1.06699  -1.06550  -1.04985  -1.04031  -1.04020
 Alpha  occ. eigenvalues --   -1.03695  -1.03206  -1.02786  -1.02567  -1.01631
 Alpha  occ. eigenvalues --   -0.92515  -0.91538  -0.89658  -0.89458  -0.89071
 Alpha  occ. eigenvalues --   -0.88764  -0.88373  -0.88132  -0.87956  -0.87835
 Alpha  occ. eigenvalues --   -0.87528  -0.87333  -0.87202  -0.86168  -0.85346
 Alpha  occ. eigenvalues --   -0.84592  -0.83936  -0.83515  -0.83015  -0.82724
 Alpha  occ. eigenvalues --   -0.82375  -0.82080  -0.81819  -0.81242  -0.80945
 Alpha  occ. eigenvalues --   -0.79987  -0.79099  -0.77901  -0.77494  -0.77191
 Alpha  occ. eigenvalues --   -0.76604  -0.76540  -0.76260  -0.75324  -0.74833
 Alpha  occ. eigenvalues --   -0.74358  -0.73090  -0.72186  -0.71995  -0.71149
 Alpha  occ. eigenvalues --   -0.69432  -0.69375  -0.69120  -0.68386  -0.68013
 Alpha  occ. eigenvalues --   -0.67564  -0.67160  -0.66759  -0.65698  -0.65320
 Alpha  occ. eigenvalues --   -0.64925  -0.64861  -0.64348  -0.64277  -0.64047
 Alpha  occ. eigenvalues --   -0.63799  -0.62762  -0.61936  -0.60653  -0.60199
 Alpha  occ. eigenvalues --   -0.59771  -0.59370  -0.59326  -0.58858  -0.58557
 Alpha  occ. eigenvalues --   -0.58284  -0.57962  -0.57453  -0.57188  -0.56817
 Alpha  occ. eigenvalues --   -0.56802  -0.56465  -0.55906  -0.55717  -0.55662
 Alpha  occ. eigenvalues --   -0.55436  -0.55000  -0.54865  -0.54627  -0.54280
 Alpha  occ. eigenvalues --   -0.54173  -0.53614  -0.53553  -0.53540  -0.53375
 Alpha  occ. eigenvalues --   -0.53241  -0.52954  -0.52777  -0.52570  -0.52316
 Alpha  occ. eigenvalues --   -0.52054  -0.51996  -0.51921  -0.51622  -0.51463
 Alpha  occ. eigenvalues --   -0.51294  -0.51028  -0.50760  -0.50704  -0.50269
 Alpha  occ. eigenvalues --   -0.50047  -0.49898  -0.49689  -0.49632  -0.49450
 Alpha  occ. eigenvalues --   -0.49362  -0.49165  -0.49129  -0.48856  -0.48744
 Alpha  occ. eigenvalues --   -0.48695  -0.48577  -0.48351  -0.48180  -0.48009
 Alpha  occ. eigenvalues --   -0.47907  -0.47753  -0.47541  -0.47044  -0.47016
 Alpha  occ. eigenvalues --   -0.46840  -0.46472  -0.46354  -0.46277  -0.46259
 Alpha  occ. eigenvalues --   -0.46181  -0.45883  -0.45738  -0.45521  -0.45461
 Alpha  occ. eigenvalues --   -0.45164  -0.44957  -0.44806  -0.44727  -0.44531
 Alpha  occ. eigenvalues --   -0.44326  -0.44158  -0.44115  -0.44054  -0.43879
 Alpha  occ. eigenvalues --   -0.43716  -0.43610  -0.43471  -0.43451  -0.43281
 Alpha  occ. eigenvalues --   -0.43197  -0.43076  -0.42935  -0.42604  -0.42577
 Alpha  occ. eigenvalues --   -0.42438  -0.42240  -0.41958  -0.41891  -0.41584
 Alpha  occ. eigenvalues --   -0.41444  -0.41339  -0.41229  -0.41094  -0.41034
 Alpha  occ. eigenvalues --   -0.40890  -0.40603  -0.40534  -0.40304  -0.40236
 Alpha  occ. eigenvalues --   -0.40125  -0.40062  -0.39241  -0.39034  -0.38663
 Alpha  occ. eigenvalues --   -0.38319  -0.38101  -0.37989  -0.37709  -0.37458
 Alpha  occ. eigenvalues --   -0.37333  -0.37104  -0.36843  -0.36732  -0.36505
 Alpha  occ. eigenvalues --   -0.36141  -0.35830  -0.34812  -0.34598  -0.33808
 Alpha  occ. eigenvalues --   -0.33576  -0.33321  -0.32705  -0.31543  -0.31393
 Alpha  occ. eigenvalues --   -0.30724  -0.30630  -0.30515  -0.29926  -0.29682
 Alpha  occ. eigenvalues --   -0.29545  -0.28780  -0.28612  -0.24442  -0.23579
 Alpha  occ. eigenvalues --   -0.21389  -0.20607
 Alpha virt. eigenvalues --   -0.09153  -0.08252  -0.02079  -0.01255  -0.00413
 Alpha virt. eigenvalues --    0.00486   0.01698   0.02395   0.02726   0.04015
 Alpha virt. eigenvalues --    0.04168   0.04324   0.05123   0.05439   0.05737

 Mulliken charges:
               1
     1  Mg   0.834802
     2  C   -0.006778
     3  C   -0.093279
     4  C   -0.045666
     5  C   -0.045278
     6  N   -0.257166
     7  C   -0.057647
     8  C   -0.014289
     9  C   -0.087239
    10  C    0.048131
    11  C    0.104518
    12  C    0.053245
    13  C   -0.071952
    14  H    0.033924
    15  N   -0.431270
    16  C    0.169475
    17  C   -0.175454
    18  C   -0.002646
    19  C    0.150793
    20  C    0.109675
    21  C    0.013793
    22  O   -0.247352
    23  C    0.061672
    24  N   -0.343224
    25  C    0.046921
    26  C   -0.028257
    27  C   -0.022456
    28  C    0.072199
    29  C    0.076589
    30  C    0.033672
    31  C    0.016329
    32  N   -0.303384
    33  C    0.009823
    34  C   -0.153682
    35  C    0.010394
    36  C    0.071883
    37  C    0.134719
    38  C    0.031094
    39  O   -0.185692
    40  C   -0.005533
    41  C    0.220690
    42  O   -0.258249
    43  O   -0.301991
    44  C    0.156995
    45  H   -0.016409
    46  H   -0.014713
    47  H   -0.033421
    48  H    0.000643
    49  H   -0.002951
    50  H    0.025634
    51  H    0.017316
    52  H    0.017802
    53  H    0.013236
    54  H    0.040364
    55  H    0.018754
    56  H    0.020055
    57  H    0.006415
    58  H    0.028091
    59  H    0.042749
    60  H    0.037326
    61  H    0.037247
    62  H    0.033582
    63  H    0.020106
    64  H    0.007525
    65  H    0.023563
    66  H    0.010638
    67  H    0.005178
    68  H    0.000015
    69  H    0.003533
    70  H   -0.012216
    71  H    0.037359
    72  H    0.021139
    73  H    0.042753
    74  H    0.012562
    75  H    0.046897
    76  H    0.037118
    77  H    0.045493
    78  H    0.048716
    79  H    0.051182
    80  Mg   0.834440
    81  C   -0.016884
    82  C   -0.083340
    83  C   -0.047315
    84  C   -0.065405
    85  N   -0.254087
    86  C   -0.052150
    87  C   -0.014839
    88  C   -0.090090
    89  C    0.043824
    90  C    0.114453
    91  C    0.062437
    92  C   -0.076569
    93  H    0.031150
    94  N   -0.423770
    95  C    0.159314
    96  C   -0.175685
    97  C   -0.006627
    98  C    0.152144
    99  C    0.109972
   100  C    0.039993
   101  O   -0.259233
   102  C    0.062862
   103  N   -0.350369
   104  C    0.038860
   105  C   -0.019795
   106  C   -0.034104
   107  C    0.087899
   108  C    0.074099
   109  C    0.035109
   110  C   -0.007088
   111  N   -0.323466
   112  C    0.076370
   113  C   -0.164993
   114  C    0.001500
   115  C    0.094400
   116  C    0.131903
   117  C    0.040926
   118  O   -0.190777
   119  C    0.001184
   120  C    0.211110
   121  O   -0.252473
   122  O   -0.305402
   123  C    0.152597
   124  H   -0.015267
   125  H   -0.017695
   126  H   -0.042180
   127  H   -0.001852
   128  H   -0.003102
   129  H    0.021562
   130  H    0.015122
   131  H    0.015947
   132  H    0.014294
   133  H    0.036247
   134  H    0.020758
   135  H    0.018981
   136  H    0.012302
   137  H    0.021916
   138  H    0.053524
   139  H    0.037253
   140  H    0.012653
   141  H    0.054960
   142  H    0.013032
   143  H    0.011329
   144  H    0.022928
   145  H    0.011921
   146  H    0.005338
   147  H    0.004671
   148  H    0.002960
   149  H    0.010551
   150  H    0.017479
   151  H    0.030416
   152  H    0.044203
   153  H    0.007338
   154  H    0.045554
   155  H    0.034184
   156  H    0.043211
   157  H    0.048921
   158  H    0.052319
 Sum of Mulliken charges =  -0.00000

 Dipole moment (field-independent basis, Debye):
    X=              4.4189    Y=              3.5117    Z=              1.7050  Tot=              5.8963
 Quadrupole moment (field-independent basis, Debye-Ang):
   XX=           -545.8919   YY=           -465.0503   ZZ=           -510.9758
   XY=              6.6034   XZ=             40.0569   YZ=             25.1641

 Normal termination of Gaussian 16 at Wed Sep  8 15:33:16 2021.
