 Gaussian 16, Revision A.03,
 Gaussian 16:  ES64L-G16RevA.03 25-Dec-2016

 -----------------------------------
 #p cam-b3lyp/Def2SVP td=(nstates=5)
 -----------------------------------

 --------------------------------
 TDDFT excited states in gaussian
 --------------------------------
 Symbolic Z-matrix:
 Charge =  0 Multiplicity = 1

                         Standard orientation:
 ---------------------------------------------------------------------
 Center     Atomic      Atomic             Coordinates (Angstroms)
 Number     Number       Type             X           Y           Z
 ---------------------------------------------------------------------
      1         12           0       -5.221443   -0.658424    0.238405
      2          6           0       -5.346105    2.917041    0.125606
      3          6           0       -6.198773   -0.647180   -3.030810
      4          6           0       -5.558407   -3.805152    0.441338
      5          6           0       -5.368999   -0.406805    3.711239
      6          7           0       -5.681096    0.989765   -1.166173
      7          6           0       -5.632532    2.316699   -1.102480
      8          6           0       -5.840519    3.009490   -2.482392
      9          6           0       -6.643561    1.850904   -3.227241
     10          6           0       -6.117864    0.654773   -2.453396
     11          6           0       -8.154220    1.935435   -3.034190
     12          6           0       -4.484994    3.320756   -3.201696
     13          6           0       -4.581736    4.280935   -4.390835
     14          1           0       -3.491343    5.215029   -4.627179
     15          7           0       -5.316731   -2.030810   -1.179455
     16          6           0       -5.721966   -1.846557   -2.458955
     17          6           0       -5.612764   -3.167174   -3.115253
     18          6           0       -5.292300   -4.172507   -2.064205
     19          6           0       -5.403603   -3.370264   -0.872822
     20          6           0       -5.757837   -3.366233   -4.592778
     21          6           0       -4.951702   -5.628060   -2.123292
     22          8           0       -4.936623   -6.365994   -1.079357
     23          6           0       -4.719561   -6.194503   -3.464297
     24          7           0       -5.654730   -1.940616    1.827708
     25          6           0       -5.684905   -3.266731    1.655977
     26          6           0       -5.731986   -3.986672    2.971046
     27          6           0       -5.481616   -2.877066    4.091690
     28          6           0       -5.411622   -1.629420    3.176950
     29          6           0       -7.035960   -4.736222    3.277372
     30          6           0       -4.319287   -3.129967    5.084388
     31          6           0       -2.996587   -3.059362    4.354608
     32          7           0       -5.159322    0.948019    1.696667
     33          6           0       -5.259456    0.826126    3.090148
     34          6           0       -5.275340    2.192813    3.643303
     35          6           0       -5.199553    3.020461    2.524777
     36          6           0       -5.166563    2.221868    1.346027
     37          6           0       -5.410235    2.533922    5.018033
     38          6           0       -5.163611    4.394164    2.049902
     39          8           0       -5.072214    5.496794    2.591519
     40          6           0       -5.379943    4.384769    0.472265
     41          6           0       -4.330754    5.275230   -0.135674
     42          8           0       -3.123080    4.964042   -0.090374
     43          8           0       -4.926430    6.223057   -0.875496
     44          6           0       -3.940185    7.122995   -1.530926
     45          1           0       -6.726246   -0.772454   -3.978449
     46          1           0       -5.567234   -4.890177    0.564134
     47          1           0       -5.328128   -0.251604    4.790913
     48          1           0       -6.442687    3.917615   -2.448855
     49          1           0       -6.365806    1.774075   -4.278274
     50          1           0       -8.420795    2.704269   -2.309102
     51          1           0       -8.457215    0.951792   -2.674840
     52          1           0       -8.659748    2.073975   -3.990237
     53          1           0       -4.136295    2.424538   -3.714787
     54          1           0       -3.749383    3.699633   -2.491306
     55          1           0       -5.540120    4.800709   -4.406480
     56          1           0       -4.578578    3.690901   -5.307378
     57          1           0       -6.153805   -2.476003   -5.079855
     58          1           0       -6.529974   -4.121497   -4.738006
     59          1           0       -4.828021   -3.697386   -5.055500
     60          1           0       -5.612391   -6.053796   -4.073892
     61          1           0       -4.400951   -7.224020   -3.304824
     62          1           0       -3.923314   -5.631687   -3.952331
     63          1           0       -4.947688   -4.739996    3.032752
     64          1           0       -6.352982   -2.738750    4.732209
     65          1           0       -6.893491   -5.798044    3.479716
     66          1           0       -7.716069   -4.585600    2.439485
     67          1           0       -7.615822   -4.325791    4.103643
     68          1           0       -4.396634   -4.128924    5.512230
     69          1           0       -4.294543   -2.417133    5.908710
     70          1           0       -2.895485   -4.060284    3.936560
     71          1           0       -2.187513   -2.844621    5.053533
     72          1           0       -3.039627   -2.360169    3.519285
     73          1           0       -4.687247    3.327160    5.207851
     74          1           0       -5.229761    1.671643    5.659521
     75          1           0       -6.448898    2.863147    5.043418
     76          1           0       -6.387766    4.757411    0.291839
     77          1           0       -4.188091    8.141915   -1.233305
     78          1           0       -3.964231    6.886608   -2.594856
     79          1           0       -2.911245    7.049800   -1.176999
     80         12           0        5.361329   -0.896136   -0.097802
     81          6           0        5.253355    2.646214    0.467171
     82          6           0        4.398095   -0.262740   -3.308036
     83          6           0        5.010062   -4.023239   -0.504288
     84          6           0        5.191920   -1.312305    3.358178
     85          7           0        4.914983    0.989702   -1.163938
     86          6           0        4.967581    2.278807   -0.864296
     87          6           0        4.777835    3.229255   -2.076815
     88          6           0        3.964884    2.232754   -3.038561
     89          6           0        4.479272    0.899350   -2.499916
     90          6           0        2.460997    2.285275   -2.826663
     91          6           0        6.143552    3.659815   -2.718241
     92          6           0        6.051165    4.824941   -3.706007
     93          1           0        7.153672    5.781003   -3.759706
     94          7           0        5.268827   -1.972408   -1.762632
     95          6           0        4.877383   -1.550849   -2.983420
     96          6           0        4.967979   -2.726440   -3.863169
     97          6           0        5.286953   -3.915047   -3.026397
     98          6           0        5.178092   -3.340766   -1.700338
     99          6           0        4.837737   -2.637564   -5.356001
    100          6           0        5.620580   -5.336760   -3.363472
    101          8           0        5.628303   -6.256418   -2.470726
    102          6           0        5.846493   -5.637899   -4.784657
    103          7           0        4.921136   -2.447828    1.214000
    104          6           0        4.879092   -3.722412    0.787868
    105          6           0        4.818915   -4.684491    1.950272
    106          6           0        5.074329   -3.797172    3.256028
    107          6           0        5.152733   -2.400450    2.601495
    108          6           0        3.508962   -5.456221    2.107940
    109          6           0        6.231255   -4.240425    4.192893
    110          6           0        7.559885   -4.053307    3.496383
    111          7           0        5.429161    0.399320    1.629985
    112          6           0        5.314931    0.020107    2.985431
    113          6           0        5.303887    1.261951    3.785514
    114          6           0        5.389965    2.286487    2.830834
    115          6           0        5.430032    1.723616    1.526578
    116          6           0        5.174409    1.338480    5.200961
    117          6           0        5.445328    3.716516    2.629248
    118          8           0        5.532664    4.695397    3.369459
    119          6           0        5.231835    4.017566    1.083229
    120          6           0        6.288464    4.996736    0.650449
    121          8           0        7.489320    4.673423    0.654129
    122          8           0        5.694499    6.071577    0.100634
    123          6           0        6.701963    7.066502   -0.354273
    124          1           0        3.880984   -0.193771   -4.265495
    125          1           0        4.994814   -5.112881   -0.581301
    126          1           0        5.240314   -1.360649    4.448131
    127          1           0        4.186445    4.113723   -1.872507
    128          1           0        4.255796    2.361902   -4.077815
    129          1           0        2.194704    2.899783   -1.979542
    130          1           0        2.150943    1.261389   -2.663676
    131          1           0        1.962031    2.608775   -3.744662
    132          1           0        6.487213    2.866748   -3.394773
    133          1           0        6.866526    3.886307   -1.958875
    134          1           0        5.090574    5.349621   -3.635843
    135          1           0        6.062350    4.420924   -4.721222
    136          1           0        4.441846   -1.663214   -5.667952
    137          1           0        4.063136   -3.353049   -5.652557
    138          1           0        5.765778   -2.886001   -5.875314
    139          1           0        4.959222   -5.373945   -5.355208
    140          1           0        6.159753   -6.683260   -4.815664
    141          1           0        6.658358   -5.000605   -5.152560
    142          1           0        5.599538   -5.431504    1.874802
    143          1           0        4.196348   -3.784935    3.918486
    144          1           0        3.645954   -6.554084    2.103861
    145          1           0        2.837198   -5.153892    1.315559
    146          1           0        2.935614   -5.215146    3.001442
    147          1           0        6.147355   -5.305981    4.420244
    148          1           0        6.248422   -3.709662    5.138933
    149          1           0        7.651962   -4.961054    2.892561
    150          1           0        8.366322   -3.979222    4.223160
    151          1           0        7.526591   -3.201192    2.807584
    152          1           0        5.893417    2.072300    5.540148
    153          1           0        5.342395    0.370503    5.668480
    154          1           0        4.132630    1.659403    5.284449
    155          1           0        4.225801    4.421629    0.964034
    156          1           0        6.454703    8.016057    0.130391
    157          1           0        6.668516    7.041493   -1.459720
    158          1           0        7.726944    6.925153   -0.031978
 ---------------------------------------------------------------------

 SCF Done:  E(RCAM-B3LYP) =  -4069.81150738     A.U. after   19 cycles

 Excitation energies and oscillator strengths:

 Excited State   1:      Singlet-A      1.6572 eV  748.16 nm  f=0.0071  <S**2>=0.000
     309 -> 315       -0.11296
     310 -> 316        0.12587
     311 -> 313       -0.45682
     312 -> 314        0.51331
 This state for optimization and/or second-order correction.
 Total Energy, E(TD-HF/TD-DFT) =  -4069.75060722
 Copying the excited state density for this state as the 1-particle RhoCI density.

 Excited State   2:      Singlet-A      1.6963 eV  730.90 nm  f=0.7139  <S**2>=0.000
     309 -> 315        0.13452
     310 -> 316        0.11856
     311 -> 313        0.51140
     312 -> 314        0.45519

 Excited State   3:      Singlet-A      2.1824 eV  568.12 nm  f=0.0260  <S**2>=0.000
     309 -> 313       -0.26139
     310 -> 314        0.58876
     311 -> 315        0.10883
     312 -> 316       -0.24664

 Excited State   4:      Singlet-A      2.1950 eV  564.86 nm  f=0.1554  <S**2>=0.000
     309 -> 313        0.58486
     310 -> 314        0.25815
     311 -> 315       -0.25676
     312 -> 316       -0.11428

 Excited State   5:      Singlet-A      2.4831 eV  499.31 nm  f=0.0000  <S**2>=0.000
     312 -> 313        0.70710

 The electronic state is 1-A.
 Alpha  occ. eigenvalues --  -46.87880 -46.87483 -19.26388 -19.26133 -19.19124
 Alpha  occ. eigenvalues --  -19.18954 -19.18875 -19.18584 -19.18229 -19.17833
 Alpha  occ. eigenvalues --  -14.42541 -14.42314 -14.41531 -14.41184 -14.39484
 Alpha  occ. eigenvalues --  -14.39180 -14.38665 -14.38416 -10.39182 -10.38878
 Alpha  occ. eigenvalues --  -10.35509 -10.35266 -10.34452 -10.34005 -10.31793
 Alpha  occ. eigenvalues --  -10.31563 -10.31496 -10.31113 -10.31007 -10.30842
 Alpha  occ. eigenvalues --  -10.30651 -10.30581 -10.30287 -10.30220 -10.30177
 Alpha  occ. eigenvalues --  -10.29993 -10.29988 -10.29715 -10.29705 -10.29333
 Alpha  occ. eigenvalues --  -10.29276 -10.29231 -10.28879 -10.28744 -10.28513
 Alpha  occ. eigenvalues --  -10.28508 -10.28447 -10.28233 -10.28221 -10.27923
 Alpha  occ. eigenvalues --  -10.27865 -10.27824 -10.27816 -10.27660 -10.27581
 Alpha  occ. eigenvalues --  -10.27573 -10.27517 -10.27497 -10.27490 -10.27378
 Alpha  occ. eigenvalues --  -10.27375 -10.27304 -10.27295 -10.27240 -10.27223
 Alpha  occ. eigenvalues --  -10.26887 -10.26804 -10.26525 -10.26469 -10.26334
 Alpha  occ. eigenvalues --  -10.26332 -10.26261 -10.26097 -10.26019 -10.25879
 Alpha  occ. eigenvalues --  -10.25769 -10.25729 -10.25664 -10.25493 -10.25236
 Alpha  occ. eigenvalues --  -10.24903 -10.24864 -10.24777 -10.24686 -10.24617
 Alpha  occ. eigenvalues --  -10.24514  -3.16623  -3.16233  -1.91505  -1.91115
 Alpha  occ. eigenvalues --   -1.91091  -1.90933  -1.90703  -1.90540  -1.16737
 Alpha  occ. eigenvalues --   -1.16429  -1.08687  -1.08433  -1.07274  -1.06839
 Alpha  occ. eigenvalues --   -1.06744  -1.06737  -1.04672  -1.04310  -1.03843
 Alpha  occ. eigenvalues --   -1.03486  -1.03312  -1.02865  -1.02491  -1.01933
 Alpha  occ. eigenvalues --   -0.92054  -0.91788  -0.89598  -0.89333  -0.89309
 Alpha  occ. eigenvalues --   -0.88946  -0.88363  -0.88063  -0.87935  -0.87769
 Alpha  occ. eigenvalues --   -0.87610  -0.87510  -0.87352  -0.86985  -0.85097
 Alpha  occ. eigenvalues --   -0.84815  -0.84013  -0.83721  -0.83039  -0.82809
 Alpha  occ. eigenvalues --   -0.82750  -0.82476  -0.81679  -0.81406  -0.80684
 Alpha  occ. eigenvalues --   -0.80264  -0.78875  -0.78481  -0.77312  -0.77040
 Alpha  occ. eigenvalues --   -0.76974  -0.76714  -0.76020  -0.75638  -0.74975
 Alpha  occ. eigenvalues --   -0.74634  -0.72852  -0.72523  -0.71757  -0.71391
 Alpha  occ. eigenvalues --   -0.69986  -0.69614  -0.68978  -0.68647  -0.67723
 Alpha  occ. eigenvalues --   -0.67430  -0.67342  -0.67043  -0.65398  -0.65080
 Alpha  occ. eigenvalues --   -0.64940  -0.64715  -0.64592  -0.64471  -0.64349
 Alpha  occ. eigenvalues --   -0.64042  -0.62390  -0.62087  -0.60518  -0.60191
 Alpha  occ. eigenvalues --   -0.59909  -0.59601  -0.59070  -0.58814  -0.58585
 Alpha  occ. eigenvalues --   -0.58244  -0.57668  -0.57387  -0.57341  -0.57068
 Alpha  occ. eigenvalues --   -0.56388  -0.56083  -0.56035  -0.55698  -0.55599
 Alpha  occ. eigenvalues --   -0.55419  -0.55288  -0.55075  -0.54610  -0.54313
 Alpha  occ. eigenvalues --   -0.54016  -0.53716  -0.53377  -0.53320  -0.53067
 Alpha  occ. eigenvalues --   -0.53008  -0.52968  -0.52847  -0.52725  -0.52526
 Alpha  occ. eigenvalues --   -0.52518  -0.52263  -0.51970  -0.51727  -0.51696
 Alpha  occ. eigenvalues --   -0.51486  -0.51279  -0.51018  -0.50653  -0.50359
 Alpha  occ. eigenvalues --   -0.50114  -0.50002  -0.49811  -0.49714  -0.49609
 Alpha  occ. eigenvalues --   -0.49322  -0.49297  -0.49196  -0.49017  -0.48895
 Alpha  occ. eigenvalues --   -0.48680  -0.48533  -0.48519  -0.48367  -0.48217
 Alpha  occ. eigenvalues --   -0.48181  -0.47786  -0.47427  -0.47379  -0.46965
 Alpha  occ. eigenvalues --   -0.46885  -0.46672  -0.46539  -0.46439  -0.46373
 Alpha  occ. eigenvalues --   -0.46239  -0.46108  -0.45907  -0.45902  -0.45627
 Alpha  occ. eigenvalues --   -0.45277  -0.45041  -0.44657  -0.44601  -0.44328
 Alpha  occ. eigenvalues --   -0.44302  -0.44227  -0.44192  -0.44099  -0.43934
 Alpha  occ. eigenvalues --   -0.43926  -0.43771  -0.43581  -0.43483  -0.43366
 Alpha  occ. eigenvalues --   -0.43202  -0.43109  -0.42791  -0.42743  -0.42740
 Alpha  occ. eigenvalues --   -0.42704  -0.42404  -0.42102  -0.41802  -0.41786
 Alpha  occ. eigenvalues --   -0.41649  -0.41473  -0.41284  -0.41229  -0.40979
 Alpha  occ. eigenvalues --   -0.40907  -0.40798  -0.40654  -0.40581  -0.40530
 Alpha  occ. eigenvalues --   -0.40382  -0.40326  -0.40061  -0.39524  -0.39287
 Alpha  occ. eigenvalues --   -0.38557  -0.38189  -0.37889  -0.37486  -0.37403
 Alpha  occ. eigenvalues --   -0.37374  -0.37101  -0.37018  -0.36808  -0.36576
 Alpha  occ. eigenvalues --   -0.36285  -0.36041  -0.34368  -0.34073  -0.33871
 Alpha  occ. eigenvalues --   -0.33660  -0.33269  -0.32999  -0.31406  -0.31141
 Alpha  occ. eigenvalues --   -0.31118  -0.30792  -0.30090  -0.29733  -0.29524
 Alpha  occ. eigenvalues --   -0.29392  -0.29166  -0.29024  -0.24164  -0.23853
 Alpha  occ. eigenvalues --   -0.21209  -0.20941
 Alpha virt. eigenvalues --   -0.08852  -0.08617  -0.01830  -0.01512  -0.00134
 Alpha virt. eigenvalues --    0.00132   0.02133   0.02403   0.03016   0.03390
 Alpha virt. eigenvalues --    0.04608   0.04912   0.05000   0.05376   0.06020

 Mulliken charges:
               1
     1  Mg   0.838519
     2  C   -0.003266
     3  C   -0.094756
     4  C   -0.045634
     5  C   -0.063771
     6  N   -0.256691
     7  C   -0.052763
     8  C   -0.013882
     9  C   -0.086891
    10  C    0.046027
    11  C    0.104787
    12  C    0.053756
    13  C   -0.071295
    14  H    0.034525
    15  N   -0.433154
    16  C    0.168262
    17  C   -0.177467
    18  C   -0.003852
    19  C    0.148676
    20  C    0.110259
    21  C    0.012584
    22  O   -0.249209
    23  C    0.062477
    24  N   -0.341075
    25  C    0.041158
    26  C   -0.028234
    27  C   -0.023993
    28  C    0.074796
    29  C    0.076099
    30  C    0.035103
    31  C   -0.004501
    32  N   -0.310544
    33  C    0.080457
    34  C   -0.169263
    35  C    0.008669
    36  C    0.083027
    37  C    0.127177
    38  C    0.046432
    39  O   -0.187619
    40  C   -0.005525
    41  C    0.213229
    42  O   -0.257616
    43  O   -0.304657
    44  C    0.157601
    45  H   -0.017734
    46  H   -0.016593
    47  H   -0.041187
    48  H    0.001184
    49  H   -0.004591
    50  H    0.025679
    51  H    0.016713
    52  H    0.016629
    53  H    0.010212
    54  H    0.043557
    55  H    0.018646
    56  H    0.017491
    57  H    0.005494
    58  H    0.027065
    59  H    0.038842
    60  H    0.037191
    61  H    0.036268
    62  H    0.031114
    63  H    0.016633
    64  H    0.009691
    65  H    0.023383
    66  H    0.012610
    67  H    0.004889
    68  H    0.006410
    69  H    0.004939
    70  H    0.008703
    71  H    0.017527
    72  H    0.029267
    73  H    0.048402
    74  H    0.009229
    75  H    0.046164
    76  H    0.035309
    77  H    0.043609
    78  H    0.045750
    79  H    0.053541
    80  Mg   0.838013
    81  C   -0.016359
    82  C   -0.087951
    83  C   -0.045710
    84  C   -0.065031
    85  N   -0.254628
    86  C   -0.048709
    87  C   -0.015238
    88  C   -0.090849
    89  C    0.046135
    90  C    0.114137
    91  C    0.062594
    92  C   -0.077456
    93  H    0.034205
    94  N   -0.423395
    95  C    0.162827
    96  C   -0.175340
    97  C   -0.008183
    98  C    0.151976
    99  C    0.099784
   100  C    0.015192
   101  O   -0.253402
   102  C    0.061389
   103  N   -0.350021
   104  C    0.037514
   105  C   -0.019795
   106  C   -0.034704
   107  C    0.089143
   108  C    0.073717
   109  C    0.034806
   110  C   -0.007587
   111  N   -0.324338
   112  C    0.078973
   113  C   -0.162866
   114  C    0.003164
   115  C    0.096175
   116  C    0.131206
   117  C    0.043315
   118  O   -0.187048
   119  C    0.000390
   120  C    0.210957
   121  O   -0.251706
   122  O   -0.304845
   123  C    0.152264
   124  H   -0.020723
   125  H   -0.015861
   126  H   -0.040824
   127  H    0.000847
   128  H   -0.005580
   129  H    0.027616
   130  H    0.013839
   131  H    0.014567
   132  H    0.013394
   133  H    0.037550
   134  H    0.021014
   135  H    0.018851
   136  H    0.008106
   137  H    0.024760
   138  H    0.039248
   139  H    0.037480
   140  H    0.035967
   141  H    0.033715
   142  H    0.014024
   143  H    0.012075
   144  H    0.024934
   145  H    0.012347
   146  H    0.005300
   147  H    0.005920
   148  H    0.003375
   149  H    0.010798
   150  H    0.017603
   151  H    0.030298
   152  H    0.045852
   153  H    0.007825
   154  H    0.048278
   155  H    0.038558
   156  H    0.044060
   157  H    0.048991
   158  H    0.053083
 Sum of Mulliken charges =  -0.00000

 Dipole moment (field-independent basis, Debye):
    X=             -4.4291    Y=             -2.0957    Z=             -7.2676  Tot=              8.7651
 Quadrupole moment (field-independent basis, Debye-Ang):
   XX=           -518.2105   YY=           -550.4120   ZZ=           -449.1098
   XY=             -2.5115   XZ=              0.2921   YZ=            -47.5888

 Normal termination of Gaussian 16 at Sat Sep  4 01:17:14 2021.
