 Gaussian 16, Revision A.03,
 Gaussian 16:  ES64L-G16RevA.03 25-Dec-2016

 -----------------------------------
 #p cam-b3lyp/Def2SVP td=(nstates=5)
 -----------------------------------

 --------------------------------
 TDDFT excited states in gaussian
 --------------------------------
 Symbolic Z-matrix:
 Charge =  0 Multiplicity = 1

                         Standard orientation:
 ---------------------------------------------------------------------
 Center     Atomic      Atomic             Coordinates (Angstroms)
 Number     Number       Type             X           Y           Z
 ---------------------------------------------------------------------
      1         12           0       15.773033   -0.816569    0.081512
      2          6           0       16.145322    2.617358   -0.857507
      3          6           0       16.712455    0.097638    3.231874
      4          6           0       15.892098   -3.897626    0.822819
      5          6           0       15.976271   -1.611546   -3.305576
      6          7           0       16.330833    1.140314    0.953358
      7          6           0       16.375576    2.389556    0.501071
      8          6           0       16.616024    3.444305    1.622259
      9          6           0       17.328058    2.508916    2.699317
     10          6           0       16.728890    1.173414    2.295142
     11          6           0       18.842982    2.436834    2.537108
     12          6           0       15.277596    4.039278    2.175746
     13          6           0       15.427829    5.299640    3.032643
     14          1           0       14.402634    6.328956    2.949976
     15          7           0       15.756712   -1.712223    1.842304
     16          6           0       16.159588   -1.184407    3.023146
     17          6           0       15.951341   -2.242645    4.034802
     18          6           0       15.573266   -3.491109    3.316130
     19          6           0       15.753416   -3.085181    1.945675
     20          6           0       16.065793   -2.005293    5.509358
     21          6           0       15.131418   -4.839680    3.789688
     22          8           0       15.076525   -5.850468    3.008747
     23          6           0       14.845506   -4.968985    5.230027
     24          7           0       16.133503   -2.535636   -1.046541
     25          6           0       16.069276   -3.751030   -0.491854
     26          6           0       16.080648   -4.828666   -1.535171
     27          6           0       15.920664   -4.085936   -2.939631
     28          6           0       15.927653   -2.621999   -2.434548
     29          6           0       17.332529   -5.716245   -1.566937
     30          6           0       14.754615   -4.546562   -3.849892
     31          6           0       13.432041   -4.179997   -3.214655
     32          7           0       15.839199    0.288183   -1.785622
     33          6           0       15.946042   -0.245844   -3.077935
     34          6           0       16.063271    0.892679   -4.007500
     35          6           0       16.032950    2.016772   -3.184494
     36          6           0       15.931314    1.605633   -1.824741
     37          6           0       16.236848    0.803369   -5.416872
     38          6           0       16.087571    3.468834   -3.135614
     39          8           0       16.079256    4.365829   -3.979902
     40          6           0       16.285213    3.912044   -1.618930
     41          6           0       15.293958    5.006884   -1.332490
     42          8           0       14.068110    4.773323   -1.321945
     43          8           0       15.946003    6.091197   -0.885673
     44          6           0       15.017669    7.205108   -0.554688
     45          1           0       17.219372    0.224643    4.190438
     46          1           0       15.826646   -4.968807    1.024621
     47          1           0       15.958293   -1.779823   -4.383914
     48          1           0       17.280355    4.261992    1.342123
     49          1           0       17.033985    2.763625    3.717338
     50          1           0       19.170517    2.938774    1.626780
     51          1           0       19.080653    1.373821    2.492293
     52          1           0       19.346303    2.819206    3.425498
     53          1           0       14.861615    3.358501    2.918419
     54          1           0       14.578103    4.237272    1.362830
     55          1           0       16.419874    5.739076    2.924707
     56          1           0       15.373392    5.008006    4.081540
     57          1           0       16.517416   -1.037874    5.725420
     58          1           0       16.781757   -2.731299    5.894092
     59          1           0       15.110084   -2.125465    6.019761
     60          1           0       15.739156   -4.711376    5.798865
     61          1           0       14.457708   -5.977346    5.370278
     62          1           0       14.085057   -4.237915    5.506075
     63          1           0       15.246488   -5.515371   -1.397187
     64          1           0       16.806600   -4.198397   -3.565046
     65          1           0       17.118656   -6.779214   -1.452662
     66          1           0       18.012148   -5.368300   -0.789542
     67          1           0       17.948713   -5.605688   -2.458852
     68          1           0       14.766893   -5.630110   -3.962670
     69          1           0       14.788756   -4.108862   -4.847642
     70          1           0       13.256796   -5.004334   -2.524300
     71          1           0       12.647701   -4.130438   -3.970675
     72          1           0       13.514440   -3.269514   -2.620755
     73          1           0       15.573053    1.549298   -5.853832
     74          1           0       16.003842   -0.196645   -5.781951
     75          1           0       17.296149    1.043955   -5.505510
     76          1           0       17.314493    4.256746   -1.524668
     77          1           0       15.339270    8.072868   -1.130708
     78          1           0       15.013381    7.292407    0.531943
     79          1           0       13.990118    7.095975   -0.903354
     80         12           0      -15.943533    0.793611    0.241325
     81          6           0      -15.920265   -2.756113   -0.285926
     82          6           0      -15.065192    1.135838   -3.036781
     83          6           0      -15.515850    3.890702    0.782190
     84          6           0      -15.690687    0.148061    3.656737
     85          7           0      -15.571068   -0.692845   -1.353658
     86          6           0      -15.652472   -2.011105   -1.453271
     87          6           0      -15.514050   -2.556577   -2.899940
     88          6           0      -14.694542   -1.333234   -3.540808
     89          6           0      -15.161068   -0.213620   -2.612655
     90          6           0      -13.188536   -1.476642   -3.396800
     91          6           0      -16.904090   -2.747398   -3.602356
     92          6           0      -16.864108   -3.563225   -4.896406
     93          1           0      -17.993121   -4.437015   -5.203495
     94          7           0      -15.856579    2.318576   -1.025749
     95          6           0      -15.502347    2.275935   -2.327273
     96          6           0      -15.579264    3.663168   -2.810824
     97          6           0      -15.848212    4.551251   -1.647337
     98          6           0      -15.727341    3.602829   -0.558309
     99          6           0      -15.482713    4.024691   -4.264584
    100          6           0      -16.149989    6.014805   -1.532760
    101          8           0      -16.114011    6.623491   -0.405356
    102          6           0      -16.397260    6.733677   -2.791157
    103          7           0      -15.433961    1.870133    1.945363
    104          6           0      -15.366135    3.212786    1.920325
    105          6           0      -15.255513    3.779495    3.315667
    106          6           0      -15.507650    2.545859    4.301643
    107          6           0      -15.637711    1.412371    3.260642
    108          6           0      -13.922037    4.442174    3.660745
    109          6           0      -16.632259    2.709627    5.360470
    110          6           0      -17.979753    2.766771    4.677548
    111          7           0      -16.010497   -0.959775    1.501975
    112          6           0      -15.857695   -1.007941    2.904973
    113          6           0      -15.863742   -2.432837    3.294913
    114          6           0      -15.997610   -3.121047    2.079622
    115          6           0      -16.049584   -2.191423    1.006021
    116          6           0      -15.706858   -2.933919    4.617950
    117          6           0      -16.096076   -4.422932    1.459866
    118          8           0      -16.194551   -5.577152    1.874392
    119          6           0      -15.923209   -4.249391   -0.110604
    120          6           0      -17.014913   -5.032137   -0.787369
    121          8           0      -18.206187   -4.701310   -0.653106
    122          8           0      -16.462050   -5.903414   -1.650837
    123          6           0      -17.505512   -6.695517   -2.354820
    124          1           0      -14.570274    1.347752   -3.984955
    125          1           0      -15.472552    4.952558    1.035293
    126          1           0      -15.714972   -0.132580    4.711879
    127          1           0      -14.942813   -3.473016   -2.987150
    128          1           0      -15.010513   -1.138211   -4.562327
    129          1           0      -12.921444   -2.322523   -2.780941
    130          1           0      -12.847388   -0.555437   -2.942880
    131          1           0      -12.717861   -1.518925   -4.383208
    132          1           0      -17.240083   -1.781023   -3.999803
    133          1           0      -17.616938   -3.177439   -2.925934
    134          1           0      -15.916905   -4.103538   -5.013937
    135          1           0      -16.885495   -2.872544   -5.742868
    136          1           0      -15.120099    3.181611   -4.865520
    137          1           0      -14.695290    4.780833   -4.354425
    138          1           0      -16.414303    4.435980   -4.659106
    139          1           0      -15.529619    6.636065   -3.439326
    140          1           0      -16.682531    7.745960   -2.498243
    141          1           0      -17.233683    6.252591   -3.310360
    142          1           0      -16.016925    4.529849    3.489803
    143          1           0      -14.616681    2.317741    4.904948
    144          1           0      -14.029150    5.492931    3.990139
    145          1           0      -13.275451    4.378899    2.795616
    146          1           0      -13.336913    3.932378    4.424254
    147          1           0      -16.514648    3.655671    5.894627
    148          1           0      -16.644099    1.919439    6.103754
    149          1           0      -18.059677    3.815686    4.376767
    150          1           0      -18.772544    2.493490    5.370973
    151          1           0      -17.984068    2.160682    3.764151
    152          1           0      -16.438327   -3.721458    4.741381
    153          1           0      -15.838621   -2.148175    5.358908
    154          1           0      -14.672681   -3.285535    4.571982
    155          1           0      -14.931260   -4.618640   -0.373783
    156          1           0      -17.274113   -7.751523   -2.184560
    157          1           0      -17.494508   -6.339970   -3.402303
    158          1           0      -18.519315   -6.637449   -1.976290
 ---------------------------------------------------------------------

 SCF Done:  E(RCAM-B3LYP) =  -4069.81178270     A.U. after   19 cycles

 Excitation energies and oscillator strengths:

 Excited State   1:      Singlet-A      1.6754 eV  740.04 nm  f=0.2403  <S**2>=0.000
     310 -> 316        0.16929
     311 -> 314        0.15102
     312 -> 313        0.66922
     310 <- 316        0.10206
 This state for optimization and/or second-order correction.
 Total Energy, E(TD-HF/TD-DFT) =  -4069.75021390
 Copying the excited state density for this state as the 1-particle RhoCI density.

 Excited State   2:      Singlet-A      1.6801 eV  737.95 nm  f=0.5368  <S**2>=0.000
     309 -> 315        0.17131
     311 -> 314        0.66886
     312 -> 313       -0.15098
     309 <- 315        0.10257

 Excited State   3:      Singlet-A      2.1861 eV  567.14 nm  f=0.0965  <S**2>=0.000
     310 -> 313        0.64217
     312 -> 316       -0.27300

 Excited State   4:      Singlet-A      2.1926 eV  565.47 nm  f=0.1038  <S**2>=0.000
     309 -> 314        0.64040
     311 -> 315       -0.27819

 Excited State   5:      Singlet-A      3.0660 eV  404.39 nm  f=0.0000  <S**2>=0.000
     311 -> 313        0.70711

 The electronic state is 1-A.
 Alpha  occ. eigenvalues --  -46.87796 -46.87660 -19.26349 -19.26286 -19.19161
 Alpha  occ. eigenvalues --  -19.19022 -19.18812 -19.18712 -19.18171 -19.18052
 Alpha  occ. eigenvalues --  -14.42497 -14.42449 -14.41449 -14.41360 -14.39402
 Alpha  occ. eigenvalues --  -14.39352 -14.38600 -14.38587 -10.39090 -10.39081
 Alpha  occ. eigenvalues --  -10.35445 -10.35389 -10.34391 -10.34229 -10.31756
 Alpha  occ. eigenvalues --  -10.31681 -10.31405 -10.31308 -10.31022 -10.30908
 Alpha  occ. eigenvalues --  -10.30570 -10.30508 -10.30398 -10.30361 -10.30206
 Alpha  occ. eigenvalues --  -10.30141 -10.29921 -10.29896 -10.29630 -10.29436
 Alpha  occ. eigenvalues --  -10.29401 -10.29254 -10.28748 -10.28716 -10.28650
 Alpha  occ. eigenvalues --  -10.28536 -10.28404 -10.28364 -10.28137 -10.28115
 Alpha  occ. eigenvalues --  -10.28001 -10.27793 -10.27726 -10.27668 -10.27583
 Alpha  occ. eigenvalues --  -10.27521 -10.27502 -10.27483 -10.27478 -10.27466
 Alpha  occ. eigenvalues --  -10.27461 -10.27450 -10.27403 -10.27378 -10.27159
 Alpha  occ. eigenvalues --  -10.27050 -10.26703 -10.26690 -10.26411 -10.26404
 Alpha  occ. eigenvalues --  -10.26233 -10.26186 -10.26142 -10.26020 -10.26019
 Alpha  occ. eigenvalues --  -10.25935 -10.25855 -10.25847 -10.25436 -10.25400
 Alpha  occ. eigenvalues --  -10.24873 -10.24833 -10.24787 -10.24736 -10.24690
 Alpha  occ. eigenvalues --  -10.24690  -3.16539  -3.16410  -1.91421  -1.91292
 Alpha  occ. eigenvalues --   -1.91007  -1.90881  -1.90849  -1.90718  -1.16643
 Alpha  occ. eigenvalues --   -1.16634  -1.08659  -1.08629  -1.07213  -1.06964
 Alpha  occ. eigenvalues --   -1.06945  -1.06644  -1.04580  -1.04494  -1.03760
 Alpha  occ. eigenvalues --   -1.03663  -1.03234  -1.03039  -1.02411  -1.02112
 Alpha  occ. eigenvalues --   -0.91987  -0.91972  -0.89520  -0.89496  -0.89187
 Alpha  occ. eigenvalues --   -0.89148  -0.88287  -0.88222  -0.87871  -0.87795
 Alpha  occ. eigenvalues --   -0.87683  -0.87672  -0.87272  -0.87118  -0.84998
 Alpha  occ. eigenvalues --   -0.84981  -0.83937  -0.83878  -0.82965  -0.82930
 Alpha  occ. eigenvalues --   -0.82651  -0.82647  -0.81596  -0.81586  -0.80596
 Alpha  occ. eigenvalues --   -0.80442  -0.78796  -0.78635  -0.77218  -0.77144
 Alpha  occ. eigenvalues --   -0.76934  -0.76898  -0.75923  -0.75837  -0.74898
 Alpha  occ. eigenvalues --   -0.74804  -0.72774  -0.72699  -0.71672  -0.71581
 Alpha  occ. eigenvalues --   -0.69908  -0.69760  -0.68872  -0.68826  -0.67641
 Alpha  occ. eigenvalues --   -0.67601  -0.67218  -0.67198  -0.65286  -0.65270
 Alpha  occ. eigenvalues --   -0.64854  -0.64770  -0.64653  -0.64621  -0.64270
 Alpha  occ. eigenvalues --   -0.64205  -0.62299  -0.62279  -0.60441  -0.60339
 Alpha  occ. eigenvalues --   -0.59803  -0.59795  -0.58993  -0.58987  -0.58504
 Alpha  occ. eigenvalues --   -0.58426  -0.57585  -0.57555  -0.57309  -0.57237
 Alpha  occ. eigenvalues --   -0.56310  -0.56204  -0.55979  -0.55886  -0.55519
 Alpha  occ. eigenvalues --   -0.55451  -0.55340  -0.55249  -0.54525  -0.54489
 Alpha  occ. eigenvalues --   -0.53910  -0.53894  -0.53298  -0.53228  -0.53221
 Alpha  occ. eigenvalues --   -0.53140  -0.52915  -0.52902  -0.52754  -0.52665
 Alpha  occ. eigenvalues --   -0.52440  -0.52404  -0.51917  -0.51887  -0.51656
 Alpha  occ. eigenvalues --   -0.51615  -0.51202  -0.51196  -0.50569  -0.50472
 Alpha  occ. eigenvalues --   -0.50032  -0.49978  -0.49917  -0.49868  -0.49513
 Alpha  occ. eigenvalues --   -0.49486  -0.49214  -0.49201  -0.49103  -0.49095
 Alpha  occ. eigenvalues --   -0.48593  -0.48558  -0.48461  -0.48444  -0.48377
 Alpha  occ. eigenvalues --   -0.48337  -0.47694  -0.47593  -0.47296  -0.47117
 Alpha  occ. eigenvalues --   -0.46797  -0.46709  -0.46554  -0.46552  -0.46359
 Alpha  occ. eigenvalues --   -0.46271  -0.46163  -0.46087  -0.45823  -0.45823
 Alpha  occ. eigenvalues --   -0.45210  -0.45201  -0.44578  -0.44514  -0.44505
 Alpha  occ. eigenvalues --   -0.44475  -0.44145  -0.44126  -0.44087  -0.44078
 Alpha  occ. eigenvalues --   -0.44019  -0.43937  -0.43554  -0.43496  -0.43385
 Alpha  occ. eigenvalues --   -0.43385  -0.43027  -0.42930  -0.42902  -0.42700
 Alpha  occ. eigenvalues --   -0.42656  -0.42555  -0.42010  -0.41965  -0.41704
 Alpha  occ. eigenvalues --   -0.41669  -0.41533  -0.41458  -0.41140  -0.40989
 Alpha  occ. eigenvalues --   -0.40868  -0.40821  -0.40720  -0.40697  -0.40572
 Alpha  occ. eigenvalues --   -0.40495  -0.40232  -0.40224  -0.39442  -0.39428
 Alpha  occ. eigenvalues --   -0.38469  -0.38352  -0.37747  -0.37652  -0.37320
 Alpha  occ. eigenvalues --   -0.37267  -0.37263  -0.37198  -0.36771  -0.36714
 Alpha  occ. eigenvalues --   -0.36218  -0.36193  -0.34286  -0.34253  -0.33862
 Alpha  occ. eigenvalues --   -0.33772  -0.33186  -0.33176  -0.31342  -0.31271
 Alpha  occ. eigenvalues --   -0.31035  -0.30973  -0.30030  -0.29956  -0.29448
 Alpha  occ. eigenvalues --   -0.29327  -0.29322  -0.29212  -0.24080  -0.24036
 Alpha  occ. eigenvalues --   -0.21127  -0.21117
 Alpha virt. eigenvalues --   -0.08792  -0.08774  -0.01749  -0.01684  -0.00056
 Alpha virt. eigenvalues --   -0.00027   0.02200   0.02206   0.03122   0.03227
 Alpha virt. eigenvalues --    0.04719   0.04730   0.05097   0.05165   0.06179

 Mulliken charges:
               1
     1  Mg   0.838730
     2  C   -0.002962
     3  C   -0.094101
     4  C   -0.045863
     5  C   -0.063966
     6  N   -0.256769
     7  C   -0.052502
     8  C   -0.014003
     9  C   -0.087016
    10  C    0.046321
    11  C    0.104811
    12  C    0.053467
    13  C   -0.071817
    14  H    0.036134
    15  N   -0.433142
    16  C    0.168434
    17  C   -0.177127
    18  C   -0.003969
    19  C    0.148710
    20  C    0.110169
    21  C    0.012291
    22  O   -0.249603
    23  C    0.062472
    24  N   -0.341133
    25  C    0.041260
    26  C   -0.028181
    27  C   -0.023978
    28  C    0.074830
    29  C    0.076168
    30  C    0.035144
    31  C   -0.004503
    32  N   -0.310462
    33  C    0.080391
    34  C   -0.169763
    35  C    0.008340
    36  C    0.082990
    37  C    0.127322
    38  C    0.046092
    39  O   -0.188499
    40  C   -0.005327
    41  C    0.212874
    42  O   -0.257120
    43  O   -0.304791
    44  C    0.157700
    45  H   -0.017570
    46  H   -0.016819
    47  H   -0.041535
    48  H    0.000930
    49  H   -0.004001
    50  H    0.025466
    51  H    0.016449
    52  H    0.016681
    53  H    0.011226
    54  H    0.044103
    55  H    0.017869
    56  H    0.017984
    57  H    0.005894
    58  H    0.026855
    59  H    0.039609
    60  H    0.037359
    61  H    0.035699
    62  H    0.031531
    63  H    0.016562
    64  H    0.009445
    65  H    0.023227
    66  H    0.012561
    67  H    0.004742
    68  H    0.006359
    69  H    0.004685
    70  H    0.008806
    71  H    0.018086
    72  H    0.028995
    73  H    0.047511
    74  H    0.009076
    75  H    0.045996
    76  H    0.035147
    77  H    0.042925
    78  H    0.046430
    79  H    0.053664
    80  Mg   0.837826
    81  C   -0.016807
    82  C   -0.087754
    83  C   -0.045476
    84  C   -0.064863
    85  N   -0.254572
    86  C   -0.049834
    87  C   -0.015092
    88  C   -0.090511
    89  C    0.045751
    90  C    0.114351
    91  C    0.062519
    92  C   -0.077906
    93  H    0.034892
    94  N   -0.423488
    95  C    0.162936
    96  C   -0.174564
    97  C   -0.007793
    98  C    0.152110
    99  C    0.099338
   100  C    0.015598
   101  O   -0.253180
   102  C    0.061188
   103  N   -0.350056
   104  C    0.037528
   105  C   -0.019861
   106  C   -0.034811
   107  C    0.088885
   108  C    0.073653
   109  C    0.034756
   110  C   -0.007673
   111  N   -0.324088
   112  C    0.078425
   113  C   -0.163171
   114  C    0.002259
   115  C    0.096165
   116  C    0.131492
   117  C    0.042356
   118  O   -0.187920
   119  C    0.000921
   120  C    0.211269
   121  O   -0.251034
   122  O   -0.305624
   123  C    0.152032
   124  H   -0.019570
   125  H   -0.015558
   126  H   -0.040503
   127  H   -0.000629
   128  H   -0.004281
   129  H    0.022465
   130  H    0.014462
   131  H    0.016376
   132  H    0.013921
   133  H    0.037656
   134  H    0.020814
   135  H    0.019627
   136  H    0.008818
   137  H    0.026238
   138  H    0.039827
   139  H    0.038316
   140  H    0.036423
   141  H    0.033898
   142  H    0.014400
   143  H    0.012398
   144  H    0.025141
   145  H    0.011693
   146  H    0.005657
   147  H    0.006239
   148  H    0.003617
   149  H    0.010938
   150  H    0.017907
   151  H    0.030119
   152  H    0.045978
   153  H    0.008478
   154  H    0.046925
   155  H    0.035046
   156  H    0.043907
   157  H    0.049521
   158  H    0.053567
 Sum of Mulliken charges =  -0.00000

 Dipole moment (field-independent basis, Debye):
    X=              4.0732    Y=              1.2435    Z=              0.5848  Tot=              4.2987
 Quadrupole moment (field-independent basis, Debye-Ang):
   XX=           -518.8446   YY=           -547.1986   ZZ=           -451.5215
   XY=            -39.4141   XZ=            123.3862   YZ=             44.0226

 Normal termination of Gaussian 16 at Sun Sep 12 11:50:33 2021.
