 Gaussian 16, Revision A.03,
 Gaussian 16:  ES64L-G16RevA.03 25-Dec-2016

 -----------------------------------
 #p cam-b3lyp/Def2SVP td=(nstates=5)
 -----------------------------------

 --------------------------------
 TDDFT excited states in gaussian
 --------------------------------
 Symbolic Z-matrix:
 Charge =  0 Multiplicity = 1

                         Standard orientation:
 ---------------------------------------------------------------------
 Center     Atomic      Atomic             Coordinates (Angstroms)
 Number     Number       Type             X           Y           Z
 ---------------------------------------------------------------------
      1         12           0       15.496164    0.707535    0.431322
      2          6           0       15.771560   -2.456489   -1.219534
      3          6           0       16.412489    2.158362   -2.518003
      4          6           0       15.701899    3.468076    1.978482
      5          6           0       15.718512   -1.015706    3.452359
      6          7           0       15.999865   -0.146649   -1.547896
      7          6           0       16.009296   -1.371006   -2.065614
      8          6           0       16.221188   -1.387530   -3.609053
      9          6           0       16.960029    0.015322   -3.776741
     10          6           0       16.398036    0.732568   -2.561979
     11          6           0       18.476230   -0.074016   -3.636546
     12          6           0       14.867158   -1.419421   -4.394747
     13          6           0       14.982891   -1.764427   -5.882339
     14          1           0       13.929273   -2.553751   -6.502182
     15          7           0       15.506433    2.561284   -0.251582
     16          6           0       15.895461    2.968261   -1.483781
     17          6           0       15.717754    4.436159   -1.503166
     18          6           0       15.374056    4.871185   -0.120878
     19          6           0       15.541578    3.638358    0.605381
     20          6           0       15.826844    5.261820   -2.748209
     21          6           0       14.970469    6.191210    0.455996
     22          8           0       14.943134    6.402819    1.716570
     23          6           0       14.689563    7.270921   -0.507518
     24          7           0       15.903504    1.193844    2.420093
     25          6           0       15.873743    2.463384    2.840056
     26          6           0       15.914280    2.544300    4.337303
     27          6           0       15.732363    1.048569    4.865932
     28          6           0       15.698911    0.318214    3.500746
     29          6           0       17.190435    3.147141    4.940645
     30          6           0       14.578825    0.792312    5.867981
     31          6           0       13.247095    0.983130    5.177198
     32          7           0       15.529785   -1.372863    1.049270
     33          6           0       15.650352   -1.861794    2.358118
     34          6           0       15.734908   -3.330854    2.264408
     35          6           0       15.673935   -3.595161    0.897562
     36          6           0       15.585032   -2.367443    0.181255
     37          6           0       15.909657   -4.226846    3.355781
     38          6           0       15.688020   -4.627852   -0.125770
     39          8           0       15.653903   -5.859204   -0.115651
     40          6           0       15.874556   -3.926266   -1.543094
     41          6           0       14.853364   -4.513507   -2.478842
     42          8           0       13.634527   -4.309218   -2.305437
     43          8           0       15.475266   -5.018698   -3.555206
     44          6           0       14.516477   -5.590978   -4.537741
     45          1           0       16.916514    2.705987   -3.316756
     46          1           0       15.666570    4.392071    2.559363
     47          1           0       15.704280   -1.624779    4.358052
     48          1           0       16.862171   -2.191514   -3.971232
     49          1           0       16.659863    0.526608   -4.691186
     50          1           0       18.788808   -1.067650   -3.315753
     51          1           0       18.743459    0.669992   -2.885858
     52          1           0       18.969465    0.238739   -4.557242
     53          1           0       14.471014   -0.406725   -4.469436
     54          1           0       14.161683   -2.102313   -3.920099
     55          1           0       15.962180   -2.180934   -6.119878
     56          1           0       14.937555   -0.836593   -6.452663
     57          1           0       16.251462    4.689749   -3.572211
     58          1           0       16.563148    6.040546   -2.550344
     59          1           0       14.875319    5.716972   -3.023471
     60          1           0       15.576175    7.449759   -1.116193
     61          1           0       14.330205    8.113821    0.081746
     62          1           0       13.909238    6.938493   -1.192742
     63          1           0       15.099749    3.159213    4.717891
     64          1           0       16.620538    0.687310    5.384884
     65          1           0       17.006437    4.008762    5.582875
     66          1           0       17.860762    3.405990    4.121530
     67          1           0       17.802496    2.446924    5.508531
     68          1           0       14.621262    1.509944    6.686607
     69          1           0       14.599839   -0.207439    6.301925
     70          1           0       13.095558    2.060460    5.234005
     71          1           0       12.461004    0.449538    5.712504
     72          1           0       13.304560    0.717377    4.121472
     73          1           0       15.224897   -5.056775    3.181737
     74          1           0       15.704348   -3.736757    4.307235
     75          1           0       16.961745   -4.485845    3.237944
     76          1           0       16.893890   -4.136678   -1.865285
     77          1           0       14.813202   -6.625534   -4.710602
     78          1           0       14.510720   -4.916420   -5.394095
     79          1           0       13.492065   -5.726234   -4.188992
     80         12           0      -16.238423    0.310043   -0.212564
     81          6           0      -13.660677   -1.946686    0.855836
     82          6           0      -13.924278    2.808410   -0.018918
     83          6           0      -18.584442    2.386811   -0.713216
     84          6           0      -18.559821   -2.096742    0.769372
     85          7           0      -14.101054    0.306275    0.356556
     86          6           0      -13.213032   -0.620169    0.684370
     87          6           0      -11.748868   -0.109999    0.758638
     88          6           0      -12.049140    1.443379    1.033836
     89          6           0      -13.429612    1.543613    0.388121
     90          6           0      -12.186888    1.777405    2.509901
     91          6           0      -10.975237   -0.315177   -0.590959
     92          6           0       -9.459501   -0.126087   -0.498517
     93          1           0       -8.601039   -0.970930   -1.324191
     94          7           0      -16.173991    2.199205   -0.817131
     95          6           0      -15.146801    3.063425   -0.678271
     96          6           0      -15.604799    4.330839   -1.268253
     97          6           0      -17.044553    4.192051   -1.618355
     98          6           0      -17.335184    2.899412   -1.031240
     99          6           0      -14.684679    5.489248   -1.522977
    100          6           0      -18.004581    5.081905   -2.348208
    101          8           0      -19.268141    4.867642   -2.330075
    102          6           0      -17.431003    6.264386   -3.007182
    103          7           0      -18.277342    0.258113    0.190493
    104          6           0      -19.080823    1.271498   -0.177493
    105          6           0      -20.535835    0.893779   -0.033856
    106          6           0      -20.543708   -0.674526    0.279115
    107          6           0      -19.021561   -0.925314    0.353763
    108          6           0      -21.310772    1.633886    1.056154
    109          6           0      -21.396105   -1.574665   -0.656738
    110          6           0      -20.792111   -1.596553   -2.042416
    111          7           0      -16.160074   -1.734211    0.482373
    112          6           0      -17.249538   -2.548286    0.862402
    113          6           0      -16.688547   -3.816360    1.372009
    114          6           0      -15.299900   -3.641751    1.273795
    115          6           0      -15.015100   -2.347958    0.759507
    116          6           0      -17.439191   -4.910458    1.887391
    117          6           0      -14.010000   -4.253711    1.498191
    118          8           0      -13.626531   -5.371949    1.839136
    119          6           0      -12.888835   -3.136029    1.356172
    120          6           0      -11.796795   -3.682516    0.477929
    121          8           0      -12.016231   -3.936108   -0.719633
    122          8           0      -10.625120   -3.610774    1.135509
    123          6           0       -9.509473   -4.131146    0.301025
    124          1           0      -13.341580    3.696796    0.226281
    125          1           0      -19.434551    3.022780   -0.970757
    126          1           0      -19.219913   -2.934853    1.002869
    127          1           0      -11.163805   -0.525124    1.570503
    128          1           0      -11.338241    2.081073    0.514869
    129          1           0      -12.177310    0.890728    3.126230
    130          1           0      -13.131850    2.295678    2.607295
    131          1           0      -11.417285    2.495458    2.807319
    132          1           0      -11.225547    0.505482   -1.275506
    133          1           0      -11.194361   -1.276517   -1.013390
    134          1           0       -9.107541   -0.119388    0.540251
    135          1           0       -9.210642    0.870118   -0.872239
    136          1           0      -13.723353    5.359586   -1.010682
    137          1           0      -15.132839    6.365367   -1.041900
    138          1           0      -14.554946    5.698038   -2.587050
    139          1           0      -16.924069    6.879632   -2.267633
    140          1           0      -18.258012    6.726509   -3.549758
    141          1           0      -16.666073    5.932239   -3.717936
    142          1           0      -21.074234    1.070629   -0.956872
    143          1           0      -20.946862   -0.888279    1.279920
    144          1           0      -22.203218    2.164255    0.673617
    145          1           0      -20.637135    2.325904    1.543841
    146          1           0      -21.646104    1.014234    1.886086
    147          1           0      -22.402997   -1.163672   -0.763509
    148          1           0      -21.500407   -2.593457   -0.298718
    149          1           0      -21.187999   -0.684274   -2.498612
    150          1           0      -21.114286   -2.481943   -2.586791
    151          1           0      -19.701410   -1.496355   -1.997956
    152          1           0      -17.002551   -5.809842    1.473916
    153          1           0      -18.493180   -4.825231    1.631265
    154          1           0      -17.265152   -4.778960    2.958694
    155          1           0      -12.529471   -2.903174    2.359275
    156          1           0       -9.017452   -4.918492    0.880404
    157          1           0       -8.900089   -3.247798    0.032481
    158          1           0       -9.768637   -4.665979   -0.605186
 ---------------------------------------------------------------------

 SCF Done:  E(RCAM-B3LYP) =  -4069.81176959     A.U. after   19 cycles

 Excitation energies and oscillator strengths:

 Excited State   1:      Singlet-A      1.6753 eV  740.07 nm  f=0.2054  <S**2>=0.000
     310 -> 316        0.16810
     311 -> 314       -0.16977
     312 -> 313        0.66472
     310 <- 316        0.10134
 This state for optimization and/or second-order correction.
 Total Energy, E(TD-HF/TD-DFT) =  -4069.75020350
 Copying the excited state density for this state as the 1-particle RhoCI density.

 Excited State   2:      Singlet-A      1.6801 eV  737.95 nm  f=0.5717  <S**2>=0.000
     309 -> 315        0.17013
     311 -> 314        0.66435
     312 -> 313        0.16971
     309 <- 315        0.10185

 Excited State   3:      Singlet-A      2.1861 eV  567.16 nm  f=0.1031  <S**2>=0.000
     310 -> 313        0.64248
     312 -> 316       -0.27307

 Excited State   4:      Singlet-A      2.1925 eV  565.50 nm  f=0.0984  <S**2>=0.000
     309 -> 314        0.64071
     311 -> 315       -0.27826

 Excited State   5:      Singlet-A      3.0634 eV  404.73 nm  f=0.0000  <S**2>=0.000
     312 -> 314        0.70709

 The electronic state is 1-A.
 Alpha  occ. eigenvalues --  -46.87808 -46.87658 -19.26333 -19.26289 -19.19147
 Alpha  occ. eigenvalues --  -19.19026 -19.18830 -19.18714 -19.18178 -19.18046
 Alpha  occ. eigenvalues --  -14.42494 -14.42461 -14.41461 -14.41358 -14.39415
 Alpha  occ. eigenvalues --  -14.39350 -14.38598 -14.38598 -10.39086 -10.39077
 Alpha  occ. eigenvalues --  -10.35464 -10.35392 -10.34398 -10.34222 -10.31733
 Alpha  occ. eigenvalues --  -10.31681 -10.31415 -10.31305 -10.31019 -10.30920
 Alpha  occ. eigenvalues --  -10.30581 -10.30519 -10.30396 -10.30358 -10.30220
 Alpha  occ. eigenvalues --  -10.30141 -10.29932 -10.29893 -10.29642 -10.29436
 Alpha  occ. eigenvalues --  -10.29399 -10.29267 -10.28757 -10.28710 -10.28637
 Alpha  occ. eigenvalues --  -10.28545 -10.28402 -10.28376 -10.28133 -10.28125
 Alpha  occ. eigenvalues --  -10.27999 -10.27804 -10.27738 -10.27666 -10.27597
 Alpha  occ. eigenvalues --  -10.27520 -10.27514 -10.27495 -10.27480 -10.27466
 Alpha  occ. eigenvalues --  -10.27463 -10.27463 -10.27414 -10.27378 -10.27166
 Alpha  occ. eigenvalues --  -10.27042 -10.26713 -10.26681 -10.26428 -10.26417
 Alpha  occ. eigenvalues --  -10.26242 -10.26199 -10.26140 -10.26031 -10.26018
 Alpha  occ. eigenvalues --  -10.25933 -10.25852 -10.25849 -10.25448 -10.25401
 Alpha  occ. eigenvalues --  -10.24870 -10.24843 -10.24800 -10.24733 -10.24704
 Alpha  occ. eigenvalues --  -10.24688  -3.16551  -3.16408  -1.91433  -1.91291
 Alpha  occ. eigenvalues --   -1.91019  -1.90879  -1.90861  -1.90716  -1.16638
 Alpha  occ. eigenvalues --   -1.16627  -1.08651  -1.08635  -1.07232  -1.06967
 Alpha  occ. eigenvalues --   -1.06932  -1.06648  -1.04592  -1.04492  -1.03772
 Alpha  occ. eigenvalues --   -1.03661  -1.03245  -1.03037  -1.02423  -1.02110
 Alpha  occ. eigenvalues --   -0.91983  -0.91982  -0.89532  -0.89494  -0.89197
 Alpha  occ. eigenvalues --   -0.89144  -0.88300  -0.88220  -0.87880  -0.87791
 Alpha  occ. eigenvalues --   -0.87684  -0.87681  -0.87287  -0.87119  -0.84993
 Alpha  occ. eigenvalues --   -0.84992  -0.83949  -0.83876  -0.82982  -0.82931
 Alpha  occ. eigenvalues --   -0.82659  -0.82647  -0.81594  -0.81587  -0.80607
 Alpha  occ. eigenvalues --   -0.80437  -0.78809  -0.78634  -0.77230  -0.77140
 Alpha  occ. eigenvalues --   -0.76943  -0.76892  -0.75932  -0.75832  -0.74910
 Alpha  occ. eigenvalues --   -0.74801  -0.72785  -0.72697  -0.71683  -0.71578
 Alpha  occ. eigenvalues --   -0.69921  -0.69758  -0.68883  -0.68821  -0.67652
 Alpha  occ. eigenvalues --   -0.67598  -0.67230  -0.67193  -0.65296  -0.65265
 Alpha  occ. eigenvalues --   -0.64864  -0.64766  -0.64648  -0.64631  -0.64282
 Alpha  occ. eigenvalues --   -0.64203  -0.62305  -0.62269  -0.60455  -0.60339
 Alpha  occ. eigenvalues --   -0.59814  -0.59791  -0.58998  -0.58990  -0.58514
 Alpha  occ. eigenvalues --   -0.58422  -0.57593  -0.57547  -0.57320  -0.57234
 Alpha  occ. eigenvalues --   -0.56321  -0.56201  -0.55985  -0.55876  -0.55532
 Alpha  occ. eigenvalues --   -0.55447  -0.55350  -0.55244  -0.54533  -0.54482
 Alpha  occ. eigenvalues --   -0.53905  -0.53904  -0.53311  -0.53233  -0.53225
 Alpha  occ. eigenvalues --   -0.53136  -0.52924  -0.52896  -0.52769  -0.52666
 Alpha  occ. eigenvalues --   -0.52452  -0.52402  -0.51924  -0.51883  -0.51652
 Alpha  occ. eigenvalues --   -0.51627  -0.51206  -0.51196  -0.50587  -0.50475
 Alpha  occ. eigenvalues --   -0.50045  -0.49977  -0.49931  -0.49867  -0.49526
 Alpha  occ. eigenvalues --   -0.49484  -0.49225  -0.49197  -0.49105  -0.49098
 Alpha  occ. eigenvalues --   -0.48602  -0.48552  -0.48474  -0.48457  -0.48375
 Alpha  occ. eigenvalues --   -0.48336  -0.47706  -0.47590  -0.47308  -0.47116
 Alpha  occ. eigenvalues --   -0.46808  -0.46706  -0.46565  -0.46547  -0.46370
 Alpha  occ. eigenvalues --   -0.46268  -0.46173  -0.46082  -0.45830  -0.45815
 Alpha  occ. eigenvalues --   -0.45214  -0.45208  -0.44587  -0.44519  -0.44509
 Alpha  occ. eigenvalues --   -0.44471  -0.44157  -0.44123  -0.44098  -0.44076
 Alpha  occ. eigenvalues --   -0.44030  -0.43935  -0.43544  -0.43503  -0.43396
 Alpha  occ. eigenvalues --   -0.43381  -0.43038  -0.42922  -0.42895  -0.42708
 Alpha  occ. eigenvalues --   -0.42665  -0.42553  -0.42021  -0.41961  -0.41714
 Alpha  occ. eigenvalues --   -0.41665  -0.41543  -0.41453  -0.41151  -0.40986
 Alpha  occ. eigenvalues --   -0.40880  -0.40837  -0.40719  -0.40694  -0.40583
 Alpha  occ. eigenvalues --   -0.40492  -0.40243  -0.40218  -0.39455  -0.39426
 Alpha  occ. eigenvalues --   -0.38481  -0.38349  -0.37757  -0.37645  -0.37332
 Alpha  occ. eigenvalues --   -0.37273  -0.37264  -0.37194  -0.36760  -0.36721
 Alpha  occ. eigenvalues --   -0.36213  -0.36202  -0.34297  -0.34251  -0.33851
 Alpha  occ. eigenvalues --   -0.33777  -0.33197  -0.33173  -0.31360  -0.31273
 Alpha  occ. eigenvalues --   -0.31047  -0.30970  -0.30037  -0.29949  -0.29461
 Alpha  occ. eigenvalues --   -0.29333  -0.29326  -0.29209  -0.24092  -0.24034
 Alpha  occ. eigenvalues --   -0.21139  -0.21115
 Alpha virt. eigenvalues --   -0.08790  -0.08786  -0.01762  -0.01682  -0.00071
 Alpha virt. eigenvalues --   -0.00027   0.02190   0.02210   0.03107   0.03229
 Alpha virt. eigenvalues --    0.04708   0.04735   0.05092   0.05177   0.06169

 Mulliken charges:
               1
     1  Mg   0.838699
     2  C   -0.002960
     3  C   -0.094120
     4  C   -0.045933
     5  C   -0.063956
     6  N   -0.256784
     7  C   -0.052465
     8  C   -0.013991
     9  C   -0.087011
    10  C    0.046328
    11  C    0.104808
    12  C    0.053474
    13  C   -0.071839
    14  H    0.036183
    15  N   -0.433151
    16  C    0.168403
    17  C   -0.177158
    18  C   -0.004034
    19  C    0.148723
    20  C    0.110173
    21  C    0.012240
    22  O   -0.249671
    23  C    0.062498
    24  N   -0.341148
    25  C    0.041269
    26  C   -0.028159
    27  C   -0.023978
    28  C    0.074823
    29  C    0.076169
    30  C    0.035146
    31  C   -0.004501
    32  N   -0.310474
    33  C    0.080409
    34  C   -0.169708
    35  C    0.008387
    36  C    0.082995
    37  C    0.127309
    38  C    0.046140
    39  O   -0.188354
    40  C   -0.005348
    41  C    0.212898
    42  O   -0.257121
    43  O   -0.304787
    44  C    0.157663
    45  H   -0.017589
    46  H   -0.016873
    47  H   -0.041477
    48  H    0.000978
    49  H   -0.004025
    50  H    0.025496
    51  H    0.016440
    52  H    0.016683
    53  H    0.011169
    54  H    0.044119
    55  H    0.017907
    56  H    0.017946
    57  H    0.005898
    58  H    0.026823
    59  H    0.039499
    60  H    0.037374
    61  H    0.035581
    62  H    0.031453
    63  H    0.016497
    64  H    0.009488
    65  H    0.023180
    66  H    0.012565
    67  H    0.004773
    68  H    0.006343
    69  H    0.004760
    70  H    0.008723
    71  H    0.018115
    72  H    0.028987
    73  H    0.047609
    74  H    0.009110
    75  H    0.046047
    76  H    0.035188
    77  H    0.043010
    78  H    0.046410
    79  H    0.053706
    80  Mg   0.837850
    81  C   -0.016819
    82  C   -0.087783
    83  C   -0.045532
    84  C   -0.064905
    85  N   -0.254568
    86  C   -0.049822
    87  C   -0.015059
    88  C   -0.090537
    89  C    0.045786
    90  C    0.114374
    91  C    0.062524
    92  C   -0.077969
    93  H    0.035062
    94  N   -0.423489
    95  C    0.162910
    96  C   -0.174629
    97  C   -0.007820
    98  C    0.152102
    99  C    0.099359
   100  C    0.015555
   101  O   -0.253207
   102  C    0.061197
   103  N   -0.350078
   104  C    0.037516
   105  C   -0.019841
   106  C   -0.034814
   107  C    0.088927
   108  C    0.073678
   109  C    0.034737
   110  C   -0.007676
   111  N   -0.324112
   112  C    0.078444
   113  C   -0.163150
   114  C    0.002283
   115  C    0.096201
   116  C    0.131491
   117  C    0.042387
   118  O   -0.187781
   119  C    0.000919
   120  C    0.211295
   121  O   -0.251032
   122  O   -0.305629
   123  C    0.151986
   124  H   -0.019641
   125  H   -0.015600
   126  H   -0.040469
   127  H   -0.000580
   128  H   -0.004285
   129  H    0.022483
   130  H    0.014379
   131  H    0.016332
   132  H    0.013880
   133  H    0.037688
   134  H    0.020858
   135  H    0.019581
   136  H    0.008788
   137  H    0.026128
   138  H    0.039785
   139  H    0.038245
   140  H    0.036373
   141  H    0.033897
   142  H    0.014391
   143  H    0.012404
   144  H    0.025120
   145  H    0.011629
   146  H    0.005655
   147  H    0.006243
   148  H    0.003652
   149  H    0.010920
   150  H    0.017936
   151  H    0.030124
   152  H    0.046044
   153  H    0.008492
   154  H    0.046948
   155  H    0.035070
   156  H    0.044046
   157  H    0.049554
   158  H    0.053599
 Sum of Mulliken charges =  -0.00000

 Dipole moment (field-independent basis, Debye):
    X=              3.5948    Y=              7.2643    Z=             -1.8912  Tot=              8.3229
 Quadrupole moment (field-independent basis, Debye-Ang):
   XX=           -473.5165   YY=           -552.5629   ZZ=           -475.1579
   XY=             12.3628   XZ=            -62.2559   YZ=             -9.4775

 Normal termination of Gaussian 16 at Sun Sep 12 16:24:28 2021.
