 Gaussian 16, Revision A.03,
 Gaussian 16:  ES64L-G16RevA.03 25-Dec-2016

 -----------------------------------
 #p cam-b3lyp/Def2SVP td=(nstates=5)
 -----------------------------------

 --------------------------------
 TDDFT excited states in gaussian
 --------------------------------
 Symbolic Z-matrix:
 Charge =  0 Multiplicity = 1

                         Standard orientation:
 ---------------------------------------------------------------------
 Center     Atomic      Atomic             Coordinates (Angstroms)
 Number     Number       Type             X           Y           Z
 ---------------------------------------------------------------------
      1         12           0       15.911017   -0.657167   -0.079119
      2          6           0       16.083207    2.861792   -0.711171
      3          6           0       16.798272    0.029074    3.143445
      4          6           0       16.208785   -3.779458    0.389130
      5          6           0       16.157429   -1.138054   -3.522037
      6          7           0       16.355247    1.244362    0.963709
      7          6           0       16.327266    2.529039    0.623129
      8          6           0       16.507084    3.493188    1.833689
      9          6           0       17.272866    2.509352    2.827490
     10          6           0       16.751713    1.182228    2.304934
     11          6           0       18.789302    2.539392    2.666177
     12          6           0       15.136868    3.958907    2.431473
     13          6           0       15.214523    5.145569    3.396438
     14          1           0       14.131402    6.117261    3.400062
     15          7           0       15.947872   -1.703680    1.596084
     16          6           0       16.320392   -1.259410    2.820477
     17          6           0       16.174501   -2.412785    3.734327
     18          6           0       15.868799   -3.612927    2.907103
     19          6           0       16.024135   -3.078300    1.578411
     20          6           0       16.276112   -2.299853    5.224519
     21          6           0       15.506107   -5.021177    3.258415
     22          8           0       15.509240   -5.960828    2.391455
     23          6           0       15.229225   -5.292968    4.680564
     24          7           0       16.369561   -2.246655   -1.352265
     25          6           0       16.376207   -3.507803   -0.906794
     26          6           0       16.449170   -4.487026   -2.040698
     27          6           0       16.245421   -3.634110   -3.375154
     28          6           0       16.168029   -2.222325   -2.743377
     29          6           0       17.750307   -5.294615   -2.144870
     30          6           0       15.107319   -4.079422   -4.327436
     31          6           0       13.766213   -3.847120   -3.668218
     32          7           0       15.911740    0.609514   -1.841663
     33          6           0       16.048362    0.198297   -3.175421
     34          6           0       16.098801    1.419037   -4.000840
     35          6           0       16.004069    2.462745   -3.082393
     36          6           0       15.927408    1.928410   -1.764478
     37          6           0       16.276214    1.464219   -5.411839
     38          6           0       15.974578    3.905601   -2.905886
     39          8           0       15.913728    4.871405   -3.668128
     40          6           0       16.147354    4.224345   -1.355281
     41          6           0       15.094596    5.230688   -0.978077
     42          8           0       13.884332    4.926731   -0.993434
     43          8           0       15.683110    6.307319   -0.434883
     44          6           0       14.692096    7.332342   -0.011358
     45          1           0       17.297696    0.100318    4.111660
     46          1           0       16.205599   -4.866224    0.495751
     47          1           0       16.148424   -1.211579   -4.611058
     48          1           0       17.122759    4.369330    1.629375
     49          1           0       16.965295    2.656121    3.862661
     50          1           0       19.086559    3.137531    1.804905
     51          1           0       19.088077    1.499942    2.529174
     52          1           0       19.270301    2.870551    3.586910
     53          1           0       14.761542    3.192566    3.109642
     54          1           0       14.426485    4.186930    1.636057
     55          1           0       16.179388    5.649329    3.331851
     56          1           0       15.177835    4.760145    4.415409
     57          1           0       16.671136   -1.330739    5.526708
     58          1           0       17.033186   -3.014342    5.547093
     59          1           0       15.329340   -2.519427    5.718221
     60          1           0       16.106885   -5.035238    5.273723
     61          1           0       14.900552   -6.330456    4.729987
     62          1           0       14.427936   -4.634138    5.016461
     63          1           0       15.656262   -5.230211   -1.967217
     64          1           0       17.135919   -3.639789   -4.004166
     65          1           0       17.598410   -6.374083   -2.125362
     66          1           0       18.409220   -4.977753   -1.336957
     67          1           0       18.358398   -5.070644   -3.020929
     68          1           0       15.182216   -5.146326   -4.534925
     69          1           0       15.115327   -3.554414   -5.282713
     70          1           0       13.639492   -4.737725   -3.053729
     71          1           0       12.979761   -3.776611   -4.420370
     72          1           0       13.796208   -2.989176   -2.996267
     73          1           0       15.570029    2.206126   -5.784459
     74          1           0       16.101218    0.488419   -5.864379
     75          1           0       17.319746    1.772418   -5.474381
     76          1           0       17.155024    4.618260   -1.226615
     77          1           0       14.962500    8.264520   -0.507503
     78          1           0       14.683566    7.323324    1.078712
     79          1           0       13.672328    7.195167   -0.372737
     80         12           0      -15.842692   -0.898270    0.100415
     81          6           0      -16.894649    2.503346   -0.348429
     82          6           0      -13.945561    0.190746    2.717565
     83          6           0      -14.552256   -3.793531    0.240793
     84          6           0      -16.883986   -1.505773   -3.169499
     85          7           0      -15.542629    1.110917    0.975282
     86          6           0      -16.042460    2.318488    0.760190
     87          6           0      -15.668201    3.370870    1.838147
     88          6           0      -14.321076    2.687782    2.383598
     89          6           0      -14.628729    1.231838    2.039712
     90          6           0      -13.079345    3.107992    1.614917
     91          6           0      -16.752998    3.482747    2.966298
     92          6           0      -16.606507    4.700929    3.880804
     93          1           0      -17.817646    5.344290    4.382506
     94          7           0      -14.849470   -1.791855    1.567920
     95          6           0      -14.153382   -1.197103    2.559391
     96          6           0      -13.592187   -2.289992    3.368608
     97          6           0      -13.876816   -3.577883    2.679383
     98          6           0      -14.431154   -3.092221    1.431610
     99          6           0      -12.937779   -2.063144    4.700414
    100          6           0      -13.670845   -5.009439    3.072340
    101          8           0      -13.771166   -5.962460    2.221153
    102          6           0      -13.256718   -5.254882    4.461493
    103          7           0      -15.536274   -2.376211   -1.329320
    104          6           0      -15.002012   -3.563364   -0.992926
    105          6           0      -15.132395   -4.559366   -2.120467
    106          6           0      -16.085178   -3.863699   -3.200202
    107          6           0      -16.276977   -2.490046   -2.520720
    108          6           0      -13.824872   -4.979456   -2.791524
    109          6           0      -17.348329   -4.654751   -3.637633
    110          6           0      -18.315176   -4.764090   -2.480645
    111          7           0      -16.895597    0.208354   -1.427606
    112          6           0      -17.204546   -0.225890   -2.735297
    113          6           0      -17.823857    0.916269   -3.438393
    114          6           0      -17.811182    1.950851   -2.490784
    115          6           0      -17.206993    1.492216   -1.289076
    116          6           0      -18.262171    0.920922   -4.792635
    117          6           0      -18.161912    3.329785   -2.237366
    118          8           0      -18.776621    4.197589   -2.856046
    119          6           0      -17.469552    3.786325   -0.881405
    120          6           0      -18.503269    4.491080   -0.046389
    121          8           0      -19.485633    3.871817    0.398666
    122          8           0      -18.052500    5.718951    0.269073
    123          6           0      -19.038391    6.453089    1.106248
    124          1           0      -13.143989    0.458737    3.406450
    125          1           0      -14.222085   -4.834463    0.270972
    126          1           0      -17.324690   -1.643502   -4.159187
    127          1           0      -15.453484    4.360090    1.451994
    128          1           0      -14.222098    2.812904    3.458731
    129          1           0      -13.324144    3.707323    0.750622
    130          1           0      -12.595144    2.188540    1.312914
    131          1           0      -12.375949    3.613847    2.282502
    132          1           0      -16.594021    2.679166    3.696861
    133          1           0      -17.740749    3.461202    2.548552
    134          1           0      -15.918454    5.447492    3.465847
    135          1           0      -16.127445    4.381932    4.809647
    136          1           0      -12.725944   -1.000020    4.868643
    137          1           0      -11.949409   -2.533199    4.655239
    138          1           0      -13.500697   -2.502620    5.526638
    139          1           0      -12.323644   -4.732139    4.657888
    140          1           0      -13.247272   -6.340531    4.576136
    141          1           0      -14.007288   -4.821734    5.132040
    142          1           0      -15.599960   -5.473813   -1.776554
    143          1           0      -15.558292   -3.675062   -4.147108
    144          1           0      -13.655191   -6.072546   -2.770794
    145          1           0      -13.009753   -4.458854   -2.306668
    146          1           0      -13.715893   -4.664875   -3.828035
    147          1           0      -17.078189   -5.676901   -3.914014
    148          1           0      -17.859969   -4.215838   -4.487684
    149          1           0      -17.929920   -5.619100   -1.917066
    150          1           0      -19.324544   -4.951551   -2.841314
    151          1           0      -18.251136   -3.884379   -1.829760
    152          1           0      -19.222065    1.419799   -4.807485
    153          1           0      -18.331898   -0.088967   -5.191432
    154          1           0      -17.453255    1.490867   -5.257494
    155          1           0      -16.637990    4.441907   -1.142725
    156          1           0      -19.252010    7.396716    0.594760
    157          1           0      -18.585769    6.517393    2.113600
    158          1           0      -20.032618    6.031223    1.195713
 ---------------------------------------------------------------------

 SCF Done:  E(RCAM-B3LYP) =  -4069.81176803     A.U. after   19 cycles

 Excitation energies and oscillator strengths:

 Excited State   1:      Singlet-A      1.6754 eV  740.04 nm  f=0.2528  <S**2>=0.000
     310 -> 316        0.16972
     311 -> 314       -0.14339
     312 -> 313        0.67090
     310 <- 316        0.10231
 This state for optimization and/or second-order correction.
 Total Energy, E(TD-HF/TD-DFT) =  -4069.75019941
 Copying the excited state density for this state as the 1-particle RhoCI density.

 Excited State   2:      Singlet-A      1.6800 eV  737.98 nm  f=0.5257  <S**2>=0.000
     309 -> 315        0.17173
     311 -> 314        0.67054
     312 -> 313        0.14334
     309 <- 315        0.10282

 Excited State   3:      Singlet-A      2.1861 eV  567.15 nm  f=0.0951  <S**2>=0.000
     310 -> 313        0.64211
     312 -> 316       -0.27293

 Excited State   4:      Singlet-A      2.1926 eV  565.48 nm  f=0.1050  <S**2>=0.000
     309 -> 314        0.64032
     311 -> 315       -0.27815

 Excited State   5:      Singlet-A      3.0636 eV  404.70 nm  f=0.0000  <S**2>=0.000
     312 -> 314        0.70710

 The electronic state is 1-A.
 Alpha  occ. eigenvalues --  -46.87810 -46.87661 -19.26350 -19.26300 -19.19162
 Alpha  occ. eigenvalues --  -19.19035 -19.18828 -19.18715 -19.18183 -19.18052
 Alpha  occ. eigenvalues --  -14.42497 -14.42463 -14.41462 -14.41359 -14.39416
 Alpha  occ. eigenvalues --  -14.39352 -14.38600 -14.38600 -10.39095 -10.39091
 Alpha  occ. eigenvalues --  -10.35462 -10.35392 -10.34403 -10.34229 -10.31757
 Alpha  occ. eigenvalues --  -10.31695 -10.31418 -10.31309 -10.31023 -10.30922
 Alpha  occ. eigenvalues --  -10.30583 -10.30520 -10.30398 -10.30361 -10.30220
 Alpha  occ. eigenvalues --  -10.30141 -10.29933 -10.29895 -10.29644 -10.29437
 Alpha  occ. eigenvalues --  -10.29401 -10.29267 -10.28763 -10.28718 -10.28655
 Alpha  occ. eigenvalues --  -10.28556 -10.28405 -10.28378 -10.28139 -10.28130
 Alpha  occ. eigenvalues --  -10.28001 -10.27806 -10.27740 -10.27669 -10.27598
 Alpha  occ. eigenvalues --  -10.27518 -10.27512 -10.27495 -10.27484 -10.27468
 Alpha  occ. eigenvalues --  -10.27465 -10.27461 -10.27417 -10.27375 -10.27172
 Alpha  occ. eigenvalues --  -10.27050 -10.26721 -10.26693 -10.26424 -10.26416
 Alpha  occ. eigenvalues --  -10.26247 -10.26195 -10.26138 -10.26032 -10.26022
 Alpha  occ. eigenvalues --  -10.25934 -10.25855 -10.25851 -10.25446 -10.25395
 Alpha  occ. eigenvalues --  -10.24873 -10.24846 -10.24801 -10.24732 -10.24699
 Alpha  occ. eigenvalues --  -10.24690  -3.16553  -3.16410  -1.91434  -1.91293
 Alpha  occ. eigenvalues --   -1.91021  -1.90881  -1.90863  -1.90718  -1.16648
 Alpha  occ. eigenvalues --   -1.16644  -1.08659  -1.08641  -1.07229  -1.06967
 Alpha  occ. eigenvalues --   -1.06946  -1.06658  -1.04594  -1.04495  -1.03773
 Alpha  occ. eigenvalues --   -1.03663  -1.03247  -1.03039  -1.02424  -1.02112
 Alpha  occ. eigenvalues --   -0.91987  -0.91985  -0.89532  -0.89495  -0.89202
 Alpha  occ. eigenvalues --   -0.89151  -0.88299  -0.88220  -0.87883  -0.87794
 Alpha  occ. eigenvalues --   -0.87686  -0.87684  -0.87287  -0.87121  -0.84999
 Alpha  occ. eigenvalues --   -0.84996  -0.83948  -0.83876  -0.82980  -0.82932
 Alpha  occ. eigenvalues --   -0.82662  -0.82653  -0.81600  -0.81597  -0.80610
 Alpha  occ. eigenvalues --   -0.80443  -0.78810  -0.78636  -0.77232  -0.77145
 Alpha  occ. eigenvalues --   -0.76948  -0.76898  -0.75937  -0.75838  -0.74910
 Alpha  occ. eigenvalues --   -0.74803  -0.72787  -0.72699  -0.71685  -0.71581
 Alpha  occ. eigenvalues --   -0.69919  -0.69758  -0.68887  -0.68827  -0.67654
 Alpha  occ. eigenvalues --   -0.67602  -0.67234  -0.67200  -0.65300  -0.65272
 Alpha  occ. eigenvalues --   -0.64867  -0.64770  -0.64654  -0.64634  -0.64282
 Alpha  occ. eigenvalues --   -0.64204  -0.62312  -0.62279  -0.60455  -0.60340
 Alpha  occ. eigenvalues --   -0.59818  -0.59796  -0.59000  -0.58993  -0.58517
 Alpha  occ. eigenvalues --   -0.58426  -0.57598  -0.57555  -0.57322  -0.57237
 Alpha  occ. eigenvalues --   -0.56323  -0.56205  -0.55993  -0.55887  -0.55534
 Alpha  occ. eigenvalues --   -0.55452  -0.55352  -0.55248  -0.54537  -0.54488
 Alpha  occ. eigenvalues --   -0.53912  -0.53909  -0.53312  -0.53236  -0.53228
 Alpha  occ. eigenvalues --   -0.53142  -0.52928  -0.52902  -0.52770  -0.52668
 Alpha  occ. eigenvalues --   -0.52450  -0.52402  -0.51927  -0.51885  -0.51659
 Alpha  occ. eigenvalues --   -0.51631  -0.51209  -0.51202  -0.50586  -0.50476
 Alpha  occ. eigenvalues --   -0.50044  -0.49980  -0.49932  -0.49867  -0.49528
 Alpha  occ. eigenvalues --   -0.49488  -0.49228  -0.49202  -0.49110  -0.49104
 Alpha  occ. eigenvalues --   -0.48606  -0.48558  -0.48474  -0.48459  -0.48376
 Alpha  occ. eigenvalues --   -0.48339  -0.47708  -0.47595  -0.47310  -0.47118
 Alpha  occ. eigenvalues --   -0.46810  -0.46709  -0.46570  -0.46554  -0.46372
 Alpha  occ. eigenvalues --   -0.46271  -0.46175  -0.46086  -0.45835  -0.45823
 Alpha  occ. eigenvalues --   -0.45213  -0.45208  -0.44591  -0.44520  -0.44514
 Alpha  occ. eigenvalues --   -0.44476  -0.44158  -0.44127  -0.44102  -0.44078
 Alpha  occ. eigenvalues --   -0.44033  -0.43939  -0.43553  -0.43509  -0.43399
 Alpha  occ. eigenvalues --   -0.43386  -0.43040  -0.42931  -0.42901  -0.42713
 Alpha  occ. eigenvalues --   -0.42668  -0.42554  -0.42022  -0.41965  -0.41717
 Alpha  occ. eigenvalues --   -0.41669  -0.41548  -0.41459  -0.41154  -0.40989
 Alpha  occ. eigenvalues --   -0.40883  -0.40837  -0.40723  -0.40699  -0.40584
 Alpha  occ. eigenvalues --   -0.40493  -0.40249  -0.40227  -0.39453  -0.39426
 Alpha  occ. eigenvalues --   -0.38481  -0.38350  -0.37763  -0.37654  -0.37333
 Alpha  occ. eigenvalues --   -0.37278  -0.37266  -0.37200  -0.36772  -0.36727
 Alpha  occ. eigenvalues --   -0.36217  -0.36206  -0.34299  -0.34254  -0.33863
 Alpha  occ. eigenvalues --   -0.33785  -0.33200  -0.33176  -0.31358  -0.31274
 Alpha  occ. eigenvalues --   -0.31049  -0.30973  -0.30042  -0.29956  -0.29462
 Alpha  occ. eigenvalues --   -0.29335  -0.29328  -0.29212  -0.24094  -0.24036
 Alpha  occ. eigenvalues --   -0.21141  -0.21117
 Alpha virt. eigenvalues --   -0.08792  -0.08787  -0.01763  -0.01684  -0.00071
 Alpha virt. eigenvalues --   -0.00029   0.02187   0.02207   0.03108   0.03225
 Alpha virt. eigenvalues --    0.04704   0.04729   0.05083   0.05165   0.06162

 Mulliken charges:
               1
     1  Mg   0.838749
     2  C   -0.002975
     3  C   -0.094142
     4  C   -0.045880
     5  C   -0.063937
     6  N   -0.256797
     7  C   -0.052457
     8  C   -0.014024
     9  C   -0.086993
    10  C    0.046322
    11  C    0.104810
    12  C    0.053481
    13  C   -0.071792
    14  H    0.036073
    15  N   -0.433149
    16  C    0.168415
    17  C   -0.177157
    18  C   -0.004011
    19  C    0.148716
    20  C    0.110181
    21  C    0.012291
    22  O   -0.249606
    23  C    0.062475
    24  N   -0.341128
    25  C    0.041277
    26  C   -0.028211
    27  C   -0.023953
    28  C    0.074799
    29  C    0.076172
    30  C    0.035132
    31  C   -0.004507
    32  N   -0.310472
    33  C    0.080394
    34  C   -0.169711
    35  C    0.008360
    36  C    0.082985
    37  C    0.127314
    38  C    0.046117
    39  O   -0.188432
    40  C   -0.005341
    41  C    0.212881
    42  O   -0.257133
    43  O   -0.304783
    44  C    0.157697
    45  H   -0.017601
    46  H   -0.016821
    47  H   -0.041472
    48  H    0.000946
    49  H   -0.004051
    50  H    0.025484
    51  H    0.016461
    52  H    0.016661
    53  H    0.011182
    54  H    0.044106
    55  H    0.017895
    56  H    0.017937
    57  H    0.005867
    58  H    0.026840
    59  H    0.039522
    60  H    0.037357
    61  H    0.035661
    62  H    0.031471
    63  H    0.016561
    64  H    0.009478
    65  H    0.023231
    66  H    0.012548
    67  H    0.004771
    68  H    0.006389
    69  H    0.004742
    70  H    0.008783
    71  H    0.018150
    72  H    0.028958
    73  H    0.047569
    74  H    0.009125
    75  H    0.046027
    76  H    0.035165
    77  H    0.042959
    78  H    0.046390
    79  H    0.053659
    80  Mg   0.837829
    81  C   -0.016810
    82  C   -0.087785
    83  C   -0.045504
    84  C   -0.064868
    85  N   -0.254549
    86  C   -0.049818
    87  C   -0.015110
    88  C   -0.090504
    89  C    0.045754
    90  C    0.114370
    91  C    0.062534
    92  C   -0.077897
    93  H    0.034881
    94  N   -0.423492
    95  C    0.162926
    96  C   -0.174601
    97  C   -0.007799
    98  C    0.152140
    99  C    0.099354
   100  C    0.015577
   101  O   -0.253168
   102  C    0.061209
   103  N   -0.350043
   104  C    0.037532
   105  C   -0.019853
   106  C   -0.034802
   107  C    0.088903
   108  C    0.073638
   109  C    0.034730
   110  C   -0.007675
   111  N   -0.324130
   112  C    0.078449
   113  C   -0.163134
   114  C    0.002259
   115  C    0.096197
   116  C    0.131485
   117  C    0.042382
   118  O   -0.187857
   119  C    0.000888
   120  C    0.211251
   121  O   -0.251024
   122  O   -0.305615
   123  C    0.152027
   124  H   -0.019629
   125  H   -0.015557
   126  H   -0.040448
   127  H   -0.000626
   128  H   -0.004332
   129  H    0.022490
   130  H    0.014466
   131  H    0.016320
   132  H    0.013902
   133  H    0.037665
   134  H    0.020813
   135  H    0.019584
   136  H    0.008771
   137  H    0.026180
   138  H    0.039776
   139  H    0.038269
   140  H    0.036395
   141  H    0.033874
   142  H    0.014396
   143  H    0.012451
   144  H    0.025155
   145  H    0.011682
   146  H    0.005714
   147  H    0.006276
   148  H    0.003654
   149  H    0.010931
   150  H    0.017924
   151  H    0.030092
   152  H    0.045996
   153  H    0.008513
   154  H    0.046979
   155  H    0.035062
   156  H    0.043923
   157  H    0.049493
   158  H    0.053569
 Sum of Mulliken charges =  -0.00000

 Dipole moment (field-independent basis, Debye):
    X=              5.5841    Y=             -0.7053    Z=              6.7915  Tot=              8.8206
 Quadrupole moment (field-independent basis, Debye-Ang):
   XX=           -569.3153   YY=           -533.2831   ZZ=           -461.6536
   XY=              4.9606   XZ=             24.8984   YZ=             55.8509

 Normal termination of Gaussian 16 at Sun Sep 12 17:35:41 2021.
