 Gaussian 16, Revision A.03,
 Gaussian 16:  ES64L-G16RevA.03 25-Dec-2016

 -----------------------------------
 #p cam-b3lyp/Def2SVP td=(nstates=5)
 -----------------------------------

 --------------------------------
 TDDFT excited states in gaussian
 --------------------------------
 Symbolic Z-matrix:
 Charge =  0 Multiplicity = 1

                         Standard orientation:
 ---------------------------------------------------------------------
 Center     Atomic      Atomic             Coordinates (Angstroms)
 Number     Number       Type             X           Y           Z
 ---------------------------------------------------------------------
      1         12           0        7.802645   -0.936066    0.158828
      2          6           0        8.369547    2.326458   -1.200133
      3          6           0        8.865962    0.291807    3.159619
      4          6           0        7.743891   -3.905129    1.271407
      5          6           0        7.881804   -2.149000   -3.107391
      6          7           0        8.501179    1.071940    0.775763
      7          6           0        8.614515    2.251252    0.172813
      8          6           0        8.945114    3.416757    1.152443
      9          6           0        9.620194    2.575125    2.326292
     10          6           0        8.929614    1.242179    2.097652
     11          6           0       11.123705    2.385440    2.153150
     12          6           0        7.659087    4.160482    1.647152
     13          6           0        7.906847    5.503327    2.340505
     14          1           0        6.946828    6.579414    2.146221
     15          7           0        7.768349   -1.607726    2.016393
     16          6           0        8.229191   -0.967413    3.117715
     17          6           0        7.976884   -1.878815    4.254539
     18          6           0        7.505539   -3.178227    3.700051
     19          6           0        7.681004   -2.954743    2.287732
     20          6           0        8.138068   -1.471668    5.687020
     21          6           0        6.990196   -4.427497    4.341829
     22          8           0        6.854903   -5.520111    3.691857
     23          6           0        6.728111   -4.361617    5.790972
     24          7           0        8.029724   -2.799457   -0.754323
     25          6           0        7.901302   -3.931511   -0.053648
     26          6           0        7.822220   -5.126586   -0.956688
     27          6           0        7.678737   -4.551538   -2.439417
     28          6           0        7.788718   -3.040579   -2.118205
     29          6           0        9.014844   -6.090971   -0.896524
     30          6           0        6.466520   -5.042718   -3.269894
     31          6           0        5.183732   -4.516295   -2.666215
     32          7           0        7.897506   -0.073499   -1.830650
     33          6           0        7.942440   -0.766692   -3.048903
     34          6           0        8.110763    0.240142   -4.112868
     35          6           0        8.169067    1.455641   -3.433893
     36          6           0        8.071381    1.220586   -2.032644
     37          6           0        8.247693   -0.031181   -5.502856
     38          6           0        8.315907    2.896202   -3.564584
     39          8           0        8.345635    3.682368   -4.512503
     40          6           0        8.573954    3.506955   -2.116751
     41          6           0        7.659945    4.690667   -1.953285
     42          8           0        6.422359    4.540367   -1.897098
     43          8           0        8.388423    5.776581   -1.652198
     44          6           0        7.539363    6.980513   -1.447747
     45          1           0        9.400586    0.501317    4.088180
     46          1           0        7.615637   -4.937232    1.604202
     47          1           0        7.829837   -2.445774   -4.156523
     48          1           0        9.653281    4.149299    0.764750
     49          1           0        9.364922    2.970460    3.309281
     50          1           0       11.462271    2.750445    1.183581
     51          1           0       11.293053    1.311686    2.236007
     52          1           0       11.669266    2.839565    2.980744
     53          1           0        7.217383    3.603694    2.473558
     54          1           0        6.955910    4.303118    0.825858
     55          1           0        8.921972    5.860883    2.165622
     56          1           0        7.857009    5.345718    3.417944
     57          1           0        8.654202   -0.516584    5.776271
     58          1           0        8.815176   -2.190461    6.148074
     59          1           0        7.188021   -1.466384    6.221542
     60          1           0        7.648346   -4.095355    6.311378
     61          1           0        6.280836   -5.318026    6.059444
     62          1           0        6.021305   -3.554472    5.985623
     63          1           0        6.949741   -5.735658   -0.723795
     64          1           0        8.542041   -4.796691   -3.058513
     65          1           0        8.737112   -7.115941   -0.649532
     66          1           0        9.731736   -5.695926   -0.177290
     67          1           0        9.617217   -6.130138   -1.803733
     68          1           0        6.408206   -6.130423   -3.248826
     69          1           0        6.506402   -4.732896   -4.314246
     70          1           0        4.972070   -5.237298   -1.877427
     71          1           0        4.387804   -4.508228   -3.411630
     72          1           0        5.336096   -3.547585   -2.189904
     73          1           0        7.622754    0.697593   -6.018909
     74          1           0        7.944403   -1.050911   -5.739010
     75          1           0        9.317843    0.127403   -5.635088
     76          1           0        9.624672    3.792878   -2.079863
     77          1           0        7.902273    7.748921   -2.130447
     78          1           0        7.564203    7.199542   -0.380126
     79          1           0        6.499645    6.896820   -1.766058
     80         12           0       -7.971736    0.903853    0.355405
     81          6           0       -8.178807   -2.541105   -0.628691
     82          6           0       -7.047824    1.609350   -2.851340
     83          6           0       -7.344670    3.869290    1.293718
     84          6           0       -7.788015   -0.194684    3.657707
     85          7           0       -7.686082   -0.384548   -1.419601
     86          6           0       -7.853555   -1.670394   -1.689597
     87          6           0       -7.740445   -2.031565   -3.195030
     88          6           0       -6.837125   -0.792579   -3.672349
     89          6           0       -7.235786    0.225661   -2.606076
     90          6           0       -5.345022   -1.053191   -3.549764
     91          6           0       -9.134674   -2.036867   -3.914830
     92          6           0       -9.138798   -2.678765   -5.303967
     93          1           0      -10.320653   -3.428384   -5.720826
     94          7           0       -7.774681    2.571146   -0.702837
     95          6           0       -7.414155    2.674273   -1.999239
     96          6           0       -7.395663    4.114539   -2.298338
     97          6           0       -7.614236    4.860056   -1.029035
     98          6           0       -7.564510    3.772457   -0.072607
     99          6           0       -7.264409    4.654379   -3.692888
    100          6           0       -7.819614    6.313171   -0.724915
    101          8           0       -7.752115    6.766693    0.471995
    102          6           0       -8.009323    7.204046   -1.878970
    103          7           0       -7.405178    1.713960    2.184365
    104          6           0       -7.248692    3.041014    2.333938
    105          6           0       -7.111517    3.413304    3.790980
    106          6           0       -7.452017    2.081676    4.608547
    107          6           0       -7.648690    1.103985    3.429214
    108          6           0       -5.739866    3.935543    4.217857
    109          6           0       -8.571372    2.181039    5.680848
    110          6           0       -9.906930    2.415699    5.012549
    111          7           0       -8.163859   -0.989907    1.377584
    112          6           0       -8.025239   -1.229726    2.762267
    113          6           0       -8.128292   -2.689589    2.963737
    114          6           0       -8.298047   -3.203892    1.669454
    115          6           0       -8.280382   -2.141460    0.725822
    116          6           0       -8.014874   -3.367390    4.210274
    117          6           0       -8.477521   -4.404936    0.885883
    118          8           0       -8.655109   -5.594053    1.146997
    119          6           0       -8.281645   -4.040980   -0.648906
    120          6           0       -9.417460   -4.655042   -1.420506
    121          8           0      -10.585291   -4.266028   -1.243146
    122          8           0       -8.916762   -5.441729   -2.390456
    123          6           0      -10.004850   -6.064715   -3.190316
    124          1           0       -6.532796    1.909137   -3.764451
    125          1           0       -7.233307    4.884092    1.682607
    126          1           0       -7.838781   -0.607600    4.667454
    127          1           0       -7.230300   -2.964849   -3.401195
    128          1           0       -7.131771   -0.446125   -4.659518
    129          1           0       -5.139027   -1.987680   -3.049328
    130          1           0       -4.947272   -0.223371   -2.980333
    131          1           0       -4.870678   -0.998321   -4.533791
    132          1           0       -9.403123   -1.006931   -4.182977
    133          1           0       -9.879473   -2.502714   -3.299288
    134          1           0       -8.228447   -3.260987   -5.491711
    135          1           0       -9.108118   -1.884221   -6.053481
    136          1           0       -6.953680    3.874177   -4.398660
    137          1           0       -6.428136    5.361797   -3.684530
    138          1           0       -8.163795    5.174347   -4.029655
    139          1           0       -7.145112    7.133923   -2.535229
    140          1           0       -8.229376    8.186468   -1.456696
    141          1           0       -8.871711    6.851023   -2.455416
    142          1           0       -7.823033    4.183640    4.061944
    143          1           0       -6.582659    1.718529    5.176161
    144          1           0       -5.779888    4.939469    4.681115
    145          1           0       -5.092312    3.942231    3.351161
    146          1           0       -5.195485    3.293270    4.908033
    147          1           0       -8.395642    3.039868    6.333297
    148          1           0       -8.640995    1.303647    6.315152
    149          1           0       -9.915161    3.497748    4.850711
    150          1           0      -10.721278    2.108044    5.665401
    151          1           0       -9.944298    1.934862    4.028140
    152          1           0       -8.797657   -4.113930    4.231079
    153          1           0       -8.100118   -2.677402    5.047190
    154          1           0       -7.005842   -3.777984    4.117928
    155          1           0       -7.314257   -4.438049   -0.958864
    156          1           0       -9.844965   -7.146911   -3.158965
    157          1           0       -9.962441   -5.577808   -4.182724
    158          1           0      -11.015451   -5.989029   -2.806382
 ---------------------------------------------------------------------

 SCF Done:  E(RCAM-B3LYP) =  -4069.81185828     A.U. after   19 cycles

 Excitation energies and oscillator strengths:

 Excited State   1:      Singlet-A      1.6714 eV  741.80 nm  f=0.1055  <S**2>=0.000
     310 -> 316        0.14123
     311 -> 313        0.39367
     312 -> 314        0.56211
 This state for optimization and/or second-order correction.
 Total Energy, E(TD-HF/TD-DFT) =  -4069.75043551
 Copying the excited state density for this state as the 1-particle RhoCI density.

 Excited State   2:      Singlet-A      1.6840 eV  736.26 nm  f=0.6475  <S**2>=0.000
     309 -> 315        0.14465
     310 -> 316       -0.10083
     311 -> 313        0.56143
     312 -> 314       -0.39329

 Excited State   3:      Singlet-A      2.1861 eV  567.16 nm  f=0.0753  <S**2>=0.000
     309 -> 313        0.10744
     310 -> 314        0.63357
     312 -> 316       -0.26904

 Excited State   4:      Singlet-A      2.1930 eV  565.37 nm  f=0.1206  <S**2>=0.000
     309 -> 313        0.63177
     310 -> 314       -0.10661
     311 -> 315       -0.27447

 Excited State   5:      Singlet-A      2.7644 eV  448.51 nm  f=0.0000  <S**2>=0.000
     312 -> 313        0.70710

 The electronic state is 1-A.
 Alpha  occ. eigenvalues --  -46.87837 -46.87588 -19.26334 -19.26292 -19.19102
 Alpha  occ. eigenvalues --  -19.19073 -19.18840 -19.18641 -19.18218 -19.17985
 Alpha  occ. eigenvalues --  -14.42489 -14.42422 -14.41489 -14.41290 -14.39442
 Alpha  occ. eigenvalues --  -14.39278 -14.38630 -14.38529 -10.39131 -10.39031
 Alpha  occ. eigenvalues --  -10.35472 -10.35318 -10.34438 -10.34162 -10.31728
 Alpha  occ. eigenvalues --  -10.31704 -10.31447 -10.31233 -10.30945 -10.30945
 Alpha  occ. eigenvalues --  -10.30613 -10.30549 -10.30330 -10.30289 -10.30244
 Alpha  occ. eigenvalues --  -10.30072 -10.29962 -10.29832 -10.29671 -10.29362
 Alpha  occ. eigenvalues --  -10.29330 -10.29292 -10.28784 -10.28638 -10.28585
 Alpha  occ. eigenvalues --  -10.28568 -10.28405 -10.28330 -10.28152 -10.28050
 Alpha  occ. eigenvalues --  -10.27929 -10.27835 -10.27766 -10.27622 -10.27589
 Alpha  occ. eigenvalues --  -10.27541 -10.27510 -10.27485 -10.27470 -10.27444
 Alpha  occ. eigenvalues --  -10.27412 -10.27393 -10.27368 -10.27327 -10.27204
 Alpha  occ. eigenvalues --  -10.26983 -10.26740 -10.26620 -10.26424 -10.26334
 Alpha  occ. eigenvalues --  -10.26267 -10.26231 -10.26103 -10.26061 -10.25913
 Alpha  occ. eigenvalues --  -10.25902 -10.25869 -10.25797 -10.25464 -10.25352
 Alpha  occ. eigenvalues --  -10.24876 -10.24826 -10.24802 -10.24741 -10.24696
 Alpha  occ. eigenvalues --  -10.24621  -3.16580  -3.16338  -1.91462  -1.91220
 Alpha  occ. eigenvalues --   -1.91048  -1.90890  -1.90809  -1.90646  -1.16683
 Alpha  occ. eigenvalues --   -1.16585  -1.08678  -1.08594  -1.07240  -1.06893
 Alpha  occ. eigenvalues --   -1.06886  -1.06695  -1.04620  -1.04420  -1.03800
 Alpha  occ. eigenvalues --   -1.03591  -1.03274  -1.02970  -1.02452  -1.02041
 Alpha  occ. eigenvalues --   -0.92015  -0.91916  -0.89562  -0.89435  -0.89224
 Alpha  occ. eigenvalues --   -0.89068  -0.88327  -0.88165  -0.87918  -0.87728
 Alpha  occ. eigenvalues --   -0.87712  -0.87611  -0.87306  -0.87040  -0.85018
 Alpha  occ. eigenvalues --   -0.84923  -0.83978  -0.83824  -0.82996  -0.82859
 Alpha  occ. eigenvalues --   -0.82684  -0.82577  -0.81630  -0.81532  -0.80636
 Alpha  occ. eigenvalues --   -0.80374  -0.78835  -0.78560  -0.77258  -0.77072
 Alpha  occ. eigenvalues --   -0.76974  -0.76832  -0.75963  -0.75762  -0.74936
 Alpha  occ. eigenvalues --   -0.74744  -0.72816  -0.72630  -0.71711  -0.71510
 Alpha  occ. eigenvalues --   -0.69950  -0.69709  -0.68910  -0.68752  -0.67680
 Alpha  occ. eigenvalues --   -0.67532  -0.67253  -0.67126  -0.65325  -0.65197
 Alpha  occ. eigenvalues --   -0.64896  -0.64703  -0.64661  -0.64586  -0.64310
 Alpha  occ. eigenvalues --   -0.64146  -0.62343  -0.62217  -0.60477  -0.60267
 Alpha  occ. eigenvalues --   -0.59842  -0.59718  -0.59028  -0.58925  -0.58545
 Alpha  occ. eigenvalues --   -0.58358  -0.57631  -0.57489  -0.57349  -0.57172
 Alpha  occ. eigenvalues --   -0.56351  -0.56133  -0.56022  -0.55821  -0.55556
 Alpha  occ. eigenvalues --   -0.55383  -0.55380  -0.55191  -0.54568  -0.54432
 Alpha  occ. eigenvalues --   -0.53931  -0.53832  -0.53337  -0.53257  -0.53160
 Alpha  occ. eigenvalues --   -0.53069  -0.52957  -0.52833  -0.52786  -0.52585
 Alpha  occ. eigenvalues --   -0.52484  -0.52355  -0.51967  -0.51825  -0.51652
 Alpha  occ. eigenvalues --   -0.51582  -0.51240  -0.51136  -0.50599  -0.50395
 Alpha  occ. eigenvalues --   -0.50070  -0.49950  -0.49903  -0.49805  -0.49549
 Alpha  occ. eigenvalues --   -0.49411  -0.49255  -0.49134  -0.49127  -0.49029
 Alpha  occ. eigenvalues --   -0.48635  -0.48499  -0.48487  -0.48479  -0.48319
 Alpha  occ. eigenvalues --   -0.48264  -0.47732  -0.47522  -0.47333  -0.47045
 Alpha  occ. eigenvalues --   -0.46838  -0.46642  -0.46591  -0.46477  -0.46400
 Alpha  occ. eigenvalues --   -0.46206  -0.46202  -0.46025  -0.45869  -0.45760
 Alpha  occ. eigenvalues --   -0.45239  -0.45149  -0.44623  -0.44540  -0.44448
 Alpha  occ. eigenvalues --   -0.44401  -0.44185  -0.44124  -0.44058  -0.44054
 Alpha  occ. eigenvalues --   -0.44015  -0.43865  -0.43540  -0.43492  -0.43423
 Alpha  occ. eigenvalues --   -0.43315  -0.43068  -0.42868  -0.42836  -0.42744
 Alpha  occ. eigenvalues --   -0.42700  -0.42494  -0.42052  -0.41905  -0.41745
 Alpha  occ. eigenvalues --   -0.41601  -0.41570  -0.41388  -0.41178  -0.40915
 Alpha  occ. eigenvalues --   -0.40906  -0.40850  -0.40649  -0.40626  -0.40611
 Alpha  occ. eigenvalues --   -0.40434  -0.40267  -0.40152  -0.39485  -0.39378
 Alpha  occ. eigenvalues --   -0.38507  -0.38292  -0.37784  -0.37582  -0.37360
 Alpha  occ. eigenvalues --   -0.37301  -0.37204  -0.37124  -0.36760  -0.36713
 Alpha  occ. eigenvalues --   -0.36236  -0.36155  -0.34327  -0.34183  -0.33821
 Alpha  occ. eigenvalues --   -0.33801  -0.33228  -0.33105  -0.31370  -0.31201
 Alpha  occ. eigenvalues --   -0.31075  -0.30902  -0.30078  -0.29890  -0.29487
 Alpha  occ. eigenvalues --   -0.29365  -0.29253  -0.29141  -0.24121  -0.23964
 Alpha  occ. eigenvalues --   -0.21168  -0.21045
 Alpha virt. eigenvalues --   -0.08814  -0.08719  -0.01788  -0.01613  -0.00092
 Alpha virt. eigenvalues --    0.00048   0.02156   0.02274   0.03073   0.03290
 Alpha virt. eigenvalues --    0.04681   0.04805   0.05048   0.05226   0.06143

 Mulliken charges:
               1
     1  Mg   0.838604
     2  C   -0.002992
     3  C   -0.094070
     4  C   -0.045837
     5  C   -0.064023
     6  N   -0.256785
     7  C   -0.052489
     8  C   -0.014007
     9  C   -0.087014
    10  C    0.046347
    11  C    0.104787
    12  C    0.053450
    13  C   -0.071889
    14  H    0.036233
    15  N   -0.433193
    16  C    0.168490
    17  C   -0.177068
    18  C   -0.003890
    19  C    0.148775
    20  C    0.110150
    21  C    0.012399
    22  O   -0.249367
    23  C    0.062428
    24  N   -0.341128
    25  C    0.041280
    26  C   -0.028240
    27  C   -0.023948
    28  C    0.074776
    29  C    0.076109
    30  C    0.035151
    31  C   -0.004483
    32  N   -0.310397
    33  C    0.080262
    34  C   -0.170014
    35  C    0.008266
    36  C    0.082844
    37  C    0.127394
    38  C    0.045925
    39  O   -0.188727
    40  C   -0.005280
    41  C    0.212863
    42  O   -0.257337
    43  O   -0.304729
    44  C    0.157735
    45  H   -0.017464
    46  H   -0.016640
    47  H   -0.041673
    48  H    0.000947
    49  H   -0.003939
    50  H    0.025480
    51  H    0.016481
    52  H    0.016775
    53  H    0.011226
    54  H    0.044001
    55  H    0.017905
    56  H    0.018053
    57  H    0.005931
    58  H    0.026996
    59  H    0.039673
    60  H    0.037379
    61  H    0.035973
    62  H    0.031501
    63  H    0.016709
    64  H    0.009475
    65  H    0.023420
    66  H    0.012610
    67  H    0.004770
    68  H    0.006540
    69  H    0.004480
    70  H    0.009121
    71  H    0.017648
    72  H    0.028883
    73  H    0.047150
    74  H    0.008939
    75  H    0.046073
    76  H    0.035212
    77  H    0.042918
    78  H    0.046577
    79  H    0.053505
    80  Mg   0.837913
    81  C   -0.016832
    82  C   -0.087533
    83  C   -0.045401
    84  C   -0.064985
    85  N   -0.254579
    86  C   -0.049780
    87  C   -0.015101
    88  C   -0.090513
    89  C    0.045713
    90  C    0.114220
    91  C    0.062511
    92  C   -0.077832
    93  H    0.034633
    94  N   -0.423585
    95  C    0.162913
    96  C   -0.174149
    97  C   -0.007750
    98  C    0.152248
    99  C    0.099153
   100  C    0.015677
   101  O   -0.253343
   102  C    0.061168
   103  N   -0.350029
   104  C    0.037625
   105  C   -0.019853
   106  C   -0.034675
   107  C    0.088877
   108  C    0.073668
   109  C    0.034767
   110  C   -0.007610
   111  N   -0.324038
   112  C    0.078352
   113  C   -0.163302
   114  C    0.002217
   115  C    0.096118
   116  C    0.131505
   117  C    0.042295
   118  O   -0.188102
   119  C    0.000951
   120  C    0.211219
   121  O   -0.251112
   122  O   -0.305587
   123  C    0.152074
   124  H   -0.018999
   125  H   -0.015663
   126  H   -0.040796
   127  H   -0.000683
   128  H   -0.004259
   129  H    0.022381
   130  H    0.015031
   131  H    0.016702
   132  H    0.013902
   133  H    0.037534
   134  H    0.020821
   135  H    0.019689
   136  H    0.009090
   137  H    0.026860
   138  H    0.039692
   139  H    0.038691
   140  H    0.036246
   141  H    0.033793
   142  H    0.014244
   143  H    0.012137
   144  H    0.024854
   145  H    0.012140
   146  H    0.005326
   147  H    0.005962
   148  H    0.003447
   149  H    0.010874
   150  H    0.017733
   151  H    0.030273
   152  H    0.045822
   153  H    0.008238
   154  H    0.046892
   155  H    0.035106
   156  H    0.043784
   157  H    0.049531
   158  H    0.053477
 Sum of Mulliken charges =  -0.00000

 Dipole moment (field-independent basis, Debye):
    X=              4.3150    Y=              1.9345    Z=              0.8517  Tot=              4.8048
 Quadrupole moment (field-independent basis, Debye-Ang):
   XX=           -520.5603   YY=           -539.6925   ZZ=           -458.5062
   XY=            -21.2199   XZ=             63.3467   YZ=             36.0697

 Normal termination of Gaussian 16 at Sat Sep 11 20:25:30 2021.
