 Gaussian 16, Revision A.03,
 Gaussian 16:  ES64L-G16RevA.03 25-Dec-2016

 -----------------------------------
 #p cam-b3lyp/Def2SVP td=(nstates=5)
 -----------------------------------

 --------------------------------
 TDDFT excited states in gaussian
 --------------------------------
 Symbolic Z-matrix:
 Charge =  0 Multiplicity = 1

                         Standard orientation:
 ---------------------------------------------------------------------
 Center     Atomic      Atomic             Coordinates (Angstroms)
 Number     Number       Type             X           Y           Z
 ---------------------------------------------------------------------
      1         12           0       -7.860175   -0.734058    0.084918
      2          6           0       -8.041766    2.825645    0.413176
      3          6           0       -8.735850   -0.327812   -3.187883
      4          6           0       -8.149967   -3.885619   -0.115845
      5          6           0       -8.119439   -0.919460    3.555374
      6          7           0       -8.303935    1.070354   -1.118336
      7          6           0       -8.279827    2.379501   -0.888718
      8          6           0       -8.456675    3.236234   -2.177945
      9          6           0       -9.216548    2.169302   -3.086927
     10          6           0       -8.694902    0.892897   -2.450846
     11          6           0      -10.733674    2.209551   -2.934574
     12          6           0       -7.084988    3.652285   -2.808108
     13          6           0       -7.161093    4.751942   -3.871272
     14          1           0       -6.079865    5.722243   -3.953804
     15          7           0       -7.888275   -1.920013   -1.494821
     16          6           0       -8.256753   -1.582878   -2.754126
     17          6           0       -8.104950   -2.809808   -3.565470
     18          6           0       -7.800222   -3.934147   -2.637518
     19          6           0       -7.961924   -3.288262   -1.359996
     20          6           0       -8.200810   -2.824899   -5.060239
     21          6           0       -7.433376   -5.366439   -2.865770
     22          8           0       -7.438148   -6.228551   -1.921676
     23          6           0       -7.150269   -5.758161   -4.258410
     24          7           0       -8.320711   -2.209950    1.487518
     25          6           0       -8.323111   -3.504571    1.151463
     26          6           0       -8.398704   -4.383453    2.364637
     27          6           0       -8.201969   -3.419131    3.622067
     28          6           0       -8.124802   -2.066341    2.872218
     29          6           0       -9.698669   -5.182157    2.532487
     30          6           0       -7.066824   -3.778810    4.613277
     31          6           0       -5.723544   -3.600638    3.941748
     32          7           0       -7.870433    0.678638    1.732713
     33          6           0       -8.011594    0.382619    3.096208
     34          6           0       -8.067723    1.669327    3.814053
     35          6           0       -7.971350    2.630924    2.810116
     36          6           0       -7.888366    1.986071    1.543005
     37          6           0       -8.250876    1.834545    5.215335
     38          6           0       -7.943970    4.053476    2.511028
     39          8           0       -7.888060    5.081036    3.188145
     40          6           0       -8.111154    4.238117    0.938201
     41          6           0       -7.058860    5.210941    0.480380
     42          8           0       -5.848076    4.912178    0.526294
     43          8           0       -7.647293    6.235853   -0.155107
     44          6           0       -6.656594    7.223187   -0.660913
     45          1           0       -9.231529   -0.340732   -4.160548
     46          1           0       -8.144232   -4.977511   -0.129161
     47          1           0       -8.114654   -0.899609    4.646720
     48          1           0       -9.074874    4.125222   -2.051632
     49          1           0       -8.905119    2.227755   -4.129672
     50          1           0      -11.035547    2.878438   -2.128730
     51          1           0      -11.030964    1.184935   -2.710360
     52          1           0      -11.211626    2.459696   -3.882080
     53          1           0       -6.705452    2.831642   -3.416843
     54          1           0       -6.378244    3.949088   -2.032384
     55          1           0       -8.127190    5.257170   -3.853676
     56          1           0       -7.119570    4.280916   -4.853418
     57          1           0       -8.596511   -1.886068   -5.445675
     58          1           0       -8.955189   -3.566075   -5.323448
     59          1           0       -7.251640   -3.083702   -5.529739
     60          1           0       -8.026046   -5.554084   -4.874783
     61          1           0       -6.819375   -6.795322   -4.217705
     62          1           0       -6.348928   -5.128622   -4.646330
     63          1           0       -7.604059   -5.128383    2.357990
     64          1           0       -9.094967   -3.373060    4.245851
     65          1           0       -9.544587   -6.258991    2.605910
     66          1           0      -10.354956   -4.937020    1.697930
     67          1           0      -10.310701   -4.885515    3.383861
     68          1           0       -7.140468   -4.824243    4.910922
     69          1           0       -7.079685   -3.174090    5.520140
     70          1           0       -5.592623   -4.540216    3.406131
     71          1           0       -4.940251   -3.464297    4.688122
     72          1           0       -5.752521   -2.803341    3.198806
     73          1           0       -7.547639    2.607200    5.525869
     74          1           0       -8.075789    0.901400    5.750301
     75          1           0       -9.295250    2.144573    5.247310
     76          1           0       -9.119067    4.617286    0.772479
     77          1           0       -6.930803    8.193741   -0.247309
     78          1           0       -6.643679    7.121046   -1.746180
     79          1           0       -5.638016    7.119736   -0.285231
     80         12           0        8.022090   -0.823507    0.063980
     81          6           0        7.836795    2.759030    0.164579
     82          6           0        7.143272   -0.627523   -3.225981
     83          6           0        7.736638   -3.983550    0.054561
     84          6           0        7.757966   -0.796130    3.538923
     85          7           0        7.575128    0.900207   -1.247991
     86          6           0        7.596761    2.217921   -1.115665
     87          6           0        7.426600    3.000747   -2.445250
     88          6           0        6.659579    1.872357   -3.292189
     89          6           0        7.180635    0.630107   -2.572473
     90          6           0        5.149413    1.920365   -3.129584
     91          6           0        8.803079    3.373722   -3.099639
     92          6           0        8.719903    4.400274   -4.231466
     93          1           0        9.806968    5.364260   -4.378093
     94          7           0        7.997212   -2.106236   -1.450135
     95          6           0        7.634785   -1.853076   -2.725214
     96          6           0        7.771431   -3.129708   -3.443344
     97          6           0        8.085905   -4.194196   -2.452053
     98          6           0        7.928144   -3.456871   -1.214490
     99          6           0        7.683778   -3.235891   -4.938163
    100          6           0        8.453656   -5.640171   -2.593935
    101          8           0        8.450803   -6.437298   -1.590234
    102          6           0        8.726523   -6.116446   -3.957818
    103          7           0        7.570067   -2.202828    1.552432
    104          6           0        7.562465   -3.522164    1.293147
    105          6           0        7.484524   -4.328144    2.567779
    106          6           0        7.686056   -3.275466    3.754726
    107          6           0        7.759778   -1.972970    2.928004
    108          6           0        6.183917   -5.100331    2.788105
    109          6           0        8.822273   -3.570653    4.771851
    110          6           0       10.167465   -3.446895    4.093224
    111          7           0        8.016715    0.684101    1.611607
    112          6           0        7.869070    0.479691    3.001027
    113          6           0        7.813133    1.813440    3.633790
    114          6           0        7.909764    2.708550    2.557713
    115          6           0        7.997935    1.983904    1.338446
    116          6           0        7.640675    2.068297    5.023552
    117          6           0        7.946533    4.101730    2.175088
    118          8           0        7.995198    5.169106    2.785056
    119          6           0        7.773603    4.197367    0.597961
    120          6           0        8.825603    5.134648    0.071341
    121          8           0       10.031198    4.839527    0.149126
    122          8           0        8.229774    6.117454   -0.628287
    123          6           0        9.233018    7.066505   -1.180204
    124          1           0        6.653522   -0.692771   -4.197977
    125          1           0        7.742345   -5.074139    0.118233
    126          1           0        7.775021   -0.703177    4.626917
    127          1           0        6.814374    3.891635   -2.372709
    128          1           0        6.978770    1.873083   -4.331169
    129          1           0        4.847757    2.632840   -2.376234
    130          1           0        4.852288    0.919637   -2.844449
    131          1           0        4.672278    2.112920   -4.094775
    132          1           0        9.180079    2.507716   -3.658782
    133          1           0        9.499338    3.710799   -2.356524
    134          1           0        7.748811    4.909536   -4.255522
    135          1           0        8.767952    3.869629   -5.185465
    136          1           0        7.280613   -2.318073   -5.383673
    137          1           0        6.930646   -3.999470   -5.160870
    138          1           0        8.630860   -3.529563   -5.395816
    139          1           0        7.852076   -5.946408   -4.581426
    140          1           0        9.058439   -7.150403   -3.845364
    141          1           0        9.537842   -5.514903   -4.382692
    142          1           0        8.279720   -5.062268    2.610368
    143          1           0        6.788833   -3.196565    4.386087
    144          1           0        6.339766   -6.186545    2.929257
    145          1           0        5.530731   -4.916234    1.945493
    146          1           0        5.580405   -4.758552    3.627248
    147          1           0        8.749980   -4.599746    5.132282
    148          1           0        8.802420   -2.922628    5.641713
    149          1           0       10.292865   -4.422517    3.614143
    150          1           0       10.950727   -3.263383    4.825941
    151          1           0       10.139903   -2.691111    3.299705
    152          1           0        8.336673    2.854364    5.284659
    153          1           0        7.811360    1.172035    5.616295
    154          1           0        6.591529    2.375540    5.036777
    155          1           0        6.764748    4.561774    0.400508
    156          1           0        8.955327    8.065055   -0.828830
    157          1           0        9.232636    6.899129   -2.273706
    158          1           0       10.250322    6.989033   -0.814782
 ---------------------------------------------------------------------

 SCF Done:  E(RCAM-B3LYP) =  -4069.81167078     A.U. after   19 cycles

 Excitation energies and oscillator strengths:

 Excited State   1:      Singlet-A      1.6698 eV  742.51 nm  f=0.0167  <S**2>=0.000
     309 -> 315       -0.10427
     310 -> 316        0.13733
     311 -> 313       -0.41359
     312 -> 314        0.54776
 This state for optimization and/or second-order correction.
 Total Energy, E(TD-HF/TD-DFT) =  -4069.75030651
 Copying the excited state density for this state as the 1-particle RhoCI density.

 Excited State   2:      Singlet-A      1.6853 eV  735.70 nm  f=0.7399  <S**2>=0.000
     309 -> 315        0.14122
     310 -> 316        0.10605
     311 -> 313        0.54693
     312 -> 314        0.41305

 Excited State   3:      Singlet-A      2.1854 eV  567.33 nm  f=0.0572  <S**2>=0.000
     309 -> 313       -0.14130
     310 -> 314        0.62703
     312 -> 316       -0.26598

 Excited State   4:      Singlet-A      2.1928 eV  565.41 nm  f=0.1361  <S**2>=0.000
     309 -> 313        0.62504
     310 -> 314        0.14021
     311 -> 315       -0.27174

 Excited State   5:      Singlet-A      2.7650 eV  448.40 nm  f=0.0000  <S**2>=0.000
     312 -> 313        0.70710

 The electronic state is 1-A.
 Alpha  occ. eigenvalues --  -46.87834 -46.87588 -19.26310 -19.26276 -19.19089
 Alpha  occ. eigenvalues --  -19.19047 -19.18856 -19.18656 -19.18196 -19.17968
 Alpha  occ. eigenvalues --  -14.42489 -14.42425 -14.41486 -14.41287 -14.39441
 Alpha  occ. eigenvalues --  -14.39281 -14.38623 -14.38525 -10.39107 -10.39017
 Alpha  occ. eigenvalues --  -10.35490 -10.35335 -10.34416 -10.34145 -10.31703
 Alpha  occ. eigenvalues --  -10.31690 -10.31442 -10.31234 -10.30955 -10.30950
 Alpha  occ. eigenvalues --  -10.30606 -10.30542 -10.30324 -10.30286 -10.30244
 Alpha  occ. eigenvalues --  -10.30073 -10.29953 -10.29819 -10.29667 -10.29367
 Alpha  occ. eigenvalues --  -10.29330 -10.29293 -10.28794 -10.28650 -10.28607
 Alpha  occ. eigenvalues --  -10.28599 -10.28402 -10.28332 -10.28160 -10.28070
 Alpha  occ. eigenvalues --  -10.27927 -10.27828 -10.27766 -10.27623 -10.27599
 Alpha  occ. eigenvalues --  -10.27532 -10.27532 -10.27480 -10.27450 -10.27440
 Alpha  occ. eigenvalues --  -10.27420 -10.27410 -10.27398 -10.27307 -10.27188
 Alpha  occ. eigenvalues --  -10.26966 -10.26760 -10.26636 -10.26460 -10.26372
 Alpha  occ. eigenvalues --  -10.26273 -10.26214 -10.26077 -10.26055 -10.25941
 Alpha  occ. eigenvalues --  -10.25865 -10.25862 -10.25759 -10.25462 -10.25325
 Alpha  occ. eigenvalues --  -10.24866 -10.24823 -10.24796 -10.24720 -10.24675
 Alpha  occ. eigenvalues --  -10.24618  -3.16577  -3.16338  -1.91459  -1.91220
 Alpha  occ. eigenvalues --   -1.91046  -1.90888  -1.90809  -1.90645  -1.16659
 Alpha  occ. eigenvalues --   -1.16570  -1.08653  -1.08574  -1.07257  -1.06909
 Alpha  occ. eigenvalues --   -1.06873  -1.06669  -1.04620  -1.04423  -1.03797
 Alpha  occ. eigenvalues --   -1.03591  -1.03270  -1.02966  -1.02447  -1.02038
 Alpha  occ. eigenvalues --   -0.92007  -0.91911  -0.89553  -0.89425  -0.89231
 Alpha  occ. eigenvalues --   -0.89082  -0.88320  -0.88152  -0.87902  -0.87714
 Alpha  occ. eigenvalues --   -0.87712  -0.87614  -0.87316  -0.87060  -0.85025
 Alpha  occ. eigenvalues --   -0.84932  -0.83968  -0.83808  -0.83009  -0.82875
 Alpha  occ. eigenvalues --   -0.82689  -0.82587  -0.81618  -0.81524  -0.80632
 Alpha  occ. eigenvalues --   -0.80373  -0.78836  -0.78569  -0.77256  -0.77077
 Alpha  occ. eigenvalues --   -0.76972  -0.76830  -0.75959  -0.75767  -0.74930
 Alpha  occ. eigenvalues --   -0.74733  -0.72809  -0.72626  -0.71708  -0.71508
 Alpha  occ. eigenvalues --   -0.69940  -0.69692  -0.68914  -0.68760  -0.67677
 Alpha  occ. eigenvalues --   -0.67532  -0.67267  -0.67140  -0.65327  -0.65202
 Alpha  occ. eigenvalues --   -0.64888  -0.64699  -0.64657  -0.64584  -0.64303
 Alpha  occ. eigenvalues --   -0.64135  -0.62328  -0.62206  -0.60481  -0.60275
 Alpha  occ. eigenvalues --   -0.59845  -0.59726  -0.59022  -0.58921  -0.58538
 Alpha  occ. eigenvalues --   -0.58354  -0.57615  -0.57476  -0.57343  -0.57167
 Alpha  occ. eigenvalues --   -0.56346  -0.56134  -0.56011  -0.55818  -0.55558
 Alpha  occ. eigenvalues --   -0.55386  -0.55370  -0.55177  -0.54554  -0.54418
 Alpha  occ. eigenvalues --   -0.53938  -0.53845  -0.53336  -0.53262  -0.53160
 Alpha  occ. eigenvalues --   -0.53075  -0.52949  -0.52834  -0.52800  -0.52611
 Alpha  occ. eigenvalues --   -0.52470  -0.52338  -0.51942  -0.51800  -0.51660
 Alpha  occ. eigenvalues --   -0.51595  -0.51229  -0.51128  -0.50619  -0.50422
 Alpha  occ. eigenvalues --   -0.50067  -0.49960  -0.49914  -0.49801  -0.49555
 Alpha  occ. eigenvalues --   -0.49424  -0.49250  -0.49134  -0.49132  -0.49030
 Alpha  occ. eigenvalues --   -0.48626  -0.48497  -0.48486  -0.48480  -0.48305
 Alpha  occ. eigenvalues --   -0.48276  -0.47733  -0.47529  -0.47334  -0.47053
 Alpha  occ. eigenvalues --   -0.46833  -0.46640  -0.46598  -0.46488  -0.46394
 Alpha  occ. eigenvalues --   -0.46201  -0.46194  -0.46011  -0.45852  -0.45746
 Alpha  occ. eigenvalues --   -0.45234  -0.45139  -0.44610  -0.44549  -0.44442
 Alpha  occ. eigenvalues --   -0.44409  -0.44181  -0.44129  -0.44056  -0.44055
 Alpha  occ. eigenvalues --   -0.44013  -0.43874  -0.43525  -0.43483  -0.43425
 Alpha  occ. eigenvalues --   -0.43315  -0.43061  -0.42860  -0.42826  -0.42729
 Alpha  occ. eigenvalues --   -0.42685  -0.42488  -0.42045  -0.41898  -0.41738
 Alpha  occ. eigenvalues --   -0.41594  -0.41576  -0.41393  -0.41178  -0.40917
 Alpha  occ. eigenvalues --   -0.40910  -0.40867  -0.40663  -0.40635  -0.40605
 Alpha  occ. eigenvalues --   -0.40425  -0.40285  -0.40168  -0.39474  -0.39361
 Alpha  occ. eigenvalues --   -0.38504  -0.38283  -0.37795  -0.37592  -0.37355
 Alpha  occ. eigenvalues --   -0.37306  -0.37197  -0.37131  -0.36742  -0.36700
 Alpha  occ. eigenvalues --   -0.36225  -0.36147  -0.34322  -0.34181  -0.33800
 Alpha  occ. eigenvalues --   -0.33790  -0.33222  -0.33103  -0.31385  -0.31215
 Alpha  occ. eigenvalues --   -0.31072  -0.30901  -0.30055  -0.29872  -0.29487
 Alpha  occ. eigenvalues --   -0.29356  -0.29259  -0.29135  -0.24117  -0.23962
 Alpha  occ. eigenvalues --   -0.21164  -0.21045
 Alpha virt. eigenvalues --   -0.08811  -0.08720  -0.01787  -0.01613  -0.00097
 Alpha virt. eigenvalues --    0.00037   0.02169   0.02285   0.03077   0.03292
 Alpha virt. eigenvalues --    0.04677   0.04799   0.05070   0.05239   0.06129

 Mulliken charges:
               1
     1  Mg   0.838642
     2  C   -0.002999
     3  C   -0.094303
     4  C   -0.045854
     5  C   -0.063910
     6  N   -0.256777
     7  C   -0.052499
     8  C   -0.013978
     9  C   -0.086973
    10  C    0.046250
    11  C    0.104809
    12  C    0.053542
    13  C   -0.071683
    14  H    0.035884
    15  N   -0.433135
    16  C    0.168327
    17  C   -0.177304
    18  C   -0.004057
    19  C    0.148666
    20  C    0.110213
    21  C    0.012228
    22  O   -0.249528
    23  C    0.062534
    24  N   -0.341149
    25  C    0.041218
    26  C   -0.028193
    27  C   -0.023993
    28  C    0.074861
    29  C    0.076140
    30  C    0.035109
    31  C   -0.004504
    32  N   -0.310512
    33  C    0.080456
    34  C   -0.169569
    35  C    0.008463
    36  C    0.082995
    37  C    0.127275
    38  C    0.046244
    39  O   -0.188096
    40  C   -0.005380
    41  C    0.212954
    42  O   -0.257124
    43  O   -0.304798
    44  C    0.157616
    45  H   -0.017672
    46  H   -0.016789
    47  H   -0.041357
    48  H    0.001050
    49  H   -0.004224
    50  H    0.025562
    51  H    0.016501
    52  H    0.016634
    53  H    0.010891
    54  H    0.044118
    55  H    0.018059
    56  H    0.017714
    57  H    0.005774
    58  H    0.026868
    59  H    0.039161
    60  H    0.037361
    61  H    0.035687
    62  H    0.031170
    63  H    0.016572
    64  H    0.009557
    65  H    0.023272
    66  H    0.012552
    67  H    0.004824
    68  H    0.006438
    69  H    0.004815
    70  H    0.008793
    71  H    0.018124
    72  H    0.028912
    73  H    0.047816
    74  H    0.009170
    75  H    0.046110
    76  H    0.035223
    77  H    0.043185
    78  H    0.046193
    79  H    0.053827
    80  Mg   0.837980
    81  C   -0.016786
    82  C   -0.087830
    83  C   -0.045508
    84  C   -0.064725
    85  N   -0.254549
    86  C   -0.049627
    87  C   -0.015128
    88  C   -0.090564
    89  C    0.045821
    90  C    0.114380
    91  C    0.062574
    92  C   -0.077755
    93  H    0.034684
    94  N   -0.423467
    95  C    0.162889
    96  C   -0.174783
    97  C   -0.007906
    98  C    0.152067
    99  C    0.099464
   100  C    0.015479
   101  O   -0.253271
   102  C    0.061249
   103  N   -0.350045
   104  C    0.037560
   105  C   -0.019830
   106  C   -0.034878
   107  C    0.089032
   108  C    0.073632
   109  C    0.034727
   110  C   -0.007641
   111  N   -0.324182
   112  C    0.078568
   113  C   -0.162921
   114  C    0.002472
   115  C    0.096213
   116  C    0.131424
   117  C    0.042660
   118  O   -0.187549
   119  C    0.000825
   120  C    0.211194
   121  O   -0.251184
   122  O   -0.305477
   123  C    0.152090
   124  H   -0.019967
   125  H   -0.015672
   126  H   -0.040371
   127  H   -0.000426
   128  H   -0.004686
   129  H    0.023170
   130  H    0.014574
   131  H    0.015851
   132  H    0.013782
   133  H    0.037662
   134  H    0.020822
   135  H    0.019348
   136  H    0.008524
   137  H    0.025861
   138  H    0.039545
   139  H    0.038096
   140  H    0.036233
   141  H    0.033782
   142  H    0.014241
   143  H    0.012600
   144  H    0.024968
   145  H    0.011829
   146  H    0.005772
   147  H    0.006162
   148  H    0.003682
   149  H    0.010844
   150  H    0.017828
   151  H    0.030120
   152  H    0.045953
   153  H    0.008394
   154  H    0.047697
   155  H    0.035657
   156  H    0.043983
   157  H    0.049309
   158  H    0.053455
 Sum of Mulliken charges =  -0.00000

 Dipole moment (field-independent basis, Debye):
    X=             -4.0635    Y=             -2.3361    Z=             -7.6322  Tot=              8.9566
 Quadrupole moment (field-independent basis, Debye-Ang):
   XX=           -517.5229   YY=           -551.6337   ZZ=           -447.4005
   XY=             -6.7061   XZ=              0.9450   YZ=            -48.4888

 Normal termination of Gaussian 16 at Sun Sep 12 06:11:54 2021.
