 Gaussian 16, Revision A.03,
 Gaussian 16:  ES64L-G16RevA.03 25-Dec-2016

 -----------------------------------
 #p cam-b3lyp/Def2SVP td=(nstates=5)
 -----------------------------------

 --------------------------------
 TDDFT excited states in gaussian
 --------------------------------
 Symbolic Z-matrix:
 Charge =  0 Multiplicity = 1

                         Standard orientation:
 ---------------------------------------------------------------------
 Center     Atomic      Atomic             Coordinates (Angstroms)
 Number     Number       Type             X           Y           Z
 ---------------------------------------------------------------------
      1         12           0       15.791255   -0.676864   -0.381233
      2          6           0       16.005126    2.716763    0.736700
      3          6           0       16.731256   -1.615101    2.761882
      4          6           0       16.050714   -3.646606   -1.462867
      5          6           0       15.984681    0.539949   -3.641235
      6          7           0       16.276470    0.494921    1.433190
      7          6           0       16.262253    1.786754    1.746459
      8          6           0       16.471986    2.056192    3.266587
      9          6           0       17.236896    0.712921    3.657142
     10          6           0       16.689925   -0.201433    2.575151
     11          6           0       18.751311    0.806884    3.501514
     12          6           0       15.116673    2.189094    4.039373
     13          6           0       15.224149    2.771828    5.451543
     14          1           0       14.155138    3.630955    5.937820
     15          7           0       15.835603   -2.395534    0.591935
     16          6           0       16.230774   -2.590887    1.872935
     17          6           0       16.080697   -4.039475    2.129355
     18          6           0       15.746869   -4.698310    0.836069
     19          6           0       15.892014   -3.595971   -0.079988
     20          6           0       16.203844   -4.651124    3.491145
     21          6           0       15.368870   -6.101482    0.480605
     22          8           0       15.347001   -6.514287   -0.729225
     23          6           0       15.107200   -7.016568    1.606300
     24          7           0       16.210006   -1.470117   -2.266182
     25          6           0       16.204633   -2.791131   -2.475645
     26          6           0       16.248442   -3.111914   -3.940267
     27          6           0       16.039032   -1.724818   -4.703068
     28          6           0       15.990241   -0.784417   -3.473624
     29          6           0       17.536422   -3.780199   -4.440782
     30          6           0       14.882053   -1.655369   -5.731171
     31          6           0       13.553339   -1.757120   -5.016143
     32          7           0       15.786447    1.276751   -1.326966
     33          6           0       15.899328    1.550155   -2.697799
     34          6           0       15.956115    3.016398   -2.842619
     35          6           0       15.888576    3.496700   -1.536253
     36          6           0       15.821950    2.399270   -0.630990
     37          6           0       16.115253    3.727575   -4.064641
     38          6           0       15.882026    4.681124   -0.693072
     39          8           0       15.824755    5.893832   -0.901765
     40          6           0       16.080067    4.221165    0.818564
     41          6           0       15.046908    4.932500    1.649163
     42          8           0       13.832336    4.680069    1.513301
     43          8           0       15.657930    5.616401    2.628690
     44          6           0       14.687390    6.321697    3.507759
     45          1           0       17.244560   -2.017046    3.637611
     46          1           0       16.033460   -4.652753   -1.886907
     47          1           0       15.960053    0.994451   -4.633341
     48          1           0       17.097301    2.919980    3.493028
     49          1           0       16.945331    0.350421    4.642690
     50          1           0       19.045512    1.741385    3.023944
     51          1           0       19.033373   -0.043405    2.880271
     52          1           0       19.249263    0.656168    4.459692
     53          1           0       14.739569    1.194486    4.277301
     54          1           0       14.399032    2.773049    3.462041
     55          1           0       16.195147    3.239515    5.616890
     56          1           0       15.195611    1.947547    6.164246
     57          1           0       16.616655   -3.945672    4.211194
     58          1           0       16.954903   -5.437626    3.420196
     59          1           0       15.260730   -5.073639    3.838058
     60          1           0       15.996306   -7.078136    2.234193
     61          1           0       14.764459   -7.950129    1.161506
     62          1           0       14.319954   -6.592581    2.230341
     63          1           0       15.446073   -3.795371   -4.215070
     64          1           0       16.920860   -1.435474   -5.275200
     65          1           0       17.369423   -4.737493   -4.935155
     66          1           0       18.210540   -3.890801   -3.591886
     67          1           0       18.135865   -3.169483   -5.115401
     68          1           0       14.938946   -2.494817   -6.423296
     69          1           0       14.884760   -0.738568   -6.320847
     70          1           0       13.422168   -2.832141   -4.898012
     71          1           0       12.757976   -1.331784   -5.629085
     72          1           0       13.604555   -1.323395   -4.017271
     73          1           0       15.414794    4.561721   -4.025563
     74          1           0       15.920320    3.086556   -4.924116
     75          1           0       17.162143    4.021891   -3.992136
     76          1           0       17.094883    4.499913    1.100647
     77          1           0       14.964392    7.375971    3.510792
     78          1           0       14.693323    5.794241    4.461782
     79          1           0       13.661024    6.379638    3.143677
     80         12           0      -15.960198   -0.770888    0.247602
     81          6           0      -15.794281    2.468514   -1.287920
     82          6           0      -15.030321    0.729776    3.166149
     83          6           0      -15.658963   -3.660963    1.522015
     84          6           0      -15.751328   -2.143505   -2.948969
     85          7           0      -15.501046    1.334050    0.748269
     86          6           0      -15.531312    2.487384    0.097685
     87          6           0      -15.343978    3.738424    0.997346
     88          6           0      -14.558041    3.044405    2.213684
     89          6           0      -15.084277    1.618567    2.062864
     90          6           0      -13.050902    3.020210    2.020598
     91          6           0      -16.711739    4.345573    1.469171
     92          6           0      -16.615724    5.740411    2.091222
     93          1           0      -17.705096    6.683984    1.855820
     94          7           0      -15.904964   -1.336604    2.149041
     95          6           0      -15.523624   -0.592796    3.208569
     96          6           0      -15.642539   -1.472686    4.381515
     97          6           0      -15.967411   -2.845346    3.907192
     98          6           0      -15.832943   -2.668125    2.475200
     99          6           0      -15.530687   -0.969039    5.791215
    100          6           0      -16.325695   -4.111552    4.624501
    101          8           0      -16.334794   -5.244975    4.026089
    102          6           0      -16.574539   -3.998750    6.069097
    103          7           0      -15.524985   -2.633104   -0.567936
    104          6           0      -15.506726   -3.736851    0.199753
    105          6           0      -15.445009   -4.987458   -0.644380
    106          6           0      -15.670544   -4.500497   -2.150893
    107          6           0      -15.737614   -2.975384   -1.916513
    108          6           0      -14.144240   -5.785441   -0.557083
    109          6           0      -16.821263   -5.177652   -2.944597
    110          6           0      -18.156134   -4.789016   -2.350894
    111          7           0      -15.986824   -0.012791   -1.775424
    112          6           0      -15.860211   -0.758888   -2.967654
    113          6           0      -15.820924    0.207790   -4.084089
    114          6           0      -15.904922    1.460190   -3.457256
    115          6           0      -15.970164    1.287115   -2.048259
    116          6           0      -15.671783   -0.117984   -5.461679
    117          6           0      -15.942529    2.889704   -3.666509
    118          8           0      -16.006155    3.621834   -4.653254
    119          6           0      -15.745106    3.611089   -2.263997
    120          6           0      -16.793257    4.682938   -2.141366
    121          8           0      -17.998453    4.383651   -2.074024
    122          8           0      -16.191295    5.862997   -1.905859
    123          6           0      -17.190356    6.955719   -1.765599
    124          1           0      -14.524907    1.059948    4.074131
    125          1           0      -15.660268   -4.685104    1.902293
    126          1           0      -15.786074   -2.495830   -3.982082
    127          1           0      -14.737392    4.523830    0.562640
    128          1           0      -14.860722    3.463409    3.169815
    129          1           0      -12.764757    3.369093    1.039505
    130          1           0      -12.753373    1.988747    2.157013
    131          1           0      -12.559485    3.583729    2.818913
    132          1           0      -17.075539    3.778163    2.335449
    133          1           0      -17.421358    4.356677    0.664852
    134          1           0      -15.646910    6.214582    1.892467
    135          1           0      -16.646018    5.638227    3.178719
    136          1           0      -15.125064    0.049707    5.823406
    137          1           0      -14.770339   -1.579999    6.289665
    138          1           0      -16.468929   -1.052163    6.343894
    139          1           0      -15.691168   -3.593922    6.557192
    140          1           0      -16.903072   -4.990041    6.387326
    141          1           0      -17.381994   -3.275642    6.229584
    142          1           0      -16.237141   -5.675284   -0.375072
    143          1           0      -14.783850   -4.683763   -2.775410
    144          1           0      -14.296924   -6.836448   -0.247014
    145          1           0      -13.478703   -5.279278    0.129507
    146          1           0      -13.555810   -5.811023   -1.472666
    147          1           0      -16.749599   -6.264947   -2.862004
    148          1           0      -16.818421   -4.934107   -4.001791
    149          1           0      -18.269078   -5.489433   -1.517989
    150          1           0      -18.951805   -4.914165   -3.082523
    151          1           0      -18.119748   -3.777999   -1.928777
    152          1           0      -16.375722    0.498034   -6.005261
    153          1           0      -15.847394   -1.176627   -5.641158
    154          1           0      -14.624517    0.156086   -5.614634
    155          1           0      -14.735059    4.022279   -2.246410
    156          1           0      -16.923219    7.728195   -2.493335
    157          1           0      -17.171816    7.242141   -0.697248
    158          1           0      -18.212925    6.739717   -2.052207
 ---------------------------------------------------------------------

 SCF Done:  E(RCAM-B3LYP) =  -4069.81177357     A.U. after   19 cycles

 Excitation energies and oscillator strengths:

 Excited State   1:      Singlet-A      1.6754 eV  740.01 nm  f=0.2881  <S**2>=0.000
     310 -> 316        0.17070
     311 -> 314       -0.12380
     312 -> 313        0.67479
     310 <- 316        0.10289
 This state for optimization and/or second-order correction.
 Total Energy, E(TD-HF/TD-DFT) =  -4069.75020261
 Copying the excited state density for this state as the 1-particle RhoCI density.

 Excited State   2:      Singlet-A      1.6800 eV  738.01 nm  f=0.4887  <S**2>=0.000
     309 -> 315        0.17271
     311 -> 314        0.67443
     312 -> 313        0.12376
     309 <- 315        0.10342

 Excited State   3:      Singlet-A      2.1861 eV  567.16 nm  f=0.0982  <S**2>=0.000
     310 -> 313        0.64225
     312 -> 316       -0.27297

 Excited State   4:      Singlet-A      2.1926 eV  565.48 nm  f=0.1023  <S**2>=0.000
     309 -> 314        0.64047
     311 -> 315       -0.27822

 Excited State   5:      Singlet-A      3.0660 eV  404.39 nm  f=0.0000  <S**2>=0.000
     311 -> 313        0.70711

 The electronic state is 1-A.
 Alpha  occ. eigenvalues --  -46.87796 -46.87660 -19.26344 -19.26288 -19.19157
 Alpha  occ. eigenvalues --  -19.19023 -19.18814 -19.18716 -19.18170 -19.18049
 Alpha  occ. eigenvalues --  -14.42496 -14.42450 -14.41449 -14.41359 -14.39402
 Alpha  occ. eigenvalues --  -14.39352 -14.38599 -14.38587 -10.39087 -10.39082
 Alpha  occ. eigenvalues --  -10.35448 -10.35393 -10.34390 -10.34226 -10.31750
 Alpha  occ. eigenvalues --  -10.31684 -10.31405 -10.31307 -10.31022 -10.30909
 Alpha  occ. eigenvalues --  -10.30570 -10.30507 -10.30398 -10.30360 -10.30206
 Alpha  occ. eigenvalues --  -10.30142 -10.29920 -10.29895 -10.29630 -10.29437
 Alpha  occ. eigenvalues --  -10.29401 -10.29254 -10.28751 -10.28715 -10.28649
 Alpha  occ. eigenvalues --  -10.28543 -10.28404 -10.28365 -10.28136 -10.28118
 Alpha  occ. eigenvalues --  -10.28000 -10.27793 -10.27727 -10.27668 -10.27584
 Alpha  occ. eigenvalues --  -10.27519 -10.27499 -10.27483 -10.27482 -10.27468
 Alpha  occ. eigenvalues --  -10.27465 -10.27447 -10.27404 -10.27377 -10.27159
 Alpha  occ. eigenvalues --  -10.27047 -10.26708 -10.26689 -10.26418 -10.26409
 Alpha  occ. eigenvalues --  -10.26235 -10.26181 -10.26140 -10.26019 -10.26019
 Alpha  occ. eigenvalues --  -10.25934 -10.25850 -10.25842 -10.25433 -10.25399
 Alpha  occ. eigenvalues --  -10.24872 -10.24833 -10.24787 -10.24734 -10.24690
 Alpha  occ. eigenvalues --  -10.24684  -3.16539  -3.16410  -1.91421  -1.91292
 Alpha  occ. eigenvalues --   -1.91007  -1.90881  -1.90849  -1.90718  -1.16639
 Alpha  occ. eigenvalues --   -1.16636  -1.08656  -1.08628  -1.07215  -1.06968
 Alpha  occ. eigenvalues --   -1.06941  -1.06645  -1.04581  -1.04494  -1.03760
 Alpha  occ. eigenvalues --   -1.03663  -1.03233  -1.03039  -1.02411  -1.02111
 Alpha  occ. eigenvalues --   -0.91986  -0.91972  -0.89518  -0.89495  -0.89189
 Alpha  occ. eigenvalues --   -0.89148  -0.88285  -0.88221  -0.87870  -0.87793
 Alpha  occ. eigenvalues --   -0.87683  -0.87673  -0.87274  -0.87121  -0.84997
 Alpha  occ. eigenvalues --   -0.84983  -0.83935  -0.83877  -0.82966  -0.82933
 Alpha  occ. eigenvalues --   -0.82651  -0.82649  -0.81594  -0.81587  -0.80597
 Alpha  occ. eigenvalues --   -0.80441  -0.78797  -0.78636  -0.77218  -0.77143
 Alpha  occ. eigenvalues --   -0.76935  -0.76896  -0.75924  -0.75836  -0.74897
 Alpha  occ. eigenvalues --   -0.74803  -0.72774  -0.72699  -0.71672  -0.71580
 Alpha  occ. eigenvalues --   -0.69905  -0.69759  -0.68874  -0.68825  -0.67641
 Alpha  occ. eigenvalues --   -0.67601  -0.67221  -0.67198  -0.65288  -0.65269
 Alpha  occ. eigenvalues --   -0.64854  -0.64769  -0.64652  -0.64621  -0.64268
 Alpha  occ. eigenvalues --   -0.64204  -0.62299  -0.62276  -0.60441  -0.60340
 Alpha  occ. eigenvalues --   -0.59805  -0.59794  -0.58992  -0.58987  -0.58504
 Alpha  occ. eigenvalues --   -0.58425  -0.57586  -0.57552  -0.57308  -0.57236
 Alpha  occ. eigenvalues --   -0.56310  -0.56203  -0.55981  -0.55883  -0.55520
 Alpha  occ. eigenvalues --   -0.55451  -0.55339  -0.55247  -0.54524  -0.54487
 Alpha  occ. eigenvalues --   -0.53910  -0.53896  -0.53299  -0.53227  -0.53223
 Alpha  occ. eigenvalues --   -0.53140  -0.52915  -0.52900  -0.52756  -0.52668
 Alpha  occ. eigenvalues --   -0.52436  -0.52403  -0.51914  -0.51884  -0.51657
 Alpha  occ. eigenvalues --   -0.51618  -0.51200  -0.51196  -0.50572  -0.50476
 Alpha  occ. eigenvalues --   -0.50030  -0.49979  -0.49918  -0.49868  -0.49515
 Alpha  occ. eigenvalues --   -0.49487  -0.49215  -0.49201  -0.49102  -0.49097
 Alpha  occ. eigenvalues --   -0.48594  -0.48556  -0.48460  -0.48445  -0.48376
 Alpha  occ. eigenvalues --   -0.48339  -0.47695  -0.47594  -0.47297  -0.47118
 Alpha  occ. eigenvalues --   -0.46797  -0.46708  -0.46557  -0.46552  -0.46359
 Alpha  occ. eigenvalues --   -0.46270  -0.46162  -0.46085  -0.45823  -0.45820
 Alpha  occ. eigenvalues --   -0.45209  -0.45200  -0.44578  -0.44512  -0.44507
 Alpha  occ. eigenvalues --   -0.44474  -0.44144  -0.44126  -0.44089  -0.44078
 Alpha  occ. eigenvalues --   -0.44020  -0.43939  -0.43551  -0.43496  -0.43386
 Alpha  occ. eigenvalues --   -0.43384  -0.43027  -0.42928  -0.42899  -0.42700
 Alpha  occ. eigenvalues --   -0.42655  -0.42554  -0.42009  -0.41964  -0.41704
 Alpha  occ. eigenvalues --   -0.41668  -0.41535  -0.41457  -0.41141  -0.40988
 Alpha  occ. eigenvalues --   -0.40870  -0.40823  -0.40722  -0.40697  -0.40570
 Alpha  occ. eigenvalues --   -0.40493  -0.40236  -0.40224  -0.39439  -0.39427
 Alpha  occ. eigenvalues --   -0.38468  -0.38351  -0.37750  -0.37651  -0.37319
 Alpha  occ. eigenvalues --   -0.37266  -0.37265  -0.37198  -0.36768  -0.36715
 Alpha  occ. eigenvalues --   -0.36216  -0.36193  -0.34286  -0.34253  -0.33859
 Alpha  occ. eigenvalues --   -0.33773  -0.33186  -0.33175  -0.31344  -0.31275
 Alpha  occ. eigenvalues --   -0.31035  -0.30972  -0.30029  -0.29953  -0.29449
 Alpha  occ. eigenvalues --   -0.29327  -0.29322  -0.29211  -0.24080  -0.24036
 Alpha  occ. eigenvalues --   -0.21127  -0.21117
 Alpha virt. eigenvalues --   -0.08792  -0.08774  -0.01749  -0.01684  -0.00058
 Alpha virt. eigenvalues --   -0.00029   0.02200   0.02208   0.03124   0.03228
 Alpha virt. eigenvalues --    0.04718   0.04732   0.05096   0.05169   0.06175

 Mulliken charges:
               1
     1  Mg   0.838793
     2  C   -0.002982
     3  C   -0.094119
     4  C   -0.045867
     5  C   -0.063940
     6  N   -0.256777
     7  C   -0.052474
     8  C   -0.014015
     9  C   -0.086994
    10  C    0.046306
    11  C    0.104810
    12  C    0.053467
    13  C   -0.071780
    14  H    0.036069
    15  N   -0.433145
    16  C    0.168412
    17  C   -0.177161
    18  C   -0.004004
    19  C    0.148725
    20  C    0.110179
    21  C    0.012289
    22  O   -0.249606
    23  C    0.062474
    24  N   -0.341155
    25  C    0.041244
    26  C   -0.028165
    27  C   -0.023991
    28  C    0.074830
    29  C    0.076170
    30  C    0.035125
    31  C   -0.004507
    32  N   -0.310479
    33  C    0.080415
    34  C   -0.169702
    35  C    0.008358
    36  C    0.082969
    37  C    0.127311
    38  C    0.046110
    39  O   -0.188452
    40  C   -0.005321
    41  C    0.212857
    42  O   -0.257113
    43  O   -0.304788
    44  C    0.157709
    45  H   -0.017609
    46  H   -0.016821
    47  H   -0.041471
    48  H    0.000929
    49  H   -0.004047
    50  H    0.025474
    51  H    0.016458
    52  H    0.016651
    53  H    0.011204
    54  H    0.044114
    55  H    0.017873
    56  H    0.017944
    57  H    0.005864
    58  H    0.026832
    59  H    0.039548
    60  H    0.037347
    61  H    0.035667
    62  H    0.031495
    63  H    0.016566
    64  H    0.009472
    65  H    0.023227
    66  H    0.012540
    67  H    0.004763
    68  H    0.006387
    69  H    0.004746
    70  H    0.008787
    71  H    0.018170
    72  H    0.028960
    73  H    0.047572
    74  H    0.009133
    75  H    0.046010
    76  H    0.035148
    77  H    0.042933
    78  H    0.046385
    79  H    0.053663
    80  Mg   0.837902
    81  C   -0.016816
    82  C   -0.087789
    83  C   -0.045522
    84  C   -0.064875
    85  N   -0.254581
    86  C   -0.049818
    87  C   -0.015118
    88  C   -0.090499
    89  C    0.045771
    90  C    0.114360
    91  C    0.062532
    92  C   -0.077912
    93  H    0.034910
    94  N   -0.423506
    95  C    0.162910
    96  C   -0.174606
    97  C   -0.007824
    98  C    0.152111
    99  C    0.099362
   100  C    0.015556
   101  O   -0.253202
   102  C    0.061201
   103  N   -0.350071
   104  C    0.037520
   105  C   -0.019848
   106  C   -0.034813
   107  C    0.088924
   108  C    0.073653
   109  C    0.034738
   110  C   -0.007678
   111  N   -0.324123
   112  C    0.078460
   113  C   -0.163130
   114  C    0.002261
   115  C    0.096197
   116  C    0.131487
   117  C    0.042403
   118  O   -0.187817
   119  C    0.000928
   120  C    0.211259
   121  O   -0.251040
   122  O   -0.305607
   123  C    0.152028
   124  H   -0.019635
   125  H   -0.015586
   126  H   -0.040452
   127  H   -0.000589
   128  H   -0.004316
   129  H    0.022514
   130  H    0.014426
   131  H    0.016339
   132  H    0.013901
   133  H    0.037666
   134  H    0.020838
   135  H    0.019590
   136  H    0.008782
   137  H    0.026134
   138  H    0.039785
   139  H    0.038249
   140  H    0.036372
   141  H    0.033898
   142  H    0.014386
   143  H    0.012440
   144  H    0.025120
   145  H    0.011655
   146  H    0.005695
   147  H    0.006255
   148  H    0.003658
   149  H    0.010922
   150  H    0.017929
   151  H    0.030109
   152  H    0.046014
   153  H    0.008503
   154  H    0.046996
   155  H    0.035095
   156  H    0.043954
   157  H    0.049507
   158  H    0.053566
 Sum of Mulliken charges =  -0.00000

 Dipole moment (field-independent basis, Debye):
    X=              4.1483    Y=             -2.2909    Z=              7.0753  Tot=              8.5157
 Quadrupole moment (field-independent basis, Debye-Ang):
   XX=           -516.4325   YY=           -537.3396   ZZ=           -461.6226
   XY=            -42.0392   XZ=            -12.2199   YZ=             35.3701

 Normal termination of Gaussian 16 at Sat Sep  4 20:16:50 2021.
