 Gaussian 16, Revision A.03,
 Gaussian 16:  ES64L-G16RevA.03 25-Dec-2016

 -----------------------------------
 #p cam-b3lyp/Def2SVP td=(nstates=5)
 -----------------------------------

 --------------------------------
 TDDFT excited states in gaussian
 --------------------------------
 Symbolic Z-matrix:
 Charge =  0 Multiplicity = 1

                         Standard orientation:
 ---------------------------------------------------------------------
 Center     Atomic      Atomic             Coordinates (Angstroms)
 Number     Number       Type             X           Y           Z
 ---------------------------------------------------------------------
      1         12           0       -7.789466   -0.771766   -0.063632
      2          6           0       -8.068275    2.039390    2.134523
      3          6           0       -8.663858    1.322654   -2.611554
      4          6           0       -7.993347   -3.318572   -1.942151
      5          6           0       -8.056273   -2.811014    2.749897
      6          7           0       -8.277386    1.387092   -0.107371
      7          6           0       -8.289462    2.363903    0.794219
      8          6           0       -8.484674    3.778127    0.170331
      9          6           0       -9.212152    3.357321   -1.184547
     10          6           0       -8.658562    1.950881   -1.330798
     11          6           0      -10.730357    3.277264   -1.061468
     12          6           0       -7.122430    4.497333   -0.110321
     13          6           0       -7.224317    5.995533   -0.410937
     14          1           0       -6.169382    6.878316    0.063568
     15          7           0       -7.779787   -0.914488   -2.034009
     16          6           0       -8.152641    0.042758   -2.917154
     17          6           0       -7.964819   -0.546492   -4.260355
     18          6           0       -7.633234   -1.987534   -4.082751
     19          6           0       -7.816965   -2.139228   -2.661973
     20          6           0       -8.054790    0.247718   -5.527196
     21          6           0       -7.227031   -3.060505   -5.042889
     22          8           0       -7.211969   -4.296250   -4.715350
     23          6           0       -6.928381   -2.630331   -6.420858
     24          7           0       -8.215102   -2.781064    0.309450
     25          6           0       -8.181329   -3.687617   -0.673406
     26          6           0       -8.237590   -5.084539   -0.129913
     27          6           0       -8.071539   -4.950227    1.452535
     28          6           0       -8.028187   -3.405595    1.555011
     29          6           0       -9.516124   -5.873767   -0.443726
     30          6           0       -6.930718   -5.765456    2.111586
     31          6           0       -5.590299   -5.224433    1.666985
     32          7           0       -7.843857   -0.476051    2.085936
     33          6           0       -7.981943   -1.465679    3.069930
     34          6           0       -8.075399   -0.773595    4.368527
     35          6           0       -8.001362    0.580066    4.046091
     36          6           0       -7.896385    0.725362    2.633236
     37          6           0       -8.268049   -1.396791    5.633022
     38          6           0       -8.011301    1.938388    4.564475
     39          8           0       -7.985617    2.436974    5.690639
     40          6           0       -8.177678    2.941269    3.338761
     41          6           0       -7.150366    4.028658    3.498531
     42          8           0       -5.932134    3.777748    3.396945
     43          8           0       -7.763932    5.221967    3.508077
     44          6           0       -6.798410    6.346244    3.634255
     45          1           0       -9.155461    1.827868   -3.445236
     46          1           0       -7.958092   -4.229174   -2.543814
     47          1           0       -8.056001   -3.384801    3.678456
     48          1           0       -9.127100    4.444309    0.746451
     49          1           0       -8.898618    3.977190   -2.024297
     50          1           0      -11.053109    3.397247   -0.027371
     51          1           0      -11.000696    2.288400   -1.432355
     52          1           0      -11.211432    3.990383   -1.731398
     53          1           0       -6.718665    4.144718   -1.059372
     54          1           0       -6.426786    4.341720    0.715022
     55          1           0       -8.203758    6.390718   -0.139951
     56          1           0       -7.166517    6.131894   -1.490875
     57          1           0       -8.474283    1.237343   -5.350529
     58          1           0       -8.787923   -0.248575   -6.162742
     59          1           0       -7.097276    0.303890   -6.045215
     60          1           0       -7.807096   -2.143377   -6.844277
     61          1           0       -6.569761   -3.517414   -6.941747
     62          1           0       -6.142918   -1.874561   -6.392413
     63          1           0       -7.423107   -5.690714   -0.524369
     64          1           0       -8.967722   -5.267564    1.986227
     65          1           0       -9.333299   -6.815574   -0.961685
     66          1           0      -10.175745   -5.229677   -1.024535
     67          1           0      -10.139039   -6.097789    0.421842
     68          1           0       -6.977200   -6.806921    1.795142
     69          1           0       -6.963201   -5.748091    3.201033
     70          1           0       -5.432113   -5.721754    0.710699
     71          1           0       -4.813697   -5.497473    2.382211
     72          1           0       -5.638081   -4.152728    1.472947
     73          1           0       -7.587062   -0.900704    6.324486
     74          1           0       -8.069787   -2.467126    5.581274
     75          1           0       -9.320521   -1.175110    5.809139
     76          1           0       -9.194848    3.328813    3.386671
     77          1           0       -7.100222    6.932662    4.502159
     78          1           0       -6.778788    6.847929    2.666612
     79          1           0       -5.778786    6.077093    3.912219
     80         12           0        8.078069   -0.505243    0.161953
     81          6           0        6.838989    1.837489   -2.257825
     82          6           0       10.055516    2.003652    1.357683
     83          6           0        9.513980   -2.650649    2.006633
     84          6           0        6.896215   -3.051549   -1.903298
     85          7           0        8.325506    1.604757   -0.453632
     86          6           0        7.756620    2.400563   -1.346606
     87          6           0        8.135516    3.899333   -1.206319
     88          6           0        9.541359    3.722241   -0.450583
     89          6           0        9.287416    2.376660    0.225880
     90          6           0       10.718696    3.565613   -1.398572
     91          6           0        7.107731    4.696039   -0.328292
     92          6           0        7.242726    6.218543   -0.402541
     93          1           0        6.029843    7.028975   -0.334713
     94          7           0        9.189972   -0.262466    1.787783
     95          6           0        9.907634    0.828846    2.127297
     96          6           0       10.563541    0.498470    3.401973
     97          6           0       10.306097   -0.935811    3.704065
     98          6           0        9.663487   -1.353055    2.474007
     99          6           0       11.275616    1.520617    4.239579
    100          6           0       10.602232   -1.793456    4.896938
    101          8           0       10.503703   -3.070507    4.849224
    102          6           0       11.100743   -1.101385    6.094449
    103          7           0        8.380260   -2.553222   -0.029922
    104          6           0        8.988909   -3.256206    0.941301
    105          6           0        8.847875   -4.741749    0.709606
    106          6           0        7.806481   -4.891760   -0.494801
    107          6           0        7.584029   -3.399337   -0.824357
    108          6           0       10.137026   -5.486324    0.363094
    109          6           0        6.562106   -5.786328   -0.241919
    110          6           0        5.664293   -5.141977    0.789641
    111          7           0        6.893046   -0.621789   -1.640874
    112          6           0        6.536952   -1.787634   -2.353677
    113          6           0        5.826275   -1.352159   -3.573396
    114          6           0        5.838507    0.048711   -3.496495
    115          6           0        6.527088    0.457903   -2.322645
    116          6           0        5.317254   -2.208494   -4.590112
    117          6           0        5.434759    1.274582   -4.146814
    118          8           0        4.746535    1.551311   -5.128406
    119          6           0        6.174733    2.489893   -3.438402
    120          6           0        5.153434    3.559765   -3.164846
    121          8           0        4.227395    3.358465   -2.359520
    122          8           0        5.559761    4.711507   -3.729434
    123          6           0        4.584838    5.805686   -3.476215
    124          1           0       10.878344    2.650895    1.662498
    125          1           0        9.895726   -3.435428    2.663797
    126          1           0        6.411039   -3.787065   -2.548500
    127          1           0        8.280955    4.420877   -2.144723
    128          1           0        9.690830    4.500686    0.293092
    129          1           0       10.399554    3.480603   -2.426707
    130          1           0       11.230572    2.665015   -1.085612
    131          1           0       11.430873    4.382963   -1.253417
    132          1           0        7.344182    4.537933    0.731824
    133          1           0        6.101508    4.410456   -0.566135
    134          1           0        7.870588    6.536143   -1.243883
    135          1           0        7.785243    6.562337    0.481485
    136          1           0       11.443879    2.450597    3.682588
    137          1           0       12.281980    1.132575    4.430650
    138          1           0       10.779315    1.701714    5.195389
    139          1           0       12.016253   -0.568537    5.848742
    140          1           0       11.169242   -1.868610    6.868104
    141          1           0       10.366426   -0.344626    6.392300
    142          1           0        8.444371   -5.233295    1.586342
    143          1           0        8.272715   -5.343534   -1.382690
    144          1           0       10.360750   -6.318128    1.057448
    145          1           0       10.950254   -4.772866    0.349854
    146          1           0       10.175536   -5.899226   -0.643503
    147          1           0        6.866857   -6.751062    0.171087
    148          1           0        5.985408   -5.987556   -1.138532
    149          1           0        6.120114   -5.444703    1.737106
    150          1           0        4.647629   -5.519847    0.702226
    151          1           0        5.719628   -4.048705    0.731678
    152          1           0        4.334704   -1.836066   -4.847756
    153          1           0        5.275935   -3.242762   -4.254912
    154          1           0        6.071653   -2.058627   -5.367086
    155          1           0        6.958305    2.835060   -4.114020
    156          1           0        4.298644    6.210713   -4.451780
    157          1           0        5.086421    6.495640   -2.771849
    158          1           0        3.618528    5.531739   -3.069209
 ---------------------------------------------------------------------

 SCF Done:  E(RCAM-B3LYP) =  -4069.81175724     A.U. after   19 cycles

 Excitation energies and oscillator strengths:

 Excited State   1:      Singlet-A      1.6708 eV  742.06 nm  f=0.0938  <S**2>=0.000
     309 -> 315        0.14123
     311 -> 313        0.56211
     312 -> 314        0.39379
 This state for optimization and/or second-order correction.
 Total Energy, E(TD-HF/TD-DFT) =  -4069.75035588
 Copying the excited state density for this state as the 1-particle RhoCI density.

 Excited State   2:      Singlet-A      1.6847 eV  735.96 nm  f=0.6712  <S**2>=0.000
     309 -> 315       -0.10094
     310 -> 316        0.14477
     311 -> 313       -0.39332
     312 -> 314        0.56135

 Excited State   3:      Singlet-A      2.1855 eV  567.30 nm  f=0.0569  <S**2>=0.000
     309 -> 313        0.62641
     310 -> 314       -0.14416
     311 -> 315       -0.26575

 Excited State   4:      Singlet-A      2.1930 eV  565.37 nm  f=0.1359  <S**2>=0.000
     309 -> 313        0.14315
     310 -> 314        0.62441
     312 -> 316       -0.27140

 Excited State   5:      Singlet-A      2.7638 eV  448.60 nm  f=0.0000  <S**2>=0.000
     312 -> 313        0.70703

 The electronic state is 1-A.
 Alpha  occ. eigenvalues --  -46.87605 -46.87596 -19.26322 -19.26109 -19.19120
 Alpha  occ. eigenvalues --  -19.18831 -19.18657 -19.18610 -19.18016 -19.17988
 Alpha  occ. eigenvalues --  -14.42444 -14.42253 -14.41306 -14.41257 -14.39297
 Alpha  occ. eigenvalues --  -14.39202 -14.38546 -14.38390 -10.39051 -10.38892
 Alpha  occ. eigenvalues --  -10.35334 -10.35243 -10.34208 -10.34193 -10.31742
 Alpha  occ. eigenvalues --  -10.31516 -10.31260 -10.31213 -10.30970 -10.30709
 Alpha  occ. eigenvalues --  -10.30376 -10.30345 -10.30314 -10.30310 -10.30086
 Alpha  occ. eigenvalues --  -10.30015 -10.29844 -10.29736 -10.29436 -10.29382
 Alpha  occ. eigenvalues --  -10.29349 -10.29056 -10.28670 -10.28603 -10.28553
 Alpha  occ. eigenvalues --  -10.28353 -10.28339 -10.28167 -10.28094 -10.27952
 Alpha  occ. eigenvalues --  -10.27927 -10.27617 -10.27600 -10.27532 -10.27464
 Alpha  occ. eigenvalues --  -10.27433 -10.27414 -10.27409 -10.27385 -10.27331
 Alpha  occ. eigenvalues --  -10.27325 -10.27281 -10.27264 -10.27209 -10.27013
 Alpha  occ. eigenvalues --  -10.26975 -10.26634 -10.26489 -10.26352 -10.26185
 Alpha  occ. eigenvalues --  -10.26077 -10.26063 -10.26020 -10.25989 -10.25881
 Alpha  occ. eigenvalues --  -10.25830 -10.25813 -10.25676 -10.25355 -10.25283
 Alpha  occ. eigenvalues --  -10.24824 -10.24658 -10.24641 -10.24638 -10.24597
 Alpha  occ. eigenvalues --  -10.24512  -3.16354  -3.16338  -1.91237  -1.91220
 Alpha  occ. eigenvalues --   -1.90825  -1.90807  -1.90662  -1.90649  -1.16613
 Alpha  occ. eigenvalues --   -1.16455  -1.08624  -1.08447  -1.07011  -1.06909
 Alpha  occ. eigenvalues --   -1.06907  -1.06456  -1.04443  -1.04384  -1.03610
 Alpha  occ. eigenvalues --   -1.03567  -1.03038  -1.02986  -1.02217  -1.02059
 Alpha  occ. eigenvalues --   -0.91940  -0.91781  -0.89441  -0.89337  -0.89102
 Alpha  occ. eigenvalues --   -0.88995  -0.88167  -0.88108  -0.87747  -0.87685
 Alpha  occ. eigenvalues --   -0.87632  -0.87478  -0.87068  -0.87065  -0.84950
 Alpha  occ. eigenvalues --   -0.84787  -0.83823  -0.83761  -0.82875  -0.82764
 Alpha  occ. eigenvalues --   -0.82603  -0.82455  -0.81557  -0.81403  -0.80405
 Alpha  occ. eigenvalues --   -0.80397  -0.78598  -0.78583  -0.77094  -0.77030
 Alpha  occ. eigenvalues --   -0.76853  -0.76750  -0.75796  -0.75738  -0.74755
 Alpha  occ. eigenvalues --   -0.74723  -0.72649  -0.72585  -0.71534  -0.71488
 Alpha  occ. eigenvalues --   -0.69732  -0.69700  -0.68778  -0.68680  -0.67552
 Alpha  occ. eigenvalues --   -0.67449  -0.67146  -0.67016  -0.65223  -0.65093
 Alpha  occ. eigenvalues --   -0.64721  -0.64666  -0.64607  -0.64434  -0.64151
 Alpha  occ. eigenvalues --   -0.64087  -0.62239  -0.62117  -0.60286  -0.60244
 Alpha  occ. eigenvalues --   -0.59747  -0.59611  -0.58944  -0.58799  -0.58378
 Alpha  occ. eigenvalues --   -0.58315  -0.57514  -0.57400  -0.57186  -0.57122
 Alpha  occ. eigenvalues --   -0.56156  -0.56119  -0.55847  -0.55796  -0.55405
 Alpha  occ. eigenvalues --   -0.55325  -0.55201  -0.55163  -0.54442  -0.54346
 Alpha  occ. eigenvalues --   -0.53863  -0.53700  -0.53177  -0.53107  -0.53094
 Alpha  occ. eigenvalues --   -0.53024  -0.52854  -0.52726  -0.52613  -0.52552
 Alpha  occ. eigenvalues --   -0.52342  -0.52263  -0.51843  -0.51737  -0.51608
 Alpha  occ. eigenvalues --   -0.51417  -0.51156  -0.51012  -0.50418  -0.50360
 Alpha  occ. eigenvalues --   -0.49928  -0.49851  -0.49815  -0.49719  -0.49436
 Alpha  occ. eigenvalues --   -0.49319  -0.49155  -0.49062  -0.49024  -0.48911
 Alpha  occ. eigenvalues --   -0.48516  -0.48411  -0.48330  -0.48287  -0.48282
 Alpha  occ. eigenvalues --   -0.48249  -0.47546  -0.47504  -0.47107  -0.47069
 Alpha  occ. eigenvalues --   -0.46659  -0.46611  -0.46504  -0.46361  -0.46220
 Alpha  occ. eigenvalues --   -0.46170  -0.46039  -0.45981  -0.45783  -0.45644
 Alpha  occ. eigenvalues --   -0.45159  -0.45025  -0.44471  -0.44426  -0.44395
 Alpha  occ. eigenvalues --   -0.44310  -0.44082  -0.44025  -0.43957  -0.43901
 Alpha  occ. eigenvalues --   -0.43890  -0.43827  -0.43514  -0.43338  -0.43314
 Alpha  occ. eigenvalues --   -0.43197  -0.42891  -0.42858  -0.42841  -0.42519
 Alpha  occ. eigenvalues --   -0.42498  -0.42478  -0.41910  -0.41826  -0.41624
 Alpha  occ. eigenvalues --   -0.41517  -0.41407  -0.41341  -0.40955  -0.40943
 Alpha  occ. eigenvalues --   -0.40680  -0.40668  -0.40644  -0.40618  -0.40441
 Alpha  occ. eigenvalues --   -0.40393  -0.40172  -0.40028  -0.39366  -0.39265
 Alpha  occ. eigenvalues --   -0.38298  -0.38289  -0.37602  -0.37549  -0.37213
 Alpha  occ. eigenvalues --   -0.37148  -0.37136  -0.37066  -0.36733  -0.36532
 Alpha  occ. eigenvalues --   -0.36169  -0.36008  -0.34202  -0.34092  -0.33818
 Alpha  occ. eigenvalues --   -0.33579  -0.33124  -0.32993  -0.31216  -0.31142
 Alpha  occ. eigenvalues --   -0.30921  -0.30843  -0.29921  -0.29848  -0.29274
 Alpha  occ. eigenvalues --   -0.29249  -0.29162  -0.29128  -0.23984  -0.23886
 Alpha  occ. eigenvalues --   -0.21065  -0.20933
 Alpha virt. eigenvalues --   -0.08740  -0.08578  -0.01630  -0.01555   0.00024
 Alpha virt. eigenvalues --    0.00143   0.02252   0.02388   0.03310   0.03367
 Alpha virt. eigenvalues --    0.04781   0.04911   0.05203   0.05284   0.06231

 Mulliken charges:
               1
     1  Mg   0.839604
     2  C   -0.002702
     3  C   -0.093778
     4  C   -0.045876
     5  C   -0.064082
     6  N   -0.256759
     7  C   -0.052365
     8  C   -0.014169
     9  C   -0.087073
    10  C    0.046573
    11  C    0.104888
    12  C    0.053358
    13  C   -0.071701
    14  H    0.036059
    15  N   -0.433123
    16  C    0.168795
    17  C   -0.176821
    18  C   -0.003788
    19  C    0.148929
    20  C    0.110168
    21  C    0.012604
    22  O   -0.249940
    23  C    0.062227
    24  N   -0.341164
    25  C    0.041291
    26  C   -0.028121
    27  C   -0.023891
    28  C    0.074836
    29  C    0.076306
    30  C    0.035197
    31  C   -0.004470
    32  N   -0.310404
    33  C    0.080416
    34  C   -0.169868
    35  C    0.008197
    36  C    0.083140
    37  C    0.127336
    38  C    0.046075
    39  O   -0.188966
    40  C   -0.005361
    41  C    0.212681
    42  O   -0.256515
    43  O   -0.304971
    44  C    0.157804
    45  H   -0.017748
    46  H   -0.017057
    47  H   -0.041859
    48  H    0.000562
    49  H   -0.003890
    50  H    0.025244
    51  H    0.016312
    52  H    0.016401
    53  H    0.012049
    54  H    0.044548
    55  H    0.017326
    56  H    0.018068
    57  H    0.005806
    58  H    0.026469
    59  H    0.040585
    60  H    0.037024
    61  H    0.035525
    62  H    0.032670
    63  H    0.016486
    64  H    0.009108
    65  H    0.022933
    66  H    0.012468
    67  H    0.004454
    68  H    0.005924
    69  H    0.004485
    70  H    0.008678
    71  H    0.017944
    72  H    0.029607
    73  H    0.047383
    74  H    0.008906
    75  H    0.045626
    76  H    0.034786
    77  H    0.042407
    78  H    0.046384
    79  H    0.053814
    80  Mg   0.838400
    81  C   -0.016743
    82  C   -0.087747
    83  C   -0.045452
    84  C   -0.064861
    85  N   -0.254566
    86  C   -0.049791
    87  C   -0.015150
    88  C   -0.090556
    89  C    0.045898
    90  C    0.114424
    91  C    0.062475
    92  C   -0.077890
    93  H    0.034976
    94  N   -0.423485
    95  C    0.163101
    96  C   -0.174580
    97  C   -0.007706
    98  C    0.152227
    99  C    0.099378
   100  C    0.015716
   101  O   -0.253178
   102  C    0.061112
   103  N   -0.350103
   104  C    0.037550
   105  C   -0.019831
   106  C   -0.034812
   107  C    0.088967
   108  C    0.073704
   109  C    0.034737
   110  C   -0.007711
   111  N   -0.324100
   112  C    0.078545
   113  C   -0.163063
   114  C    0.002066
   115  C    0.096411
   116  C    0.131478
   117  C    0.042432
   118  O   -0.188527
   119  C    0.000934
   120  C    0.210959
   121  O   -0.250453
   122  O   -0.305762
   123  C    0.152144
   124  H   -0.019744
   125  H   -0.015576
   126  H   -0.040487
   127  H   -0.000907
   128  H   -0.004270
   129  H    0.022296
   130  H    0.014381
   131  H    0.016162
   132  H    0.014267
   133  H    0.037979
   134  H    0.020455
   135  H    0.019667
   136  H    0.008727
   137  H    0.026036
   138  H    0.040074
   139  H    0.038127
   140  H    0.036440
   141  H    0.034201
   142  H    0.014506
   143  H    0.012249
   144  H    0.025101
   145  H    0.011537
   146  H    0.005548
   147  H    0.006130
   148  H    0.003644
   149  H    0.010934
   150  H    0.018147
   151  H    0.030354
   152  H    0.045854
   153  H    0.008659
   154  H    0.046642
   155  H    0.034744
   156  H    0.043272
   157  H    0.049589
   158  H    0.053692
 Sum of Mulliken charges =  -0.00000

 Dipole moment (field-independent basis, Debye):
    X=              1.7179    Y=              2.9835    Z=             -2.2607  Tot=              4.1186
 Quadrupole moment (field-independent basis, Debye-Ang):
   XX=           -435.7294   YY=           -461.9421   ZZ=           -535.7703
   XY=             20.6450   XZ=             36.3250   YZ=            -12.9878

 Normal termination of Gaussian 16 at Sat Sep 11 23:44:52 2021.
