 Gaussian 16, Revision A.03,
 Gaussian 16:  ES64L-G16RevA.03 25-Dec-2016

 -----------------------------------
 #p cam-b3lyp/Def2SVP td=(nstates=5)
 -----------------------------------

 --------------------------------
 TDDFT excited states in gaussian
 --------------------------------
 Symbolic Z-matrix:
 Charge =  0 Multiplicity = 1

                         Standard orientation:
 ---------------------------------------------------------------------
 Center     Atomic      Atomic             Coordinates (Angstroms)
 Number     Number       Type             X           Y           Z
 ---------------------------------------------------------------------
      1         12           0        7.635903   -1.036184    0.361417
      2          6           0        8.036400    2.248481   -1.003425
      3          6           0        8.442833    0.289687    3.400165
      4          6           0        7.733423   -3.992818    1.503971
      5          6           0        7.980021   -2.265390   -2.881468
      6          7           0        8.151851    1.022399    0.991243
      7          6           0        8.211467    2.202126    0.381439
      8          6           0        8.402729    3.396326    1.363619
      9          6           0        9.072750    2.615647    2.581654
     10          6           0        8.494511    1.233884    2.332058
     11          6           0       10.593249    2.535454    2.491362
     12          6           0        7.041034    4.047506    1.780131
     13          6           0        7.152388    5.410258    2.469957
     14          1           0        6.128463    6.411461    2.212041
     15          7           0        7.550060   -1.694092    2.222233
     16          6           0        7.902696   -1.013150    3.339038
     17          6           0        7.656248   -1.931745    4.471349
     18          6           0        7.311546   -3.266509    3.907719
     19          6           0        7.546508   -3.041737    2.504277
     20          6           0        7.709511   -1.502746    5.905529
     21          6           0        6.854577   -4.545199    4.535623
     22          8           0        6.834648   -5.649814    3.892193
     23          6           0        6.510279   -4.487467    5.967813
     24          7           0        8.047257   -2.884931   -0.516398
     25          6           0        7.963882   -4.017876    0.189624
     26          6           0        8.021103   -5.222515   -0.702290
     27          6           0        7.916636   -4.671087   -2.197204
     28          6           0        7.898689   -3.153680   -1.888294
     29          6           0        9.275800   -6.096294   -0.567168
     30          6           0        6.790193   -5.256331   -3.085480
     31          6           0        5.441651   -4.820776   -2.557442
     32          7           0        7.775300   -0.184471   -1.630115
     33          6           0        7.936537   -0.881946   -2.836020
     34          6           0        8.088450    0.126225   -3.901188
     35          6           0        8.021186    1.347966   -3.234353
     36          6           0        7.865124    1.117275   -1.837672
     37          6           0        8.319873   -0.145115   -5.278596
     38          6           0        8.069553    2.794359   -3.373875
     39          8           0        8.093233    3.573196   -4.327995
     40          6           0        8.203615    3.433634   -1.921573
     41          6           0        7.198292    4.548324   -1.821077
     42          8           0        5.973722    4.308062   -1.829367
     43          8           0        7.828343    5.687071   -1.494222
     44          6           0        6.884008    6.827009   -1.349567
     45          1           0        8.909688    0.545072    4.353458
     46          1           0        7.662861   -5.028931    1.841502
     47          1           0        8.006718   -2.573322   -3.928329
     48          1           0        9.075607    4.175820    1.005780
     49          1           0        8.736485    2.998813    3.544894
     50          1           0       10.956346    2.916771    1.537067
     51          1           0       10.835634    1.477696    2.595727
     52          1           0       11.058646    3.034804    3.341558
     53          1           0        6.596952    3.466249    2.588210
     54          1           0        6.374858    4.131773    0.920809
     55          1           0        8.146746    5.839966    2.345410
     56          1           0        7.055874    5.257797    3.544965
     57          1           0        8.149101   -0.511700    6.011047
     58          1           0        8.411213   -2.166313    6.410507
     59          1           0        6.734048   -1.563033    6.388405
     60          1           0        7.379127   -4.150363    6.533510
     61          1           0        6.119982   -5.472001    6.223179
     62          1           0        5.737046   -3.732871    6.114935
     63          1           0        7.183983   -5.892135   -0.509248
     64          1           0        8.827770   -4.857038   -2.766353
     65          1           0        9.060504   -7.136929   -0.323385
     66          1           0        9.921992   -5.644133    0.184681
     67          1           0        9.927680   -6.098205   -1.440360
     68          1           0        6.810217   -6.345186   -3.054817
     69          1           0        6.863909   -4.952544   -4.129765
     70          1           0        5.240661   -5.549213   -1.772703
     71          1           0        4.688799   -4.876926   -3.344380
     72          1           0        5.497015   -3.839825   -2.085048
     73          1           0        7.672377    0.531805   -5.835818
     74          1           0        8.104914   -1.186155   -5.518661
     75          1           0        9.381214    0.090532   -5.355283
     76          1           0        9.227167    3.796161   -1.831925
     77          1           0        7.226421    7.614646   -2.020847
     78          1           0        6.834958    7.055562   -0.284784
     79          1           0        5.871923    6.664780   -1.721997
     80         12           0       -8.217289   -0.348830   -0.301209
     81          6           0       -5.823734    2.322990   -0.194664
     82          6           0       -9.882057    1.242091    2.215169
     83          6           0      -10.088286   -2.900043   -0.060170
     84          6           0       -5.811573   -2.252176   -1.955135
     85          7           0       -7.807248    1.533363    0.785755
     86          6           0       -6.902042    2.496287    0.697895
     87          6           0       -7.210553    3.749686    1.560100
     88          6           0       -8.152601    3.058005    2.661455
     89          6           0       -8.679554    1.888406    1.832571
     90          6           0       -7.382405    2.496059    3.844828
     91          6           0       -7.982625    4.853465    0.755364
     92          6           0       -8.044925    6.221679    1.437899
     93          1           0       -7.991622    7.418867    0.603411
     94          7           0      -10.004893   -0.556008    0.535519
     95          6           0      -10.529656    0.191060    1.529395
     96          6           0      -11.859437   -0.376768    1.800386
     97          6           0      -12.010096   -1.621659    0.998989
     98          6           0      -10.669686   -1.754977    0.464569
     99          6           0      -12.869171    0.300102    2.681133
    100          6           0      -13.165450   -2.546963    0.764081
    101          8           0      -13.006956   -3.698241    0.223447
    102          6           0      -14.473015   -2.104663    1.270184
    103          7           0       -7.918272   -2.361835   -0.726309
    104          6           0       -8.913604   -3.254217   -0.581708
    105          6           0       -8.551580   -4.580970   -1.205440
    106          6           0       -7.197007   -4.319997   -2.014514
    107          6           0       -6.951839   -2.844801   -1.628404
    108          6           0       -8.346558   -5.740419   -0.230745
    109          6           0       -7.192301   -4.700480   -3.520471
    110          6           0       -8.123649   -3.788483   -4.286121
    111          7           0       -6.253803    0.005385   -1.130245
    112          6           0       -5.409514   -0.937542   -1.756469
    113          6           0       -4.133671   -0.252747   -2.049228
    114          6           0       -4.317401    1.044872   -1.548308
    115          6           0       -5.608667    1.154739   -0.965174
    116          6           0       -2.990332   -0.846894   -2.654103
    117          6           0       -3.708690    2.343575   -1.370748
    118          8           0       -2.658951    2.868681   -1.739605
    119          6           0       -4.609863    3.191981   -0.373510
    120          6           0       -4.807695    4.557113   -0.973334
    121          8           0       -5.447739    4.696267   -2.030490
    122          8           0       -4.399132    5.488769   -0.092730
    123          6           0       -4.585705    6.859848   -0.637854
    124          1           0      -10.354722    1.538034    3.152119
    125          1           0      -10.733855   -3.780416   -0.100851
    126          1           0       -5.047192   -2.748540   -2.556813
    127          1           0       -6.346695    4.196518    2.037461
    128          1           0       -8.967051    3.715696    2.953790
    129          1           0       -6.314634    2.550159    3.692937
    130          1           0       -7.699353    1.465716    3.939590
    131          1           0       -7.693997    2.993331    4.767842
    132          1           0       -9.051131    4.602953    0.738758
    133          1           0       -7.575907    4.960109   -0.231461
    134          1           0       -7.333534    6.300524    2.268957
    135          1           0       -9.023663    6.328808    1.911840
    136          1           0      -12.415677    1.112512    3.262286
    137          1           0      -13.178770   -0.432573    3.434253
    138          1           0      -13.750850    0.635228    2.130682
    139          1           0      -14.408182   -1.940373    2.343151
    140          1           0      -15.187861   -2.855821    0.928673
    141          1           0      -14.714037   -1.136358    0.817531
    142          1           0       -9.318277   -4.904392   -1.898760
    143          1           0       -6.357270   -4.897022   -1.600129
    144          1           0       -9.001574   -6.607251   -0.439630
    145          1           0       -8.509274   -5.374308    0.774254
    146          1           0       -7.328732   -6.122725   -0.175392
    147          1           0       -7.572008   -5.716208   -3.655636
    148          1           0       -6.206831   -4.662242   -3.972545
    149          1           0       -9.102991   -4.252111   -4.134329
    150          1           0       -7.856675   -3.766272   -5.340766
    151          1           0       -8.157580   -2.790704   -3.833440
    152          1           0       -2.617458   -0.136409   -3.379834
    153          1           0       -3.236262   -1.799315   -3.119053
    154          1           0       -2.348630   -0.971474   -1.777769
    155          1           0       -4.087250    3.236814    0.582764
    156          1           0       -3.611795    7.356964   -0.592478
    157          1           0       -5.407417    7.306862   -0.047333
    158          1           0       -4.821553    6.952478   -1.691534
 ---------------------------------------------------------------------

 SCF Done:  E(RCAM-B3LYP) =  -4069.81124431     A.U. after   19 cycles

 Excitation energies and oscillator strengths:

 Excited State   1:      Singlet-A      1.6720 eV  741.52 nm  f=0.2274  <S**2>=0.000
     309 -> 315        0.14156
     311 -> 313        0.56234
     312 -> 314       -0.39326
 This state for optimization and/or second-order correction.
 Total Energy, E(TD-HF/TD-DFT) =  -4069.74979876
 Copying the excited state density for this state as the 1-particle RhoCI density.

 Excited State   2:      Singlet-A      1.6835 eV  736.47 nm  f=0.5499  <S**2>=0.000
     309 -> 315        0.10049
     310 -> 316        0.14434
     311 -> 313        0.39296
     312 -> 314        0.56171

 Excited State   3:      Singlet-A      2.1859 eV  567.21 nm  f=0.0393  <S**2>=0.000
     309 -> 313        0.60868
     310 -> 314       -0.20646
     311 -> 315       -0.25855

 Excited State   4:      Singlet-A      2.1922 eV  565.57 nm  f=0.1523  <S**2>=0.000
     309 -> 313        0.20528
     310 -> 314        0.60674
     312 -> 316       -0.26361

 Excited State   5:      Singlet-A      2.7579 eV  449.56 nm  f=0.0000  <S**2>=0.000
     312 -> 313        0.70684

 The electronic state is 1-A.
 Alpha  occ. eigenvalues --  -46.87633 -46.87571 -19.26229 -19.26041 -19.19037
 Alpha  occ. eigenvalues --  -19.18758 -19.18687 -19.18636 -19.17982 -19.17901
 Alpha  occ. eigenvalues --  -14.42413 -14.42288 -14.41294 -14.41271 -14.39263
 Alpha  occ. eigenvalues --  -14.39244 -14.38503 -14.38418 -10.38969 -10.38828
 Alpha  occ. eigenvalues --  -10.35323 -10.35315 -10.34199 -10.34082 -10.31640
 Alpha  occ. eigenvalues --  -10.31433 -10.31236 -10.31216 -10.30942 -10.30746
 Alpha  occ. eigenvalues --  -10.30402 -10.30347 -10.30301 -10.30260 -10.30066
 Alpha  occ. eigenvalues --  -10.30062 -10.29800 -10.29765 -10.29471 -10.29350
 Alpha  occ. eigenvalues --  -10.29303 -10.29103 -10.28646 -10.28593 -10.28574
 Alpha  occ. eigenvalues --  -10.28350 -10.28311 -10.28199 -10.28070 -10.27955
 Alpha  occ. eigenvalues --  -10.27896 -10.27631 -10.27584 -10.27570 -10.27441
 Alpha  occ. eigenvalues --  -10.27430 -10.27395 -10.27392 -10.27376 -10.27373
 Alpha  occ. eigenvalues --  -10.27352 -10.27325 -10.27298 -10.27235 -10.26961
 Alpha  occ. eigenvalues --  -10.26932 -10.26621 -10.26504 -10.26352 -10.26306
 Alpha  occ. eigenvalues --  -10.26089 -10.26070 -10.26063 -10.25971 -10.25867
 Alpha  occ. eigenvalues --  -10.25845 -10.25697 -10.25676 -10.25329 -10.25324
 Alpha  occ. eigenvalues --  -10.24765 -10.24665 -10.24655 -10.24634 -10.24600
 Alpha  occ. eigenvalues --  -10.24573  -3.16375  -3.16322  -1.91257  -1.91204
 Alpha  occ. eigenvalues --   -1.90843  -1.90792  -1.90685  -1.90629  -1.16522
 Alpha  occ. eigenvalues --   -1.16388  -1.08505  -1.08433  -1.07090  -1.06889
 Alpha  occ. eigenvalues --   -1.06820  -1.06386  -1.04417  -1.04408  -1.03604
 Alpha  occ. eigenvalues --   -1.03574  -1.03073  -1.02948  -1.02251  -1.02019
 Alpha  occ. eigenvalues --   -0.91886  -0.91798  -0.89407  -0.89376  -0.89077
 Alpha  occ. eigenvalues --   -0.89019  -0.88148  -0.88138  -0.87705  -0.87678
 Alpha  occ. eigenvalues --   -0.87597  -0.87512  -0.87132  -0.87037  -0.84920
 Alpha  occ. eigenvalues --   -0.84815  -0.83797  -0.83792  -0.82855  -0.82839
 Alpha  occ. eigenvalues --   -0.82572  -0.82485  -0.81491  -0.81394  -0.80425
 Alpha  occ. eigenvalues --   -0.80347  -0.78647  -0.78543  -0.77065  -0.77060
 Alpha  occ. eigenvalues --   -0.76812  -0.76764  -0.75750  -0.75749  -0.74754
 Alpha  occ. eigenvalues --   -0.74719  -0.72616  -0.72602  -0.71515  -0.71495
 Alpha  occ. eigenvalues --   -0.69777  -0.69679  -0.68745  -0.68710  -0.67507
 Alpha  occ. eigenvalues --   -0.67481  -0.67122  -0.67052  -0.65187  -0.65114
 Alpha  occ. eigenvalues --   -0.64684  -0.64678  -0.64562  -0.64452  -0.64123
 Alpha  occ. eigenvalues --   -0.64118  -0.62173  -0.62097  -0.60299  -0.60255
 Alpha  occ. eigenvalues --   -0.59714  -0.59638  -0.58899  -0.58826  -0.58339
 Alpha  occ. eigenvalues --   -0.58329  -0.57437  -0.57390  -0.57147  -0.57143
 Alpha  occ. eigenvalues --   -0.56150  -0.56106  -0.55786  -0.55773  -0.55368
 Alpha  occ. eigenvalues --   -0.55359  -0.55178  -0.55153  -0.54391  -0.54344
 Alpha  occ. eigenvalues --   -0.53836  -0.53724  -0.53148  -0.53136  -0.53059
 Alpha  occ. eigenvalues --   -0.53052  -0.52808  -0.52733  -0.52610  -0.52594
 Alpha  occ. eigenvalues --   -0.52318  -0.52303  -0.51753  -0.51744  -0.51577
 Alpha  occ. eigenvalues --   -0.51448  -0.51094  -0.51027  -0.50446  -0.50402
 Alpha  occ. eigenvalues --   -0.49903  -0.49899  -0.49785  -0.49775  -0.49406
 Alpha  occ. eigenvalues --   -0.49356  -0.49108  -0.49046  -0.49006  -0.48931
 Alpha  occ. eigenvalues --   -0.48458  -0.48417  -0.48323  -0.48285  -0.48283
 Alpha  occ. eigenvalues --   -0.48244  -0.47539  -0.47508  -0.47144  -0.47033
 Alpha  occ. eigenvalues --   -0.46642  -0.46622  -0.46476  -0.46385  -0.46201
 Alpha  occ. eigenvalues --   -0.46179  -0.45994  -0.45986  -0.45710  -0.45638
 Alpha  occ. eigenvalues --   -0.45126  -0.45062  -0.44421  -0.44401  -0.44383
 Alpha  occ. eigenvalues --   -0.44362  -0.44037  -0.43997  -0.43990  -0.43929
 Alpha  occ. eigenvalues --   -0.43849  -0.43842  -0.43453  -0.43307  -0.43295
 Alpha  occ. eigenvalues --   -0.43230  -0.42864  -0.42830  -0.42790  -0.42543
 Alpha  occ. eigenvalues --   -0.42472  -0.42449  -0.41881  -0.41855  -0.41561
 Alpha  occ. eigenvalues --   -0.41537  -0.41380  -0.41369  -0.40984  -0.40904
 Alpha  occ. eigenvalues --   -0.40715  -0.40685  -0.40647  -0.40623  -0.40426
 Alpha  occ. eigenvalues --   -0.40410  -0.40156  -0.40056  -0.39347  -0.39314
 Alpha  occ. eigenvalues --   -0.38328  -0.38272  -0.37577  -0.37571  -0.37182
 Alpha  occ. eigenvalues --   -0.37174  -0.37114  -0.37090  -0.36660  -0.36505
 Alpha  occ. eigenvalues --   -0.36125  -0.36004  -0.34160  -0.34122  -0.33744
 Alpha  occ. eigenvalues --   -0.33526  -0.33083  -0.33016  -0.31216  -0.31195
 Alpha  occ. eigenvalues --   -0.30883  -0.30873  -0.29838  -0.29805  -0.29294
 Alpha  occ. eigenvalues --   -0.29234  -0.29153  -0.29102  -0.23945  -0.23917
 Alpha  occ. eigenvalues --   -0.21026  -0.20969
 Alpha virt. eigenvalues --   -0.08697  -0.08615  -0.01597  -0.01595   0.00059
 Alpha virt. eigenvalues --    0.00093   0.02324   0.02372   0.03315   0.03319
 Alpha virt. eigenvalues --    0.04809   0.04882   0.05288   0.05338   0.06253

 Mulliken charges:
               1
     1  Mg   0.839414
     2  C   -0.002295
     3  C   -0.094105
     4  C   -0.046093
     5  C   -0.064142
     6  N   -0.256716
     7  C   -0.052236
     8  C   -0.014082
     9  C   -0.087000
    10  C    0.046406
    11  C    0.104910
    12  C    0.053437
    13  C   -0.071756
    14  H    0.036695
    15  N   -0.433015
    16  C    0.168390
    17  C   -0.177356
    18  C   -0.004274
    19  C    0.148683
    20  C    0.110294
    21  C    0.012087
    22  O   -0.250091
    23  C    0.062551
    24  N   -0.341159
    25  C    0.041120
    26  C   -0.028026
    27  C   -0.023972
    28  C    0.074969
    29  C    0.076300
    30  C    0.035199
    31  C   -0.004457
    32  N   -0.310667
    33  C    0.080852
    34  C   -0.169344
    35  C    0.008599
    36  C    0.083595
    37  C    0.127148
    38  C    0.046832
    39  O   -0.187938
    40  C   -0.005619
    41  C    0.212592
    42  O   -0.255123
    43  O   -0.305334
    44  C    0.157425
    45  H   -0.017972
    46  H   -0.017285
    47  H   -0.041640
    48  H    0.000816
    49  H   -0.004233
    50  H    0.025383
    51  H    0.016233
    52  H    0.016286
    53  H    0.011274
    54  H    0.045411
    55  H    0.017399
    56  H    0.017447
    57  H    0.005715
    58  H    0.026402
    59  H    0.039210
    60  H    0.037191
    61  H    0.035160
    62  H    0.031416
    63  H    0.016197
    64  H    0.009272
    65  H    0.022823
    66  H    0.012492
    67  H    0.004535
    68  H    0.005896
    69  H    0.004757
    70  H    0.008312
    71  H    0.017842
    72  H    0.029700
    73  H    0.048266
    74  H    0.008936
    75  H    0.045725
    76  H    0.034759
    77  H    0.042522
    78  H    0.045937
    79  H    0.055121
    80  Mg   0.837670
    81  C   -0.016764
    82  C   -0.087913
    83  C   -0.045590
    84  C   -0.064933
    85  N   -0.254482
    86  C   -0.049907
    87  C   -0.015019
    88  C   -0.090463
    89  C    0.045619
    90  C    0.114464
    91  C    0.062582
    92  C   -0.077742
    93  H    0.034905
    94  N   -0.423447
    95  C    0.162739
    96  C   -0.174856
    97  C   -0.008002
    98  C    0.151982
    99  C    0.099468
   100  C    0.015423
   101  O   -0.253418
   102  C    0.061266
   103  N   -0.350066
   104  C    0.037367
   105  C   -0.019757
   106  C   -0.034838
   107  C    0.088994
   108  C    0.073729
   109  C    0.034754
   110  C   -0.007648
   111  N   -0.324235
   112  C    0.078559
   113  C   -0.163033
   114  C    0.002782
   115  C    0.096165
   116  C    0.131667
   117  C    0.042587
   118  O   -0.185472
   119  C    0.000718
   120  C    0.211691
   121  O   -0.250972
   122  O   -0.305726
   123  C    0.151981
   124  H   -0.020026
   125  H   -0.015788
   126  H   -0.040284
   127  H   -0.000760
   128  H   -0.004539
   129  H    0.022318
   130  H    0.014342
   131  H    0.015844
   132  H    0.013865
   133  H    0.037893
   134  H    0.020535
   135  H    0.019373
   136  H    0.008527
   137  H    0.025826
   138  H    0.039572
   139  H    0.038095
   140  H    0.036180
   141  H    0.033834
   142  H    0.014277
   143  H    0.012422
   144  H    0.024945
   145  H    0.011521
   146  H    0.005613
   147  H    0.006085
   148  H    0.003733
   149  H    0.010809
   150  H    0.017950
   151  H    0.030216
   152  H    0.047236
   153  H    0.008192
   154  H    0.047424
   155  H    0.034969
   156  H    0.044186
   157  H    0.048936
   158  H    0.053846
 Sum of Mulliken charges =  -0.00000

 Dipole moment (field-independent basis, Debye):
    X=             -0.4745    Y=              0.5317    Z=              7.7160  Tot=              7.7489
 Quadrupole moment (field-independent basis, Debye-Ang):
   XX=           -462.7969   YY=           -498.3614   ZZ=           -492.9321
   XY=            -27.4399   XZ=              0.3605   YZ=             56.9811

 Normal termination of Gaussian 16 at Sun Sep 12 03:25:58 2021.
