 Gaussian 16, Revision A.03,
 Gaussian 16:  ES64L-G16RevA.03 25-Dec-2016

 -----------------------------------
 #p cam-b3lyp/Def2SVP td=(nstates=5)
 -----------------------------------

 --------------------------------
 TDDFT excited states in gaussian
 --------------------------------
 Symbolic Z-matrix:
 Charge =  0 Multiplicity = 1

                         Standard orientation:
 ---------------------------------------------------------------------
 Center     Atomic      Atomic             Coordinates (Angstroms)
 Number     Number       Type             X           Y           Z
 ---------------------------------------------------------------------
      1         12           0        5.525990    0.355786    0.802587
      2          6           0        5.870971   -2.666995   -1.083148
      3          6           0        6.766430    2.013697   -1.909554
      4          6           0        5.658289    2.967806    2.596039
      5          6           0        5.403594   -1.621147    3.670062
      6          7           0        6.195797   -0.347711   -1.186659
      7          6           0        6.220848   -1.523982   -1.805472
      8          6           0        6.581681   -1.419079   -3.317480
      9          6           0        7.372943   -0.035152   -3.292017
     10          6           0        6.715797    0.598072   -2.078300
     11          6           0        8.865091   -0.191436   -3.017114
     12          6           0        5.310363   -1.335460   -4.227693
     13          6           0        5.560748   -1.558813   -5.721940
     14          1           0        4.550578   -2.254350   -6.504968
     15          7           0        5.655511    2.258542    0.287229
     16          6           0        6.174255    2.752642   -0.862578
     17          6           0        6.041098    4.222541   -0.771217
     18          6           0        5.576757    4.552705    0.604818
     19          6           0        5.637535    3.258130    1.233913
     20          6           0        6.294511    5.144912   -1.923937
     21          6           0        5.156539    5.833747    1.253264
     22          8           0        5.012440    5.940013    2.519169
     23          6           0        5.001744    6.999853    0.364850
     24          7           0        5.751119    0.658745    2.855674
     25          6           0        5.716660    1.888933    3.379538
     26          6           0        5.613287    1.842763    4.875239
     27          6           0        5.338230    0.315730    5.252419
     28          6           0        5.417307   -0.296133    3.831982
     29          6           0        6.841149    2.345818    5.646796
     30          6           0        4.085658    0.019004    6.114647
     31          6           0        2.833602    0.315643    5.320003
     32          7           0        5.440022   -1.768845    1.238011
     33          6           0        5.418431   -2.369653    2.504991
     34          6           0        5.469914   -3.827832    2.292548
     35          6           0        5.535027   -3.974446    0.908311
     36          6           0        5.551344   -2.688674    0.296090
     37          6           0        5.511857   -4.817791    3.313652
     38          6           0        5.619463   -4.917723   -0.194846
     39          8           0        5.549521   -6.143523   -0.294929
     40          6           0        5.963193   -4.107334   -1.521852
     41          6           0        5.021832   -4.576392   -2.597553
     42          8           0        3.798199   -4.342777   -2.523309
     43          8           0        5.731112   -5.012224   -3.649939
     44          6           0        4.856819   -5.464757   -4.764829
     45          1           0        7.361310    2.607377   -2.606406
     46          1           0        5.592774    3.840637    3.248964
     47          1           0        5.283799   -2.302924    4.514031
     48          1           0        7.231804   -2.212903   -3.685728
     49          1           0        7.178039    0.561506   -4.182935
     50          1           0        9.116516   -1.219215   -2.755621
     51          1           0        9.078892    0.476860   -2.182751
     52          1           0        9.454449    0.178954   -3.856307
     53          1           0        4.952348   -0.306225   -4.251383
     54          1           0        4.542834   -2.029341   -3.883084
     55          1           0        6.546291   -1.989611   -5.900900
     56          1           0        5.597644   -0.585482   -6.211292
     57          1           0        6.781017    4.628601   -2.750544
     58          1           0        7.029856    5.876833   -1.590367
     59          1           0        5.387691    5.656077   -2.247543
     60          1           0        5.948210    7.196358   -0.139270
     61          1           0        4.610752    7.803106    0.988356
     62          1           0        4.282820    6.754751   -0.417469
     63          1           0        4.783341    2.453129    5.228891
     64          1           0        6.160934   -0.120001    5.819845
     65          1           0        6.619977    3.156854    6.341065
     66          1           0        7.595245    2.647537    4.920438
     67          1           0        7.374757    1.578577    6.207172
     68          1           0        4.068454    0.663593    6.992801
     69          1           0        4.035819   -1.013642    6.460202
     70          1           0        2.707944    1.389274    5.455500
     71          1           0        1.984205   -0.231680    5.730090
     72          1           0        2.986161    0.137218    4.255402
     73          1           0        4.824012   -5.604583    3.004144
     74          1           0        5.228767   -4.401824    4.280314
     75          1           0        6.562630   -5.104423    3.273971
     76          1           0        7.002690   -4.327284   -1.763079
     77          1           0        5.139448   -6.491406   -4.997953
     78          1           0        4.953779   -4.721164   -5.556077
     79          1           0        3.799852   -5.591065   -4.527751
     80         12           0       -4.988335    0.634762   -0.414349
     81          6           0       -7.687523   -1.608413    0.335074
     82          6           0       -7.339414    2.882838   -1.440612
     83          6           0       -2.628722    2.455613   -1.502536
     84          6           0       -2.872367   -2.134411   -0.419402
     85          7           0       -7.196478    0.534314   -0.493573
     86          6           0       -8.115325   -0.345478   -0.124727
     87          6           0       -9.572980    0.185292   -0.180272
     88          6           0       -9.364423    1.347421   -1.268770
     89          6           0       -7.883177    1.637671   -1.035679
     90          6           0       -9.537828    0.868971   -2.700680
     91          6           0      -10.050190    0.766903    1.196685
     92          6           0      -11.556042    1.018270    1.301442
     93          1           0      -12.211506    0.793213    2.586822
     94          7           0       -4.963010    2.565278   -0.873753
     95          6           0       -6.012838    3.326749   -1.246982
     96          6           0       -5.467588    4.670642   -1.493586
     97          6           0       -3.984327    4.600427   -1.394950
     98          6           0       -3.795857    3.168909   -1.271105
     99          6           0       -6.337608    5.874718   -1.709670
    100          6           0       -2.912083    5.647202   -1.422128
    101          8           0       -1.675179    5.340691   -1.559758
    102          6           0       -3.360708    7.046552   -1.376731
    103          7           0       -3.074393    0.201219   -1.100769
    104          6           0       -2.231695    1.183487   -1.465371
    105          6           0       -0.830039    0.655906   -1.658757
    106          6           0       -0.857073   -0.846385   -1.111051
    107          6           0       -2.357344   -0.961819   -0.762829
    108          6           0       -0.308436    0.664200   -3.095502
    109          6           0        0.185418   -1.216854   -0.020802
    110          6           0       -0.121813   -0.475295    1.260245
    111          7           0       -5.168994   -1.461646    0.076042
    112          6           0       -4.165302   -2.450127   -0.021868
    113          6           0       -4.794896   -3.744368    0.311270
    114          6           0       -6.137104   -3.419724    0.559426
    115          6           0       -6.334792   -2.024845    0.373034
    116          6           0       -4.145262   -5.010890    0.307534
    117          6           0       -7.433973   -3.941470    0.926322
    118          8           0       -7.858112   -5.037558    1.290207
    119          6           0       -8.523041   -2.811540    0.674177
    120          6           0       -9.401923   -2.733420    1.892378
    121          8           0       -8.937439   -2.360204    2.983962
    122          8           0      -10.684468   -2.901375    1.521911
    123          6           0      -11.595896   -2.821059    2.694379
    124          1           0       -7.976444    3.570749   -1.997269
    125          1           0       -1.755936    3.054442   -1.772962
    126          1           0       -2.258463   -3.030115   -0.303155
    127          1           0      -10.303899   -0.530800   -0.536296
    128          1           0       -9.965908    2.221600   -1.033429
    129          1           0       -9.656713   -0.202936   -2.755700
    130          1           0       -8.642621    1.177719   -3.224444
    131          1           0      -10.365269    1.401358   -3.178423
    132          1           0       -9.680502    1.795355    1.298419
    133          1           0       -9.731361    0.139609    2.006302
    134          1           0      -12.113117    0.526585    0.494678
    135          1           0      -11.741750    2.083620    1.144771
    136          1           0       -7.380812    5.589451   -1.893409
    137          1           0       -6.013790    6.339046   -2.647436
    138          1           0       -6.250803    6.607116   -0.904242
    139          1           0       -4.019620    7.242051   -2.219395
    140          1           0       -2.448968    7.643860   -1.314766
    141          1           0       -3.957717    7.193299   -0.469729
    142          1           0       -0.117608    1.228894   -1.078044
    143          1           0       -0.663256   -1.575451   -1.911506
    144          1           0        0.633319    1.232506   -3.214684
    145          1           0       -1.080407    1.068743   -3.736557
    146          1           0       -0.138468   -0.319075   -3.530789
    147          1           0        1.185001   -0.901503   -0.329884
    148          1           0        0.233288   -2.280520    0.187358
    149          1           0        0.341908    0.502134    1.096872
    150          1           0        0.321392   -0.984761    2.113508
    151          1           0       -1.200224   -0.313872    1.372610
    152          1           0       -4.471205   -5.530604    1.198682
    153          1           0       -3.062947   -4.902504    0.282997
    154          1           0       -4.537201   -5.428376   -0.623794
    155          1           0       -9.084299   -3.090836   -0.218318
    156          1           0      -12.181243   -3.745649    2.707951
    157          1           0      -12.153837   -1.873366    2.574677
    158          1           0      -11.146873   -2.840520    3.680503
 ---------------------------------------------------------------------

 SCF Done:  E(RCAM-B3LYP) =  -4069.81269191     A.U. after   19 cycles

 Excitation energies and oscillator strengths:

 Excited State   1:      Singlet-A      1.6535 eV  749.81 nm  f=0.0050  <S**2>=0.000
     309 -> 315       -0.11164
     310 -> 316        0.12602
     311 -> 313       -0.45356
     312 -> 314        0.51635
 This state for optimization and/or second-order correction.
 Total Energy, E(TD-HF/TD-DFT) =  -4069.75192560
 Copying the excited state density for this state as the 1-particle RhoCI density.

 Excited State   2:      Singlet-A      1.6972 eV  730.52 nm  f=0.7087  <S**2>=0.000
     309 -> 315        0.13563
     310 -> 316        0.11792
     311 -> 313        0.51446
     312 -> 314        0.45184

 Excited State   3:      Singlet-A      2.1838 eV  567.76 nm  f=0.1062  <S**2>=0.000
     310 -> 314        0.64100
     312 -> 316       -0.27057

 Excited State   4:      Singlet-A      2.1967 eV  564.40 nm  f=0.0955  <S**2>=0.000
     309 -> 313        0.63829
     311 -> 315       -0.27923

 Excited State   5:      Singlet-A      2.4830 eV  499.33 nm  f=0.0000  <S**2>=0.000
     312 -> 313        0.70647

 The electronic state is 1-A.
 Alpha  occ. eigenvalues --  -46.87866 -46.87454 -19.26419 -19.26214 -19.19185
 Alpha  occ. eigenvalues --  -19.19016 -19.18728 -19.18589 -19.18224 -19.17873
 Alpha  occ. eigenvalues --  -14.42501 -14.42300 -14.41484 -14.41129 -14.39438
 Alpha  occ. eigenvalues --  -14.39155 -14.38651 -14.38390 -10.39232 -10.38942
 Alpha  occ. eigenvalues --  -10.35354 -10.35272 -10.34451 -10.34049 -10.31805
 Alpha  occ. eigenvalues --  -10.31638 -10.31469 -10.31107 -10.30947 -10.30853
 Alpha  occ. eigenvalues --  -10.30621 -10.30540 -10.30204 -10.30184 -10.30146
 Alpha  occ. eigenvalues --  -10.29957 -10.29889 -10.29650 -10.29647 -10.29264
 Alpha  occ. eigenvalues --  -10.29234 -10.29198 -10.28821 -10.28634 -10.28569
 Alpha  occ. eigenvalues --  -10.28541 -10.28407 -10.28221 -10.28174 -10.27984
 Alpha  occ. eigenvalues --  -10.27815 -10.27802 -10.27762 -10.27584 -10.27485
 Alpha  occ. eigenvalues --  -10.27473 -10.27453 -10.27437 -10.27405 -10.27327
 Alpha  occ. eigenvalues --  -10.27288 -10.27276 -10.27238 -10.27102 -10.27082
 Alpha  occ. eigenvalues --  -10.26881 -10.26822 -10.26559 -10.26335 -10.26276
 Alpha  occ. eigenvalues --  -10.26216 -10.26147 -10.26043 -10.25884 -10.25870
 Alpha  occ. eigenvalues --  -10.25660 -10.25613 -10.25546 -10.25417 -10.25139
 Alpha  occ. eigenvalues --  -10.24870 -10.24811 -10.24675 -10.24645 -10.24483
 Alpha  occ. eigenvalues --  -10.24386  -3.16603  -3.16204  -1.91486  -1.91086
 Alpha  occ. eigenvalues --   -1.91071  -1.90913  -1.90674  -1.90512  -1.16771
 Alpha  occ. eigenvalues --   -1.16505  -1.08692  -1.08482  -1.07123  -1.06847
 Alpha  occ. eigenvalues --   -1.06801  -1.06799  -1.04630  -1.04302  -1.03793
 Alpha  occ. eigenvalues --   -1.03454  -1.03270  -1.02816  -1.02449  -1.01898
 Alpha  occ. eigenvalues --   -0.92026  -0.91792  -0.89529  -0.89252  -0.89210
 Alpha  occ. eigenvalues --   -0.88981  -0.88291  -0.87921  -0.87904  -0.87712
 Alpha  occ. eigenvalues --   -0.87564  -0.87476  -0.87232  -0.86958  -0.85030
 Alpha  occ. eigenvalues --   -0.84827  -0.83939  -0.83586  -0.82901  -0.82763
 Alpha  occ. eigenvalues --   -0.82658  -0.82475  -0.81654  -0.81412  -0.80629
 Alpha  occ. eigenvalues --   -0.80259  -0.78787  -0.78445  -0.77239  -0.76986
 Alpha  occ. eigenvalues --   -0.76947  -0.76688  -0.75974  -0.75661  -0.74909
 Alpha  occ. eigenvalues --   -0.74558  -0.72801  -0.72475  -0.71706  -0.71375
 Alpha  occ. eigenvalues --   -0.69895  -0.69406  -0.68907  -0.68648  -0.67666
 Alpha  occ. eigenvalues --   -0.67405  -0.67249  -0.67050  -0.65347  -0.65097
 Alpha  occ. eigenvalues --   -0.64902  -0.64659  -0.64553  -0.64453  -0.64281
 Alpha  occ. eigenvalues --   -0.63909  -0.62377  -0.62082  -0.60421  -0.60146
 Alpha  occ. eigenvalues --   -0.59857  -0.59620  -0.59023  -0.58776  -0.58539
 Alpha  occ. eigenvalues --   -0.58213  -0.57665  -0.57374  -0.57322  -0.57005
 Alpha  occ. eigenvalues --   -0.56333  -0.56062  -0.55998  -0.55720  -0.55507
 Alpha  occ. eigenvalues --   -0.55372  -0.55291  -0.54999  -0.54574  -0.54238
 Alpha  occ. eigenvalues --   -0.53958  -0.53750  -0.53313  -0.53223  -0.53034
 Alpha  occ. eigenvalues --   -0.52973  -0.52954  -0.52716  -0.52710  -0.52532
 Alpha  occ. eigenvalues --   -0.52422  -0.52037  -0.51952  -0.51645  -0.51632
 Alpha  occ. eigenvalues --   -0.51505  -0.51236  -0.50983  -0.50480  -0.50326
 Alpha  occ. eigenvalues --   -0.50018  -0.49897  -0.49811  -0.49607  -0.49521
 Alpha  occ. eigenvalues --   -0.49330  -0.49237  -0.49138  -0.49033  -0.48918
 Alpha  occ. eigenvalues --   -0.48649  -0.48480  -0.48403  -0.48383  -0.48198
 Alpha  occ. eigenvalues --   -0.48127  -0.47705  -0.47399  -0.47299  -0.46925
 Alpha  occ. eigenvalues --   -0.46826  -0.46608  -0.46480  -0.46387  -0.46373
 Alpha  occ. eigenvalues --   -0.46200  -0.46044  -0.45883  -0.45850  -0.45613
 Alpha  occ. eigenvalues --   -0.45205  -0.44975  -0.44628  -0.44496  -0.44351
 Alpha  occ. eigenvalues --   -0.44262  -0.44156  -0.44120  -0.44012  -0.43959
 Alpha  occ. eigenvalues --   -0.43835  -0.43780  -0.43554  -0.43421  -0.43356
 Alpha  occ. eigenvalues --   -0.43193  -0.43058  -0.42798  -0.42762  -0.42692
 Alpha  occ. eigenvalues --   -0.42656  -0.42289  -0.42034  -0.41743  -0.41708
 Alpha  occ. eigenvalues --   -0.41577  -0.41468  -0.41256  -0.41174  -0.40906
 Alpha  occ. eigenvalues --   -0.40797  -0.40767  -0.40588  -0.40579  -0.40498
 Alpha  occ. eigenvalues --   -0.40292  -0.40178  -0.40090  -0.39423  -0.39081
 Alpha  occ. eigenvalues --   -0.38484  -0.38077  -0.37818  -0.37490  -0.37337
 Alpha  occ. eigenvalues --   -0.37322  -0.37032  -0.36982  -0.36819  -0.36594
 Alpha  occ. eigenvalues --   -0.36250  -0.35972  -0.34333  -0.34042  -0.33916
 Alpha  occ. eigenvalues --   -0.33706  -0.33229  -0.32964  -0.31271  -0.31148
 Alpha  occ. eigenvalues --   -0.31062  -0.30770  -0.30090  -0.29776  -0.29460
 Alpha  occ. eigenvalues --   -0.29355  -0.29145  -0.29009  -0.24127  -0.23826
 Alpha  occ. eigenvalues --   -0.21158  -0.20906
 Alpha virt. eigenvalues --   -0.08794  -0.08593  -0.01775  -0.01480  -0.00042
 Alpha virt. eigenvalues --    0.00130   0.02134   0.02266   0.02525   0.03449
 Alpha virt. eigenvalues --    0.04659   0.04918   0.04960   0.05318   0.06056

 Mulliken charges:
               1
     1  Mg   0.831737
     2  C   -0.002907
     3  C   -0.093693
     4  C   -0.045044
     5  C   -0.063625
     6  N   -0.256619
     7  C   -0.054587
     8  C   -0.013366
     9  C   -0.087053
    10  C    0.046009
    11  C    0.104719
    12  C    0.053126
    13  C   -0.071871
    14  H    0.035602
    15  N   -0.433817
    16  C    0.168565
    17  C   -0.175945
    18  C   -0.002593
    19  C    0.149098
    20  C    0.109787
    21  C    0.014429
    22  O   -0.249224
    23  C    0.061173
    24  N   -0.340612
    25  C    0.041549
    26  C   -0.028366
    27  C   -0.024011
    28  C    0.074219
    29  C    0.076099
    30  C    0.035005
    31  C   -0.005701
    32  N   -0.310467
    33  C    0.079079
    34  C   -0.170824
    35  C    0.008096
    36  C    0.080442
    37  C    0.127529
    38  C    0.045119
    39  O   -0.188719
    40  C   -0.005426
    41  C    0.213424
    42  O   -0.259964
    43  O   -0.304211
    44  C    0.157697
    45  H   -0.017176
    46  H   -0.016130
    47  H   -0.041449
    48  H    0.001012
    49  H   -0.003691
    50  H    0.025574
    51  H    0.016749
    52  H    0.016963
    53  H    0.011051
    54  H    0.042145
    55  H    0.018386
    56  H    0.018639
    57  H    0.005577
    58  H    0.026904
    59  H    0.042547
    60  H    0.036320
    61  H    0.036102
    62  H    0.035949
    63  H    0.017324
    64  H    0.009554
    65  H    0.023610
    66  H    0.012509
    67  H    0.004892
    68  H    0.006873
    69  H    0.004737
    70  H    0.009828
    71  H    0.019064
    72  H    0.028607
    73  H    0.046927
    74  H    0.009406
    75  H    0.046233
    76  H    0.035572
    77  H    0.043575
    78  H    0.046685
    79  H    0.052755
    80  Mg   0.837406
    81  C   -0.017331
    82  C   -0.088306
    83  C   -0.045480
    84  C   -0.064815
    85  N   -0.254629
    86  C   -0.049799
    87  C   -0.015118
    88  C   -0.090417
    89  C    0.045603
    90  C    0.114545
    91  C    0.062616
    92  C   -0.077644
    93  H    0.034460
    94  N   -0.423289
    95  C    0.162633
    96  C   -0.175234
    97  C   -0.008496
    98  C    0.152073
    99  C    0.099589
   100  C    0.015439
   101  O   -0.254879
   102  C    0.061451
   103  N   -0.350084
   104  C    0.037488
   105  C   -0.020388
   106  C   -0.037573
   107  C    0.087889
   108  C    0.073941
   109  C    0.033906
   110  C   -0.011257
   111  N   -0.324215
   112  C    0.078596
   113  C   -0.162450
   114  C    0.002025
   115  C    0.096473
   116  C    0.130992
   117  C    0.042480
   118  O   -0.187970
   119  C    0.000934
   120  C    0.211190
   121  O   -0.251154
   122  O   -0.305664
   123  C    0.152151
   124  H   -0.020455
   125  H   -0.016763
   126  H   -0.035894
   127  H   -0.000919
   128  H   -0.004770
   129  H    0.022302
   130  H    0.014317
   131  H    0.015694
   132  H    0.013883
   133  H    0.037624
   134  H    0.020625
   135  H    0.019364
   136  H    0.008427
   137  H    0.025169
   138  H    0.039236
   139  H    0.037791
   140  H    0.034898
   141  H    0.034300
   142  H    0.012738
   143  H    0.019029
   144  H    0.022491
   145  H    0.009787
   146  H    0.008997
   147  H    0.011014
   148  H    0.012630
   149  H    0.008184
   150  H    0.020819
   151  H    0.028429
   152  H    0.045699
   153  H    0.011997
   154  H    0.047065
   155  H    0.034709
   156  H    0.043691
   157  H    0.049291
   158  H    0.053426
 Sum of Mulliken charges =  -0.00000

 Dipole moment (field-independent basis, Debye):
    X=              0.9456    Y=              6.5350    Z=             -4.5869  Tot=              8.0399
 Quadrupole moment (field-independent basis, Debye-Ang):
   XX=           -446.3327   YY=           -543.4757   ZZ=           -481.4674
   XY=            -29.3723   XZ=              0.8921   YZ=             -8.6721

 Normal termination of Gaussian 16 at Fri Sep 10 09:24:09 2021.
