 Gaussian 16, Revision A.03,
 Gaussian 16:  ES64L-G16RevA.03 25-Dec-2016

 -----------------------------------
 #p cam-b3lyp/Def2SVP td=(nstates=5)
 -----------------------------------

 --------------------------------
 TDDFT excited states in gaussian
 --------------------------------
 Symbolic Z-matrix:
 Charge =  0 Multiplicity = 1

                         Standard orientation:
 ---------------------------------------------------------------------
 Center     Atomic      Atomic             Coordinates (Angstroms)
 Number     Number       Type             X           Y           Z
 ---------------------------------------------------------------------
      1         12           0        4.486972    0.478776    1.341067
      2          6           0        5.278051   -2.452443   -0.554814
      3          6           0        6.107758    2.286042   -1.056829
      4          6           0        4.198581    3.020262    3.215714
      5          6           0        3.952799   -1.613971    4.076160
      6          7           0        5.519284   -0.120896   -0.523168
      7          6           0        5.699784   -1.269957   -1.166789
      8          6           0        6.311956   -1.092251   -2.588422
      9          6           0        7.028733    0.316507   -2.379547
     10          6           0        6.145897    0.877365   -1.278655
     11          6           0        8.456054    0.201912   -1.854070
     12          6           0        5.214816   -1.017135   -3.703040
     13          6           0        5.728861   -1.171810   -5.137330
     14          1           0        4.899071   -1.870644   -6.107087
     15          7           0        4.624525    2.403938    0.919547
     16          6           0        5.313299    2.961401   -0.105202
     17          6           0        5.105426    4.420903    0.010227
     18          6           0        4.396840    4.679433    1.294424
     19          6           0        4.401632    3.363745    1.881212
     20          6           0        5.515817    5.396826   -1.049444
     21          6           0        3.817998    5.918051    1.901794
     22          8           0        3.452891    5.968641    3.126013
     23          6           0        3.770864    7.112485    1.039154
     24          7           0        4.340926    0.707374    3.410862
     25          6           0        4.165347    1.913731    3.961188
     26          6           0        3.806912    1.804371    5.413601
     27          6           0        3.534433    0.254795    5.686222
     28          6           0        3.883271   -0.296801    4.281827
     29          6           0        4.860901    2.319101    6.403638
     30          6           0        2.165058   -0.119892    6.306575
     31          6           0        1.058044    0.164013    5.316113
     32          7           0        4.415313   -1.663232    1.684159
     33          6           0        4.199939   -2.314455    2.907350
     34          6           0        4.347889   -3.760296    2.658911
     35          6           0        4.657406   -3.849236    1.303133
     36          6           0        4.725930   -2.540302    0.746098
     37          6           0        4.253712   -4.788088    3.638303
     38          6           0        4.970418   -4.744239    0.200930
     39          8           0        4.969801   -5.966774    0.049605
     40          6           0        5.504473   -3.870019   -1.018230
     41          6           0        4.783598   -4.328609   -2.256512
     42          8           0        3.556929   -4.141276   -2.389011
     43          8           0        5.681643   -4.696952   -3.183000
     44          6           0        5.032857   -5.135122   -4.447610
     45          1           0        6.788997    2.927563   -1.619239
     46          1           0        3.984964    3.863530    3.875794
     47          1           0        3.717292   -2.332637    4.863249
     48          1           0        7.048358   -1.847432   -2.863811
     49          1           0        6.966209    0.940988   -3.270522
     50          1           0        8.700936   -0.826004   -1.586970
     51          1           0        8.494422    0.843517   -0.973522
     52          1           0        9.165744    0.625939   -2.564927
     53          1           0        4.823863   -0.000989   -3.754643
     54          1           0        4.428749   -1.750741   -3.520703
     55          1           0        6.747530   -1.560238   -5.155927
     56          1           0        5.809365   -0.179051   -5.580215
     57          1           0        6.158941    4.931289   -1.795240
     58          1           0        6.151368    6.140252   -0.568715
     59          1           0        4.658180    5.888307   -1.509050
     60          1           0        4.781253    7.362064    0.714541
     61          1           0        3.244934    7.876011    1.611235
     62          1           0        3.208850    6.873656    0.135799
     63          1           0        2.903697    2.370617    5.637196
     64          1           0        4.264003   -0.174033    6.373615
     65          1           0        4.489526    3.093543    7.075221
     66          1           0        5.716045    2.675843    5.830266
     67          1           0        5.320969    1.549354    7.022705
     68          1           0        1.969515    0.488176    7.189164
     69          1           0        2.099145   -1.166605    6.603724
     70          1           0        0.866374    1.226310    5.463148
     71          1           0        0.174004   -0.428729    5.553476
     72          1           0        1.399664    0.033638    4.289086
     73          1           0        3.663021   -5.585598    3.187715
     74          1           0        3.790711   -4.421189    4.554064
     75          1           0        5.306501   -5.035813    3.772924
     76          1           0        6.578247   -4.043519   -1.081711
     77          1           0        5.393925   -6.141097   -4.661801
     78          1           0        5.234210   -4.357632   -5.184747
     79          1           0        3.956988   -5.307839   -4.402737
     80         12           0       -4.134180    0.443806   -1.223326
     81          6           0       -6.473564   -1.648024    0.517535
     82          6           0       -6.448800    2.941430   -1.025814
     83          6           0       -2.288620    2.170717   -3.141431
     84          6           0       -2.525509   -2.464759   -2.271266
     85          7           0       -6.161957    0.515687   -0.342863
     86          6           0       -6.921932   -0.321658    0.346809
     87          6           0       -8.199414    0.319247    0.952470
     88          6           0       -8.355088    1.552356   -0.064430
     89          6           0       -6.894696    1.709974   -0.482855
     90          6           0       -9.172151    1.213851   -1.300209
     91          6           0       -7.979419    0.813571    2.425321
     92          6           0       -9.261015    1.166630    3.183352
     93          1           0       -9.324655    0.880797    4.613994
     94          7           0       -4.105489    2.399520   -1.559361
     95          6           0       -5.128112    3.266650   -1.405724
     96          6           0       -4.602953    4.582377   -1.802277
     97          6           0       -3.235878    4.393361   -2.359138
     98          6           0       -3.163543    2.946439   -2.394900
     99          6           0       -5.350665    5.862198   -1.564782
    100          6           0       -2.174788    5.355603   -2.800038
    101          8           0       -1.154582    4.970677   -3.473708
    102          6           0       -2.411928    6.775347   -2.500735
    103          7           0       -2.753383   -0.070400   -2.690076
    104          6           0       -2.049270    0.874070   -3.338247
    105          6           0       -0.928007    0.262034   -4.143589
    106          6           0       -0.875726   -1.275772   -3.707705
    107          6           0       -2.086769   -1.308584   -2.749741
    108          6           0       -1.071915    0.355619   -5.662438
    109          6           0        0.487286   -1.815941   -3.194791
    110          6           0        0.835776   -1.167110   -1.874585
    111          7           0       -4.306537   -1.667814   -0.799731
    112          6           0       -3.550227   -2.716271   -1.367899
    113          6           0       -4.109007   -3.983860   -0.854647
    114          6           0       -5.174718   -3.582613   -0.035048
    115          6           0       -5.285869   -2.165993   -0.053274
    116          6           0       -3.659629   -5.290258   -1.197427
    117          6           0       -6.237615   -4.035874    0.833011
    118          8           0       -6.577981   -5.124600    1.294033
    119          6           0       -7.205232   -2.810241    1.129529
    120          6           0       -7.466501   -2.772399    2.610348
    121          8           0       -6.544261   -2.530718    3.408896
    122          8           0       -8.794241   -2.811462    2.824671
    123          6           0       -9.104039   -2.765064    4.278525
    124          1           0       -7.186624    3.720534   -1.219458
    125          1           0       -1.557406    2.723861   -3.735435
    126          1           0       -2.018207   -3.410476   -2.473568
    127          1           0       -9.082871   -0.306796    0.915748
    128          1           0       -8.703423    2.445351    0.448002
    129          1           0       -9.414615    0.162595   -1.347378
    130          1           0       -8.559300    1.499051   -2.145265
    131          1           0      -10.063604    1.845828   -1.347483
    132          1           0       -7.496288    1.798895    2.403913
    133          1           0       -7.413097    0.096559    2.987273
    134          1           0      -10.157243    0.789548    2.675873
    135          1           0       -9.383199    2.252427    3.171581
    136          1           0       -6.395994    5.672568   -1.291418
    137          1           0       -5.411501    6.380430   -2.527910
    138          1           0       -4.852232    6.513653   -0.843798
    139          1           0       -3.343033    7.091641   -2.964915
    140          1           0       -1.504011    7.295328   -2.812472
    141          1           0       -2.545672    6.887239   -1.418972
    142          1           0        0.019776    0.727858   -3.903154
    143          1           0       -1.119624   -1.945294   -4.545611
    144          1           0       -0.217383    0.860204   -6.151564
    145          1           0       -1.996632    0.870587   -5.886601
    146          1           0       -1.207954   -0.596258   -6.172953
    147          1           0        1.286224   -1.550537   -3.891515
    148          1           0        0.507820   -2.894211   -3.076902
    149          1           0        1.284864   -0.216573   -2.177693
    150          1           0        1.544776   -1.780128   -1.321805
    151          1           0       -0.068039   -0.935958   -1.298953
    152          1           0       -3.626392   -5.859321   -0.277885
    153          1           0       -2.686574   -5.261246   -1.683321
    154          1           0       -4.452919   -5.595188   -1.885153
    155          1           0       -8.119585   -2.968605    0.556413
    156          1           0       -9.720797   -3.641078    4.501889
    157          1           0       -9.557119   -1.771572    4.455872
    158          1           0       -8.281806   -2.903208    4.970841
 ---------------------------------------------------------------------

 SCF Done:  E(RCAM-B3LYP) =  -4069.81524244     A.U. after   19 cycles

 Excitation energies and oscillator strengths:

 Excited State   1:      Singlet-A      1.6440 eV  754.15 nm  f=0.0045  <S**2>=0.000
     309 -> 315       -0.11173
     310 -> 316        0.12267
     311 -> 313       -0.46079
     312 -> 314        0.51055
 This state for optimization and/or second-order correction.
 Total Energy, E(TD-HF/TD-DFT) =  -4069.75482546
 Copying the excited state density for this state as the 1-particle RhoCI density.

 Excited State   2:      Singlet-A      1.7027 eV  728.16 nm  f=0.6947  <S**2>=0.000
     309 -> 315        0.13494
     310 -> 316        0.12064
     311 -> 313        0.50804
     312 -> 314        0.45844

 Excited State   3:      Singlet-A      2.1808 eV  568.53 nm  f=0.0589  <S**2>=0.000
     309 -> 313        0.21338
     310 -> 314        0.60807
     312 -> 316       -0.25368

 Excited State   4:      Singlet-A      2.1964 eV  564.49 nm  f=0.1289  <S**2>=0.000
     309 -> 313        0.60405
     310 -> 314       -0.20983
     311 -> 315       -0.26490

 Excited State   5:      Singlet-A      2.4030 eV  515.97 nm  f=0.0000  <S**2>=0.000
     312 -> 313        0.70668

 The electronic state is 1-A.
 Alpha  occ. eigenvalues --  -46.87714 -46.87367 -19.26603 -19.26180 -19.19499
 Alpha  occ. eigenvalues --  -19.18979 -19.18713 -19.18562 -19.18183 -19.17813
 Alpha  occ. eigenvalues --  -14.42391 -14.42218 -14.41368 -14.41028 -14.39317
 Alpha  occ. eigenvalues --  -14.39073 -14.38524 -14.38304 -10.39453 -10.38902
 Alpha  occ. eigenvalues --  -10.35343 -10.35247 -10.34419 -10.33989 -10.31957
 Alpha  occ. eigenvalues --  -10.31615 -10.31373 -10.31020 -10.30886 -10.30787
 Alpha  occ. eigenvalues --  -10.30510 -10.30435 -10.30097 -10.30089 -10.30053
 Alpha  occ. eigenvalues --  -10.29847 -10.29779 -10.29556 -10.29548 -10.29155
 Alpha  occ. eigenvalues --  -10.29152 -10.29113 -10.28811 -10.28701 -10.28512
 Alpha  occ. eigenvalues --  -10.28503 -10.28326 -10.28151 -10.28127 -10.27919
 Alpha  occ. eigenvalues --  -10.27728 -10.27716 -10.27656 -10.27496 -10.27395
 Alpha  occ. eigenvalues --  -10.27389 -10.27352 -10.27329 -10.27305 -10.27266
 Alpha  occ. eigenvalues --  -10.27261 -10.27211 -10.27198 -10.26955 -10.26924
 Alpha  occ. eigenvalues --  -10.26887 -10.26824 -10.26511 -10.26341 -10.26263
 Alpha  occ. eigenvalues --  -10.26228 -10.25966 -10.25917 -10.25825 -10.25726
 Alpha  occ. eigenvalues --  -10.25542 -10.25449 -10.25332 -10.25122 -10.25097
 Alpha  occ. eigenvalues --  -10.24780 -10.24716 -10.24603 -10.24412 -10.24398
 Alpha  occ. eigenvalues --  -10.23717  -3.16453  -3.16117  -1.91334  -1.90999
 Alpha  occ. eigenvalues --   -1.90922  -1.90764  -1.90587  -1.90425  -1.16961
 Alpha  occ. eigenvalues --   -1.16471  -1.08670  -1.08424  -1.07114  -1.07034
 Alpha  occ. eigenvalues --   -1.06825  -1.06762  -1.04534  -1.04223  -1.03685
 Alpha  occ. eigenvalues --   -1.03367  -1.03157  -1.02722  -1.02339  -1.01810
 Alpha  occ. eigenvalues --   -0.91973  -0.91717  -0.89413  -0.89213  -0.89065
 Alpha  occ. eigenvalues --   -0.88894  -0.88176  -0.87793  -0.87732  -0.87626
 Alpha  occ. eigenvalues --   -0.87481  -0.87389  -0.87159  -0.86895  -0.84997
 Alpha  occ. eigenvalues --   -0.84758  -0.83835  -0.83375  -0.82847  -0.82682
 Alpha  occ. eigenvalues --   -0.82646  -0.82358  -0.81660  -0.81332  -0.80588
 Alpha  occ. eigenvalues --   -0.80181  -0.78699  -0.78368  -0.77163  -0.76955
 Alpha  occ. eigenvalues --   -0.76862  -0.76555  -0.75936  -0.75582  -0.74821
 Alpha  occ. eigenvalues --   -0.74433  -0.72700  -0.72378  -0.71635  -0.71301
 Alpha  occ. eigenvalues --   -0.69752  -0.69131  -0.68867  -0.68559  -0.67606
 Alpha  occ. eigenvalues --   -0.67331  -0.67235  -0.66996  -0.65313  -0.65027
 Alpha  occ. eigenvalues --   -0.64860  -0.64602  -0.64466  -0.64359  -0.64171
 Alpha  occ. eigenvalues --   -0.63706  -0.62402  -0.61994  -0.60337  -0.60067
 Alpha  occ. eigenvalues --   -0.59796  -0.59550  -0.58949  -0.58685  -0.58481
 Alpha  occ. eigenvalues --   -0.58119  -0.57703  -0.57314  -0.57244  -0.56889
 Alpha  occ. eigenvalues --   -0.56309  -0.56085  -0.55916  -0.55655  -0.55480
 Alpha  occ. eigenvalues --   -0.55332  -0.55238  -0.54888  -0.54564  -0.54067
 Alpha  occ. eigenvalues --   -0.53934  -0.53687  -0.53241  -0.53212  -0.52999
 Alpha  occ. eigenvalues --   -0.52970  -0.52853  -0.52676  -0.52632  -0.52489
 Alpha  occ. eigenvalues --   -0.52272  -0.51849  -0.51669  -0.51621  -0.51506
 Alpha  occ. eigenvalues --   -0.51447  -0.51173  -0.50840  -0.50425  -0.50264
 Alpha  occ. eigenvalues --   -0.49934  -0.49830  -0.49746  -0.49535  -0.49377
 Alpha  occ. eigenvalues --   -0.49261  -0.49188  -0.49099  -0.48973  -0.48831
 Alpha  occ. eigenvalues --   -0.48626  -0.48434  -0.48351  -0.48324  -0.48155
 Alpha  occ. eigenvalues --   -0.48016  -0.47655  -0.47314  -0.47235  -0.46860
 Alpha  occ. eigenvalues --   -0.46741  -0.46580  -0.46397  -0.46313  -0.46278
 Alpha  occ. eigenvalues --   -0.46117  -0.45937  -0.45855  -0.45761  -0.45539
 Alpha  occ. eigenvalues --   -0.45110  -0.44835  -0.44594  -0.44450  -0.44297
 Alpha  occ. eigenvalues --   -0.44170  -0.44124  -0.44036  -0.43974  -0.43906
 Alpha  occ. eigenvalues --   -0.43729  -0.43636  -0.43547  -0.43357  -0.43231
 Alpha  occ. eigenvalues --   -0.43097  -0.42996  -0.42878  -0.42697  -0.42609
 Alpha  occ. eigenvalues --   -0.42533  -0.42129  -0.41941  -0.41680  -0.41531
 Alpha  occ. eigenvalues --   -0.41489  -0.41379  -0.41104  -0.41078  -0.40851
 Alpha  occ. eigenvalues --   -0.40762  -0.40722  -0.40555  -0.40468  -0.40398
 Alpha  occ. eigenvalues --   -0.40304  -0.40046  -0.39905  -0.39270  -0.38767
 Alpha  occ. eigenvalues --   -0.38380  -0.37911  -0.37818  -0.37421  -0.37271
 Alpha  occ. eigenvalues --   -0.37232  -0.36958  -0.36948  -0.36819  -0.36529
 Alpha  occ. eigenvalues --   -0.36201  -0.35837  -0.34254  -0.34099  -0.33954
 Alpha  occ. eigenvalues --   -0.33658  -0.33138  -0.32876  -0.31249  -0.31121
 Alpha  occ. eigenvalues --   -0.30993  -0.30687  -0.30055  -0.29715  -0.29362
 Alpha  occ. eigenvalues --   -0.29251  -0.29073  -0.28932  -0.24028  -0.23739
 Alpha  occ. eigenvalues --   -0.21054  -0.20818
 Alpha virt. eigenvalues --   -0.08700  -0.08513  -0.01674  -0.01389   0.00012
 Alpha virt. eigenvalues --    0.00185   0.02233   0.02484   0.02940   0.03847
 Alpha virt. eigenvalues --    0.04666   0.04744   0.05004   0.05360   0.05963

 Mulliken charges:
               1
     1  Mg   0.837131
     2  C   -0.005589
     3  C   -0.093192
     4  C   -0.045380
     5  C   -0.062820
     6  N   -0.256850
     7  C   -0.054526
     8  C   -0.012784
     9  C   -0.087282
    10  C    0.046686
    11  C    0.104756
    12  C    0.046867
    13  C   -0.071647
    14  H    0.033917
    15  N   -0.433293
    16  C    0.169627
    17  C   -0.175334
    18  C   -0.002977
    19  C    0.149115
    20  C    0.109639
    21  C    0.012980
    22  O   -0.250054
    23  C    0.061289
    24  N   -0.340796
    25  C    0.041555
    26  C   -0.028165
    27  C   -0.024111
    28  C    0.074803
    29  C    0.076257
    30  C    0.034918
    31  C   -0.005116
    32  N   -0.310658
    33  C    0.080786
    34  C   -0.169072
    35  C    0.006634
    36  C    0.082578
    37  C    0.127192
    38  C    0.045229
    39  O   -0.188969
    40  C   -0.005863
    41  C    0.216296
    42  O   -0.260275
    43  O   -0.303182
    44  C    0.157228
    45  H   -0.017682
    46  H   -0.016751
    47  H   -0.040661
    48  H    0.000596
    49  H   -0.003594
    50  H    0.025360
    51  H    0.017032
    52  H    0.016806
    53  H    0.012625
    54  H    0.045481
    55  H    0.018857
    56  H    0.019514
    57  H    0.005790
    58  H    0.026167
    59  H    0.043639
    60  H    0.037104
    61  H    0.034518
    62  H    0.034843
    63  H    0.016834
    64  H    0.009296
    65  H    0.023092
    66  H    0.012212
    67  H    0.004817
    68  H    0.006147
    69  H    0.005592
    70  H    0.007916
    71  H    0.021897
    72  H    0.028781
    73  H    0.047727
    74  H    0.010340
    75  H    0.045675
    76  H    0.035750
    77  H    0.044435
    78  H    0.047215
    79  H    0.052063
    80  Mg   0.837298
    81  C   -0.017687
    82  C   -0.088389
    83  C   -0.046068
    84  C   -0.063768
    85  N   -0.254657
    86  C   -0.049803
    87  C   -0.015113
    88  C   -0.090382
    89  C    0.045455
    90  C    0.114604
    91  C    0.062627
    92  C   -0.077497
    93  H    0.034057
    94  N   -0.423187
    95  C    0.162515
    96  C   -0.175202
    97  C   -0.008591
    98  C    0.151952
    99  C    0.099472
   100  C    0.014736
   101  O   -0.255903
   102  C    0.061624
   103  N   -0.350474
   104  C    0.037806
   105  C   -0.018589
   106  C   -0.037893
   107  C    0.089756
   108  C    0.074839
   109  C    0.039417
   110  C   -0.025421
   111  N   -0.324359
   112  C    0.079126
   113  C   -0.161537
   114  C    0.001735
   115  C    0.096672
   116  C    0.130542
   117  C    0.042404
   118  O   -0.188169
   119  C    0.000934
   120  C    0.211216
   121  O   -0.251421
   122  O   -0.305611
   123  C    0.152267
   124  H   -0.020693
   125  H   -0.017296
   126  H   -0.035678
   127  H   -0.001084
   128  H   -0.004897
   129  H    0.022125
   130  H    0.014330
   131  H    0.015526
   132  H    0.014022
   133  H    0.037412
   134  H    0.020576
   135  H    0.019392
   136  H    0.008385
   137  H    0.024936
   138  H    0.039145
   139  H    0.038338
   140  H    0.033049
   141  H    0.034536
   142  H    0.012779
   143  H    0.011078
   144  H    0.021909
   145  H    0.010290
   146  H    0.005065
   147  H    0.003779
   148  H    0.017273
   149  H    0.005889
   150  H    0.042464
   151  H    0.022902
   152  H    0.046407
   153  H    0.013438
   154  H    0.045829
   155  H    0.034493
   156  H    0.043578
   157  H    0.049271
   158  H    0.053122
 Sum of Mulliken charges =  -0.00000

 Dipole moment (field-independent basis, Debye):
    X=              0.7998    Y=              6.6306    Z=             -2.7444  Tot=              7.2206
 Quadrupole moment (field-independent basis, Debye-Ang):
   XX=           -450.6578   YY=           -538.8222   ZZ=           -483.8112
   XY=            -22.0253   XZ=            -16.8436   YZ=              2.7856

 Normal termination of Gaussian 16 at Thu Sep  9 15:08:23 2021.
