 Gaussian 16, Revision A.03,
 Gaussian 16:  ES64L-G16RevA.03 25-Dec-2016

 -----------------------------------
 #p cam-b3lyp/Def2SVP td=(nstates=5)
 -----------------------------------

 --------------------------------
 TDDFT excited states in gaussian
 --------------------------------
 Symbolic Z-matrix:
 Charge =  0 Multiplicity = 1

                         Standard orientation:
 ---------------------------------------------------------------------
 Center     Atomic      Atomic             Coordinates (Angstroms)
 Number     Number       Type             X           Y           Z
 ---------------------------------------------------------------------
      1         12           0        6.459914    0.953602    0.320213
      2          6           0        7.186698   -2.417210   -0.639802
      3          6           0        7.240132    1.873416   -2.871693
      4          6           0        6.265493    3.976278    1.259495
      5          6           0        6.842559   -0.063134    3.631632
      6          7           0        7.114818   -0.215629   -1.441787
      7          6           0        7.297171   -1.507993   -1.694204
      8          6           0        7.542763   -1.814361   -3.201917
      9          6           0        8.093197   -0.390424   -3.661725
     10          6           0        7.415177    0.480432   -2.618737
     11          6           0        9.604512   -0.245259   -3.515592
     12          6           0        6.222156   -2.188624   -3.955347
     13          6           0        6.414654   -2.814709   -5.339657
     14          1           0        5.488256   -3.848694   -5.775558
     15          7           0        6.239911    2.610738   -0.732567
     16          6           0        6.598338    2.802814   -2.024822
     17          6           0        6.228672    4.197821   -2.347286
     18          6           0        5.800649    4.858922   -1.083231
     19          6           0        6.113849    3.836357   -0.118014
     20          6           0        6.254633    4.755614   -3.737230
     21          6           0        5.213766    6.203505   -0.790319
     22          8           0        5.131415    6.665243    0.399046
     23          6           0        4.813574    7.013505   -1.955132
     24          7           0        6.756253    1.890101    2.162166
     25          6           0        6.549899    3.203353    2.309709
     26          6           0        6.546954    3.596363    3.757284
     27          6           0        6.552885    2.231426    4.585936
     28          6           0        6.645812    1.237155    3.402272
     29          6           0        7.718886    4.475957    4.214342
     30          6           0        5.421900    2.035652    5.626592
     31          6           0        4.091907    1.899835    4.919648
     32          7           0        6.754770   -0.930759    1.356212
     33          6           0        6.910518   -1.118278    2.737245
     34          6           0        7.190474   -2.550223    2.949906
     35          6           0        7.194578   -3.096795    1.668076
     36          6           0        6.959747   -2.066610    0.713159
     37          6           0        7.458418   -3.169950    4.202335
     38          6           0        7.367165   -4.307162    0.881259
     39          8           0        7.495855   -5.503141    1.146904
     40          6           0        7.490001   -3.894844   -0.651950
     41          6           0        6.575872   -4.793849   -1.439013
     42          8           0        5.337262   -4.723068   -1.304107
     43          8           0        7.282242   -5.422579   -2.391002
     44          6           0        6.428991   -6.308396   -3.227330
     45          1           0        7.684548    2.306699   -3.769859
     46          1           0        6.095799    4.987090    1.636192
     47          1           0        6.889330   -0.468379    4.644075
     48          1           0        8.292060   -2.582679   -3.393397
     49          1           0        7.747972   -0.123823   -4.660457
     50          1           0       10.038634   -1.100302   -2.997556
     51          1           0        9.754759    0.666632   -2.937341
     52          1           0       10.071913   -0.066249   -4.484235
     53          1           0        5.697373   -1.275466   -4.236070
     54          1           0        5.602999   -2.846884   -3.344885
     55          1           0        7.445307   -3.136471   -5.491752
     56          1           0        6.259466   -2.039221   -6.089814
     57          1           0        6.768869    4.087780   -4.427233
     58          1           0        6.877114    5.649750   -3.709914
     59          1           0        5.257492    5.012661   -4.094956
     60          1           0        5.681749    7.179759   -2.593240
     61          1           0        4.333305    7.904103   -1.551366
     62          1           0        4.099045    6.445428   -2.551526
     63          1           0        5.650258    4.162008    4.007100
     64          1           0        7.469562    2.107230    5.162957
     65          1           0        7.408776    5.419093    4.664932
     66          1           0        8.366708    4.647380    3.355138
     67          1           0        8.405668    3.996392    4.911310
     68          1           0        5.351394    2.905937    6.278189
     69          1           0        5.565442    1.159044    6.258418
     70          1           0        3.798138    2.935512    4.752602
     71          1           0        3.371817    1.388027    5.558971
     72          1           0        4.206836    1.431945    3.941713
     73          1           0        6.893267   -4.101902    4.208623
     74          1           0        7.169590   -2.525927    5.032646
     75          1           0        8.537808   -3.304590    4.134189
     76          1           0        8.534937   -4.028968   -0.929874
     77          1           0        6.863501   -7.307156   -3.183601
     78          1           0        6.352690   -5.832165   -4.204974
     79          1           0        5.424127   -6.504511   -2.851662
     80         12           0       -6.626960   -1.027363    0.184465
     81          6           0       -6.905159    2.277511   -1.186454
     82          6           0       -5.994758    0.437948    3.199057
     83          6           0       -5.932361   -3.905293    1.325745
     84          6           0       -6.145690   -2.185426   -3.067147
     85          7           0       -6.494337    1.092891    0.800235
     86          6           0       -6.679354    2.261948    0.205734
     87          6           0       -6.698801    3.478059    1.170241
     88          6           0       -5.847039    2.843406    2.374632
     89          6           0       -6.153960    1.365919    2.139046
     90          6           0       -4.348783    3.049582    2.226123
     91          6           0       -8.151423    3.853522    1.629522
     92          6           0       -8.276047    5.212923    2.321088
     93          1           0       -9.486883    5.998426    2.098984
     94          7           0       -6.532196   -1.677799    2.057039
     95          6           0       -6.288712   -0.942844    3.162398
     96          6           0       -6.303341   -1.890894    4.287188
     97          6           0       -6.411643   -3.269513    3.737274
     98          6           0       -6.272265   -2.999790    2.320267
     99          6           0       -6.298915   -1.450872    5.722382
    100          6           0       -6.595707   -4.610287    4.381214
    101          8           0       -6.424185   -5.699971    3.728541
    102          6           0       -6.891191   -4.610840    5.821419
    103          7           0       -5.903822   -2.760819   -0.706920
    104          6           0       -5.740631   -3.888764    0.006545
    105          6           0       -5.476238   -5.071015   -0.895002
    106          6           0       -5.736776   -4.543923   -2.382244
    107          6           0       -6.033051   -3.059331   -2.076299
    108          6           0       -4.074452   -5.674082   -0.807330
    109          6           0       -6.756895   -5.339252   -3.242171
    110          6           0       -8.147569   -5.181230   -2.670834
    111          7           0       -6.719026   -0.176339   -1.799298
    112          6           0       -6.456857   -0.832462   -3.021940
    113          6           0       -6.535054    0.186745   -4.088498
    114          6           0       -6.816807    1.378903   -3.404488
    115          6           0       -6.887808    1.124576   -2.008141
    116          6           0       -6.308319   -0.041143   -5.475136
    117          6           0       -7.059784    2.796600   -3.545195
    118          8           0       -7.208127    3.562292   -4.496745
    119          6           0       -7.002654    3.464588   -2.104051
    120          6           0       -8.199749    4.364074   -1.961227
    121          8           0       -9.348941    3.888996   -1.944841
    122          8           0       -7.783669    5.605379   -1.650732
    123          6           0       -8.935693    6.531723   -1.487836
    124          1           0       -5.564222    0.790315    4.136812
    125          1           0       -5.791445   -4.937166    1.655691
    126          1           0       -6.104703   -2.484425   -4.116713
    127          1           0       -6.204803    4.365270    0.792619
    128          1           0       -6.229759    3.163073    3.340402
    129          1           0       -4.094950    3.487402    1.272175
    130          1           0       -3.905746    2.066868    2.321259
    131          1           0       -3.963971    3.636169    3.065267
    132          1           0       -8.447250    3.194495    2.455895
    133          1           0       -8.836496    3.803064    0.805647
    134          1           0       -7.383374    5.833154    2.174850
    135          1           0       -8.315636    5.050564    3.400943
    136          1           0       -6.048597   -0.386943    5.816144
    137          1           0       -5.468384   -1.969604    6.213308
    138          1           0       -7.226982   -1.698888    6.241840
    139          1           0       -6.088387   -4.107564    6.354971
    140          1           0       -7.077275   -5.654775    6.081150
    141          1           0       -7.799776   -4.022742    5.992373
    142          1           0       -6.164324   -5.880235   -0.683374
    143          1           0       -4.818812   -4.562840   -2.987899
    144          1           0       -4.077670   -6.750907   -0.553351
    145          1           0       -3.506478   -5.112883   -0.077262
    146          1           0       -3.468037   -5.565498   -1.704923
    147          1           0       -6.527756   -6.407257   -3.210281
    148          1           0       -6.765951   -5.042843   -4.285753
    149          1           0       -8.175006   -5.933309   -1.876661
    150          1           0       -8.899315   -5.382661   -3.431319
    151          1           0       -8.270088   -4.199251   -2.199279
    152          1           0       -7.082782    0.493169   -6.009189
    153          1           0       -6.321968   -1.103204   -5.710953
    154          1           0       -5.309645    0.390471   -5.582984
    155          1           0       -6.064848    4.017290   -2.036090
    156          1           0       -8.768798    7.371983   -2.168864
    157          1           0       -8.983800    6.761421   -0.406783
    158          1           0       -9.908532    6.184108   -1.815262
 ---------------------------------------------------------------------

 SCF Done:  E(RCAM-B3LYP) =  -4069.81183410     A.U. after   19 cycles

 Excitation energies and oscillator strengths:

 Excited State   1:      Singlet-A      1.6678 eV  743.39 nm  f=0.0827  <S**2>=0.000
     309 -> 315        0.10456
     310 -> 316        0.13665
     311 -> 313        0.41664
     312 -> 314        0.54561
 This state for optimization and/or second-order correction.
 Total Energy, E(TD-HF/TD-DFT) =  -4069.75054300
 Copying the excited state density for this state as the 1-particle RhoCI density.

 Excited State   2:      Singlet-A      1.6868 eV  735.02 nm  f=0.6572  <S**2>=0.000
     309 -> 315        0.14088
     310 -> 316       -0.10710
     311 -> 313        0.54458
     312 -> 314       -0.41591

 Excited State   3:      Singlet-A      2.1851 eV  567.41 nm  f=0.0575  <S**2>=0.000
     309 -> 313        0.17896
     310 -> 314        0.61769
     312 -> 316       -0.26136

 Excited State   4:      Singlet-A      2.1936 eV  565.22 nm  f=0.1344  <S**2>=0.000
     309 -> 313        0.61522
     310 -> 314       -0.17752
     311 -> 315       -0.26789

 Excited State   5:      Singlet-A      2.6511 eV  467.67 nm  f=0.0000  <S**2>=0.000
     312 -> 313        0.70710

 The electronic state is 1-A.
 Alpha  occ. eigenvalues --  -46.87854 -46.87554 -19.26326 -19.26296 -19.19102
 Alpha  occ. eigenvalues --  -19.19064 -19.18867 -19.18602 -19.18215 -19.17978
 Alpha  occ. eigenvalues --  -14.42503 -14.42393 -14.41511 -14.41247 -14.39458
 Alpha  occ. eigenvalues --  -14.39246 -14.38643 -14.38500 -10.39124 -10.39030
 Alpha  occ. eigenvalues --  -10.35498 -10.35279 -10.34435 -10.34156 -10.31719
 Alpha  occ. eigenvalues --  -10.31714 -10.31456 -10.31214 -10.30957 -10.30919
 Alpha  occ. eigenvalues --  -10.30623 -10.30567 -10.30295 -10.30272 -10.30268
 Alpha  occ. eigenvalues --  -10.30021 -10.29988 -10.29780 -10.29684 -10.29328
 Alpha  occ. eigenvalues --  -10.29308 -10.29305 -10.28789 -10.28628 -10.28586
 Alpha  occ. eigenvalues --  -10.28570 -10.28416 -10.28305 -10.28156 -10.28043
 Alpha  occ. eigenvalues --  -10.27906 -10.27844 -10.27778 -10.27635 -10.27593
 Alpha  occ. eigenvalues --  -10.27566 -10.27538 -10.27506 -10.27457 -10.27384
 Alpha  occ. eigenvalues --  -10.27383 -10.27371 -10.27367 -10.27222 -10.27204
 Alpha  occ. eigenvalues --  -10.26976 -10.26742 -10.26614 -10.26440 -10.26308
 Alpha  occ. eigenvalues --  -10.26306 -10.26269 -10.26083 -10.26026 -10.25913
 Alpha  occ. eigenvalues --  -10.25898 -10.25829 -10.25793 -10.25517 -10.25177
 Alpha  occ. eigenvalues --  -10.24883 -10.24849 -10.24839 -10.24780 -10.24631
 Alpha  occ. eigenvalues --  -10.24575  -3.16597  -3.16304  -1.91479  -1.91186
 Alpha  occ. eigenvalues --   -1.91065  -1.90907  -1.90775  -1.90612  -1.16675
 Alpha  occ. eigenvalues --   -1.16589  -1.08672  -1.08590  -1.07269  -1.06887
 Alpha  occ. eigenvalues --   -1.06852  -1.06686  -1.04633  -1.04393  -1.03820
 Alpha  occ. eigenvalues --   -1.03557  -1.03291  -1.02930  -1.02469  -1.02005
 Alpha  occ. eigenvalues --   -0.92024  -0.91894  -0.89600  -0.89384  -0.89230
 Alpha  occ. eigenvalues --   -0.89055  -0.88367  -0.88094  -0.87923  -0.87726
 Alpha  occ. eigenvalues --   -0.87709  -0.87581  -0.87318  -0.87018  -0.85029
 Alpha  occ. eigenvalues --   -0.84903  -0.84024  -0.83752  -0.83019  -0.82820
 Alpha  occ. eigenvalues --   -0.82697  -0.82555  -0.81636  -0.81518  -0.80648
 Alpha  occ. eigenvalues --   -0.80352  -0.78844  -0.78539  -0.77279  -0.77047
 Alpha  occ. eigenvalues --   -0.76988  -0.76800  -0.75970  -0.75749  -0.74970
 Alpha  occ. eigenvalues --   -0.74669  -0.72831  -0.72600  -0.71728  -0.71467
 Alpha  occ. eigenvalues --   -0.70006  -0.69637  -0.68921  -0.68732  -0.67695
 Alpha  occ. eigenvalues --   -0.67502  -0.67262  -0.67108  -0.65335  -0.65180
 Alpha  occ. eigenvalues --   -0.64911  -0.64680  -0.64673  -0.64560  -0.64344
 Alpha  occ. eigenvalues --   -0.64089  -0.62350  -0.62199  -0.60496  -0.60231
 Alpha  occ. eigenvalues --   -0.59850  -0.59701  -0.59046  -0.58889  -0.58560
 Alpha  occ. eigenvalues --   -0.58327  -0.57633  -0.57479  -0.57371  -0.57129
 Alpha  occ. eigenvalues --   -0.56360  -0.56114  -0.56024  -0.55810  -0.55569
 Alpha  occ. eigenvalues --   -0.55412  -0.55362  -0.55140  -0.54591  -0.54386
 Alpha  occ. eigenvalues --   -0.53938  -0.53818  -0.53355  -0.53267  -0.53128
 Alpha  occ. eigenvalues --   -0.53049  -0.52970  -0.52813  -0.52798  -0.52567
 Alpha  occ. eigenvalues --   -0.52540  -0.52293  -0.51969  -0.51813  -0.51658
 Alpha  occ. eigenvalues --   -0.51568  -0.51255  -0.51112  -0.50612  -0.50369
 Alpha  occ. eigenvalues --   -0.50111  -0.49965  -0.49876  -0.49738  -0.49560
 Alpha  occ. eigenvalues --   -0.49389  -0.49262  -0.49140  -0.49113  -0.49013
 Alpha  occ. eigenvalues --   -0.48644  -0.48528  -0.48493  -0.48471  -0.48257
 Alpha  occ. eigenvalues --   -0.48230  -0.47748  -0.47495  -0.47349  -0.47008
 Alpha  occ. eigenvalues --   -0.46860  -0.46607  -0.46599  -0.46457  -0.46418
 Alpha  occ. eigenvalues --   -0.46223  -0.46169  -0.45979  -0.45873  -0.45741
 Alpha  occ. eigenvalues --   -0.45276  -0.45068  -0.44630  -0.44561  -0.44426
 Alpha  occ. eigenvalues --   -0.44379  -0.44213  -0.44135  -0.44066  -0.44033
 Alpha  occ. eigenvalues --   -0.43974  -0.43846  -0.43547  -0.43472  -0.43442
 Alpha  occ. eigenvalues --   -0.43284  -0.43084  -0.42857  -0.42804  -0.42770
 Alpha  occ. eigenvalues --   -0.42722  -0.42437  -0.42085  -0.41863  -0.41759
 Alpha  occ. eigenvalues --   -0.41582  -0.41574  -0.41361  -0.41195  -0.40929
 Alpha  occ. eigenvalues --   -0.40879  -0.40873  -0.40646  -0.40621  -0.40596
 Alpha  occ. eigenvalues --   -0.40374  -0.40274  -0.40138  -0.39548  -0.39308
 Alpha  occ. eigenvalues --   -0.38546  -0.38223  -0.37793  -0.37565  -0.37392
 Alpha  occ. eigenvalues --   -0.37310  -0.37154  -0.37104  -0.36768  -0.36697
 Alpha  occ. eigenvalues --   -0.36253  -0.36110  -0.34342  -0.34151  -0.33817
 Alpha  occ. eigenvalues --   -0.33794  -0.33242  -0.33073  -0.31397  -0.31160
 Alpha  occ. eigenvalues --   -0.31092  -0.30868  -0.30075  -0.29885  -0.29500
 Alpha  occ. eigenvalues --   -0.29374  -0.29227  -0.29119  -0.24137  -0.23932
 Alpha  occ. eigenvalues --   -0.21183  -0.21012
 Alpha virt. eigenvalues --   -0.08827  -0.08691  -0.01809  -0.01574  -0.00106
 Alpha virt. eigenvalues --    0.00074   0.02147   0.02296   0.03052   0.03321
 Alpha virt. eigenvalues --    0.04667   0.04832   0.05054   0.05229   0.06135

 Mulliken charges:
               1
     1  Mg   0.838570
     2  C   -0.002895
     3  C   -0.093823
     4  C   -0.046103
     5  C   -0.064120
     6  N   -0.256764
     7  C   -0.052450
     8  C   -0.014014
     9  C   -0.087036
    10  C    0.046290
    11  C    0.104762
    12  C    0.053388
    13  C   -0.071826
    14  H    0.035996
    15  N   -0.433186
    16  C    0.168402
    17  C   -0.176882
    18  C   -0.003991
    19  C    0.148684
    20  C    0.110059
    21  C    0.012171
    22  O   -0.250022
    23  C    0.062450
    24  N   -0.341069
    25  C    0.041230
    26  C   -0.028129
    27  C   -0.023896
    28  C    0.074656
    29  C    0.076161
    30  C    0.035250
    31  C   -0.004385
    32  N   -0.310461
    33  C    0.080290
    34  C   -0.169792
    35  C    0.008441
    36  C    0.082924
    37  C    0.127329
    38  C    0.046155
    39  O   -0.188281
    40  C   -0.005364
    41  C    0.212961
    42  O   -0.257191
    43  O   -0.304736
    44  C    0.157687
    45  H   -0.017314
    46  H   -0.017049
    47  H   -0.041710
    48  H    0.001027
    49  H   -0.003789
    50  H    0.025503
    51  H    0.016440
    52  H    0.016875
    53  H    0.011336
    54  H    0.043984
    55  H    0.017968
    56  H    0.018199
    57  H    0.006089
    58  H    0.026975
    59  H    0.040123
    60  H    0.037576
    61  H    0.035630
    62  H    0.031931
    63  H    0.016037
    64  H    0.009559
    65  H    0.023027
    66  H    0.012822
    67  H    0.004806
    68  H    0.006038
    69  H    0.004747
    70  H    0.008222
    71  H    0.017172
    72  H    0.029396
    73  H    0.047657
    74  H    0.008846
    75  H    0.046093
    76  H    0.035274
    77  H    0.043072
    78  H    0.046441
    79  H    0.053561
    80  Mg   0.838051
    81  C   -0.016995
    82  C   -0.087810
    83  C   -0.045047
    84  C   -0.064637
    85  N   -0.254603
    86  C   -0.049928
    87  C   -0.015099
    88  C   -0.090524
    89  C    0.045886
    90  C    0.114355
    91  C    0.062552
    92  C   -0.077787
    93  H    0.034514
    94  N   -0.423614
    95  C    0.163164
    96  C   -0.174417
    97  C   -0.007445
    98  C    0.152229
    99  C    0.099300
   100  C    0.015761
   101  O   -0.252680
   102  C    0.061184
   103  N   -0.349991
   104  C    0.037948
   105  C   -0.020150
   106  C   -0.034589
   107  C    0.088873
   108  C    0.073136
   109  C    0.034717
   110  C   -0.007616
   111  N   -0.323998
   112  C    0.078334
   113  C   -0.163406
   114  C    0.001952
   115  C    0.096183
   116  C    0.131560
   117  C    0.042014
   118  O   -0.188711
   119  C    0.001038
   120  C    0.211160
   121  O   -0.251088
   122  O   -0.305653
   123  C    0.152125
   124  H   -0.019648
   125  H   -0.015000
   126  H   -0.040782
   127  H   -0.000777
   128  H   -0.004505
   129  H    0.022431
   130  H    0.014886
   131  H    0.016418
   132  H    0.013861
   133  H    0.037521
   134  H    0.020852
   135  H    0.019553
   136  H    0.008626
   137  H    0.026422
   138  H    0.039634
   139  H    0.038389
   140  H    0.036479
   141  H    0.033595
   142  H    0.014194
   143  H    0.012664
   144  H    0.025419
   145  H    0.013223
   146  H    0.006567
   147  H    0.006373
   148  H    0.003197
   149  H    0.011007
   150  H    0.017522
   151  H    0.029986
   152  H    0.045595
   153  H    0.008388
   154  H    0.046346
   155  H    0.034710
   156  H    0.043580
   157  H    0.049575
   158  H    0.053448
 Sum of Mulliken charges =  -0.00000

 Dipole moment (field-independent basis, Debye):
    X=              3.6518    Y=              3.1135    Z=              0.7573  Tot=              4.8583
 Quadrupole moment (field-independent basis, Debye-Ang):
   XX=           -521.7723   YY=           -538.7690   ZZ=           -458.7002
   XY=             18.9234   XZ=            -58.1594   YZ=             35.3571

 Normal termination of Gaussian 16 at Sat Sep  4 08:47:54 2021.
