 Gaussian 16, Revision A.03,
 Gaussian 16:  ES64L-G16RevA.03 25-Dec-2016

 -----------------------------------
 #p cam-b3lyp/Def2SVP td=(nstates=5)
 -----------------------------------

 --------------------------------
 TDDFT excited states in gaussian
 --------------------------------
 Symbolic Z-matrix:
 Charge =  0 Multiplicity = 1

                         Standard orientation:
 ---------------------------------------------------------------------
 Center     Atomic      Atomic             Coordinates (Angstroms)
 Number     Number       Type             X           Y           Z
 ---------------------------------------------------------------------
      1         12           0       -6.536045   -0.683269    0.294069
      2          6           0       -6.708216    2.863541   -0.156163
      3          6           0       -7.524857   -0.994285   -2.956867
      4          6           0       -6.830793   -3.800671    0.795617
      5          6           0       -6.674768   -0.105692    3.728137
      6          7           0       -7.022288    0.818430   -1.258063
      7          6           0       -6.990995    2.145943   -1.320522
      8          6           0       -7.212916    2.702174   -2.758831
      9          6           0       -8.003216    1.468061   -3.386833
     10          6           0       -7.459098    0.357441   -2.505707
     11          6           0       -9.514173    1.551172   -3.195514
     12          6           0       -5.864134    2.961210   -3.510774
     13          6           0       -5.977678    3.803101   -4.785012
     14          1           0       -4.900524    4.724473   -5.113887
     15          7           0       -6.618190   -2.184910   -0.987016
     16          6           0       -7.030287   -2.127897   -2.276284
     17          6           0       -6.905983   -3.503244   -2.805104
     18          6           0       -6.568625   -4.400303   -1.665119
     19          6           0       -6.686328   -3.490292   -0.554532
     20          6           0       -7.053581   -3.843220   -4.256442
     21          6           0       -6.209079   -5.850431   -1.587736
     22          8           0       -6.180628   -6.485896   -0.478705
     23          6           0       -5.974181   -6.538351   -2.870168
     24          7           0       -6.946838   -1.814569    1.999662
     25          6           0       -6.960132   -3.151266    1.954405
     26          6           0       -6.993123   -3.743930    3.331939
     27          6           0       -6.753486   -2.530039    4.341293
     28          6           0       -6.703139   -1.373869    3.312214
     29          6           0       -8.286027   -4.477705    3.714019
     30          6           0       -5.584462   -2.672872    5.347971
     31          6           0       -4.265366   -2.654808    4.608541
     32          7           0       -6.490008    1.054759    1.593370
     33          6           0       -6.583656    1.064155    2.992589
     34          6           0       -6.615620    2.476783    3.413929
     35          6           0       -6.554657    3.195647    2.221719
     36          6           0       -6.515264    2.289464    1.123734
     37          6           0       -6.750193    2.944839    4.750809
     38          6           0       -6.538484    4.518531    1.618749
     39          8           0       -6.459736    5.668590    2.053096
     40          6           0       -6.760185    4.356955    0.050129
     41          6           0       -5.724955    5.199165   -0.644342
     42          8           0       -4.513133    4.909140   -0.575491
     43          8           0       -6.335654    6.064945   -1.467758
     44          6           0       -5.363652    6.911284   -2.210104
     45          1           0       -8.053941   -1.215506   -3.885884
     46          1           0       -6.824890   -4.869208    1.020633
     47          1           0       -6.632174    0.151604    4.788060
     48          1           0       -7.826881    3.601616   -2.808581
     49          1           0       -7.728147    1.295566   -4.427172
     50          1           0       -9.788324    2.381766   -2.545225
     51          1           0       -9.802920    0.602200   -2.743218
     52          1           0      -10.024822    1.592040   -4.157982
     53          1           0       -5.505447    2.024948   -3.938348
     54          1           0       -5.131102    3.415059   -2.842933
     55          1           0       -6.942878    4.306754   -4.845268
     56          1           0       -5.969946    3.128981   -5.641577
     57          1           0       -7.462948   -3.008273   -4.823741
     58          1           0       -7.816199   -4.618658   -4.325857
     59          1           0       -6.121104   -4.204799   -4.690122
     60          1           0       -6.870912   -6.467457   -3.486119
     61          1           0       -5.641473   -7.543971   -2.615443
     62          1           0       -5.187131   -6.014161   -3.413056
     63          1           0       -6.198754   -4.477926    3.460986
     64          1           0       -7.624356   -2.342822    4.969951
     65          1           0       -8.128868   -5.513673    4.015312
     66          1           0       -8.970986   -4.415849    2.868858
     67          1           0       -8.868357   -3.998294    4.500449
     68          1           0       -5.647140   -3.627711    5.868835
     69          1           0       -5.566236   -1.884894    6.100972
     70          1           0       -4.152542   -3.689457    4.286666
     71          1           0       -3.456756   -2.364490    5.280162
     72          1           0       -4.320537   -2.038502    3.710983
     73          1           0       -6.037065    3.761674    4.861249
     74          1           0       -6.556129    2.149588    5.470196
     75          1           0       -7.793011    3.261676    4.749817
     76          1           0       -7.773456    4.697908   -0.160002
     77          1           0       -5.623925    7.950562   -2.009125
     78          1           0       -5.388299    6.574881   -3.246748
     79          1           0       -4.332607    6.885114   -1.855706
     80         12           0        6.691910   -0.849043   -0.156168
     81          6           0        6.560425    2.622539    0.743767
     82          6           0        5.721018    0.080664   -3.291074
     83          6           0        6.361523   -3.925551   -0.858602
     84          6           0        6.528981   -1.593729    3.244508
     85          7           0        6.231618    1.126663   -1.037613
     86          6           0        6.275754    2.381681   -0.616524
     87          6           0        6.078265    3.442004   -1.732899
     88          6           0        5.271100    2.536083   -2.784891
     89          6           0        5.795125    1.161010   -2.375940
     90          6           0        3.767122    2.557849   -2.568353
     91          6           0        7.440346    3.941093   -2.330930
     92          6           0        7.338984    5.194365   -3.203166
     93          1           0        8.434902    6.158763   -3.165966
     94          7           0        6.604996   -1.762435   -1.915930
     95          6           0        6.209401   -1.229190   -3.090848
     96          6           0        6.307068   -2.314968   -4.078634
     97          6           0        6.635011   -3.575661   -3.359045
     98          6           0        6.523642   -3.131095   -1.984256
     99          6           0        6.174663   -2.085182   -5.556159
    100          6           0        6.977963   -4.956469   -3.830166
    101          8           0        6.992882   -5.956929   -3.029102
    102          6           0        7.204418   -5.119286   -5.273666
    103          7           0        6.263676   -2.521656    1.002002
    104          6           0        6.229859   -3.750102    0.456396
    105          6           0        6.177456   -4.818937    1.521862
    106          6           0        6.428197   -4.058318    2.906129
    107          6           0        6.496402   -2.605086    2.387605
    108          6           0        4.872960   -5.611173    1.605814
    109          6           0        7.589107   -4.580835    3.796034
    110          6           0        8.915687   -4.319089    3.119991
    111          7           0        6.752743    0.276339    1.687159
    112          6           0        6.642526   -0.231064    3.000355
    113          6           0        6.623862    0.928812    3.915107
    114          6           0        6.701963    2.040203    3.062355
    115          6           0        6.744485    1.604443    1.710384
    116          6           0        6.495362    0.869250    5.331463
    117          6           0        6.747379    3.483286    2.997917
    118          8           0        6.828829    4.387769    3.827976
    119          6           0        6.530215    3.928782    1.487690
    120          6           0        7.579697    4.951960    1.149753
    121          8           0        8.782726    4.638042    1.122127
    122          8           0        6.977845    6.070184    0.705070
    123          6           0        7.978030    7.110833    0.346627
    124          1           0        5.202439    0.236976   -4.237392
    125          1           0        6.353613   -5.002977   -1.039063
    126          1           0        6.578850   -1.745364    4.324874
    127          1           0        5.481079    4.298899   -1.445027
    128          1           0        5.560037    2.765658   -3.807231
    129          1           0        3.497545    3.087008   -1.666430
    130          1           0        3.464217    1.520979   -2.503535
    131          1           0        3.265002    2.963886   -3.451155
    132          1           0        7.788688    3.218468   -3.080084
    133          1           0        8.162561    4.099191   -1.553732
    134          1           0        6.374924    5.703359   -3.082944
    135          1           0        7.351853    4.888995   -4.252258
    136          1           0        5.771811   -1.088287   -5.773702
    137          1           0        5.404640   -2.774459   -5.919218
    138          1           0        7.103835   -2.276621   -6.097140
    139          1           0        6.314771   -4.808283   -5.816122
    140          1           0        7.524763   -6.154756   -5.404249
    141          1           0        8.011536   -4.444274   -5.579499
    142          1           0        6.963072   -5.549980    1.375262
    143          1           0        5.550860   -4.115284    3.567081
    144          1           0        5.017421   -6.702674    1.497104
    145          1           0        4.198319   -5.239359    0.846109
    146          1           0        4.298926   -5.460261    2.518444
    147          1           0        7.512703   -5.663763    3.920865
    148          1           0        7.603645   -4.142513    4.788331
    149          1           0        9.013315   -5.164524    2.432390
    150          1           0        9.722368   -4.309027    3.850197
    151          1           0        8.875879   -3.405483    2.515521
    152          1           0        7.209717    1.572341    5.738738
    153          1           0        6.670427   -0.137682    5.704572
    154          1           0        5.451513    1.173582    5.445564
    155          1           0        5.521327    4.335422    1.407934
    156          1           0        7.724816    8.008172    0.919659
    157          1           0        7.943598    7.191013   -0.756159
    158          1           0        9.004293    6.946473    0.653580
 ---------------------------------------------------------------------

 SCF Done:  E(RCAM-B3LYP) =  -4069.81168817     A.U. after   19 cycles

 Excitation energies and oscillator strengths:

 Excited State   1:      Singlet-A      1.6662 eV  744.11 nm  f=0.0297  <S**2>=0.000
     309 -> 315       -0.10870
     310 -> 316        0.13262
     311 -> 313       -0.43344
     312 -> 314        0.53248
 This state for optimization and/or second-order correction.
 Total Energy, E(TD-HF/TD-DFT) =  -4069.75045641
 Copying the excited state density for this state as the 1-particle RhoCI density.

 Excited State   2:      Singlet-A      1.6883 eV  734.36 nm  f=0.7131  <S**2>=0.000
     309 -> 315        0.13800
     310 -> 316        0.11139
     311 -> 313        0.53133
     312 -> 314        0.43257

 Excited State   3:      Singlet-A      2.1843 eV  567.61 nm  f=0.0479  <S**2>=0.000
     309 -> 313       -0.18544
     310 -> 314        0.61585
     312 -> 316       -0.26010

 Excited State   4:      Singlet-A      2.1936 eV  565.20 nm  f=0.1418  <S**2>=0.000
     309 -> 313        0.61330
     310 -> 314        0.18372
     311 -> 315       -0.26744

 Excited State   5:      Singlet-A      2.6483 eV  468.17 nm  f=0.0000  <S**2>=0.000
     312 -> 313        0.70710

 The electronic state is 1-A.
 Alpha  occ. eigenvalues --  -46.87854 -46.87546 -19.26369 -19.26207 -19.19103
 Alpha  occ. eigenvalues --  -19.19027 -19.18861 -19.18634 -19.18219 -19.17919
 Alpha  occ. eigenvalues --  -14.42511 -14.42378 -14.41505 -14.41247 -14.39459
 Alpha  occ. eigenvalues --  -14.39242 -14.38642 -14.38483 -10.39160 -10.38954
 Alpha  occ. eigenvalues --  -10.35494 -10.35315 -10.34441 -10.34094 -10.31776
 Alpha  occ. eigenvalues --  -10.31620 -10.31467 -10.31182 -10.30976 -10.30905
 Alpha  occ. eigenvalues --  -10.30626 -10.30559 -10.30286 -10.30260 -10.30244
 Alpha  occ. eigenvalues --  -10.30040 -10.29971 -10.29781 -10.29683 -10.29332
 Alpha  occ. eigenvalues --  -10.29308 -10.29294 -10.28835 -10.28671 -10.28579
 Alpha  occ. eigenvalues --  -10.28543 -10.28423 -10.28289 -10.28194 -10.27992
 Alpha  occ. eigenvalues --  -10.27889 -10.27844 -10.27787 -10.27638 -10.27554
 Alpha  occ. eigenvalues --  -10.27545 -10.27544 -10.27493 -10.27464 -10.27423
 Alpha  occ. eigenvalues --  -10.27400 -10.27364 -10.27364 -10.27277 -10.27221
 Alpha  occ. eigenvalues --  -10.26903 -10.26820 -10.26574 -10.26454 -10.26364
 Alpha  occ. eigenvalues --  -10.26302 -10.26224 -10.26071 -10.26056 -10.25870
 Alpha  occ. eigenvalues --  -10.25826 -10.25826 -10.25735 -10.25473 -10.25295
 Alpha  occ. eigenvalues --  -10.24884 -10.24841 -10.24756 -10.24732 -10.24654
 Alpha  occ. eigenvalues --  -10.24579  -3.16597  -3.16296  -1.91479  -1.91178
 Alpha  occ. eigenvalues --   -1.91066  -1.90908  -1.90767  -1.90604  -1.16717
 Alpha  occ. eigenvalues --   -1.16503  -1.08678  -1.08523  -1.07262  -1.06888
 Alpha  occ. eigenvalues --   -1.06811  -1.06724  -1.04643  -1.04375  -1.03817
 Alpha  occ. eigenvalues --   -1.03549  -1.03288  -1.02927  -1.02466  -1.01998
 Alpha  occ. eigenvalues --   -0.92031  -0.91863  -0.89570  -0.89390  -0.89268
 Alpha  occ. eigenvalues --   -0.89013  -0.88336  -0.88118  -0.87916  -0.87737
 Alpha  occ. eigenvalues --   -0.87678  -0.87569  -0.87328  -0.87033  -0.85058
 Alpha  occ. eigenvalues --   -0.84876  -0.83985  -0.83776  -0.83017  -0.82852
 Alpha  occ. eigenvalues --   -0.82718  -0.82536  -0.81655  -0.81472  -0.80660
 Alpha  occ. eigenvalues --   -0.80327  -0.78850  -0.78536  -0.77280  -0.77031
 Alpha  occ. eigenvalues --   -0.77007  -0.76776  -0.75992  -0.75707  -0.74950
 Alpha  occ. eigenvalues --   -0.74694  -0.72828  -0.72586  -0.71731  -0.71458
 Alpha  occ. eigenvalues --   -0.69954  -0.69662  -0.68944  -0.68707  -0.67699
 Alpha  occ. eigenvalues --   -0.67491  -0.67301  -0.67093  -0.65361  -0.65145
 Alpha  occ. eigenvalues --   -0.64915  -0.64686  -0.64655  -0.64533  -0.64321
 Alpha  occ. eigenvalues --   -0.64099  -0.62368  -0.62153  -0.60494  -0.60245
 Alpha  occ. eigenvalues --   -0.59875  -0.59667  -0.59045  -0.58878  -0.58561
 Alpha  occ. eigenvalues --   -0.58310  -0.57648  -0.57422  -0.57363  -0.57130
 Alpha  occ. eigenvalues --   -0.56365  -0.56094  -0.56057  -0.55762  -0.55576
 Alpha  occ. eigenvalues --   -0.55395  -0.55346  -0.55136  -0.54585  -0.54373
 Alpha  occ. eigenvalues --   -0.53975  -0.53780  -0.53353  -0.53289  -0.53123
 Alpha  occ. eigenvalues --   -0.53028  -0.52981  -0.52818  -0.52785  -0.52575
 Alpha  occ. eigenvalues --   -0.52485  -0.52310  -0.51955  -0.51768  -0.51691
 Alpha  occ. eigenvalues --   -0.51544  -0.51254  -0.51084  -0.50626  -0.50398
 Alpha  occ. eigenvalues --   -0.50083  -0.49976  -0.49868  -0.49768  -0.49580
 Alpha  occ. eigenvalues --   -0.49380  -0.49273  -0.49165  -0.49083  -0.48969
 Alpha  occ. eigenvalues --   -0.48656  -0.48511  -0.48500  -0.48433  -0.48272
 Alpha  occ. eigenvalues --   -0.48241  -0.47757  -0.47484  -0.47354  -0.47017
 Alpha  occ. eigenvalues --   -0.46856  -0.46634  -0.46597  -0.46431  -0.46414
 Alpha  occ. eigenvalues --   -0.46217  -0.46165  -0.45971  -0.45881  -0.45696
 Alpha  occ. eigenvalues --   -0.45251  -0.45102  -0.44636  -0.44569  -0.44394
 Alpha  occ. eigenvalues --   -0.44359  -0.44200  -0.44159  -0.44078  -0.44001
 Alpha  occ. eigenvalues --   -0.43979  -0.43833  -0.43559  -0.43451  -0.43430
 Alpha  occ. eigenvalues --   -0.43265  -0.43084  -0.42808  -0.42775  -0.42770
 Alpha  occ. eigenvalues --   -0.42711  -0.42456  -0.42069  -0.41857  -0.41762
 Alpha  occ. eigenvalues --   -0.41611  -0.41546  -0.41341  -0.41202  -0.40941
 Alpha  occ. eigenvalues --   -0.40882  -0.40864  -0.40629  -0.40625  -0.40586
 Alpha  occ. eigenvalues --   -0.40384  -0.40331  -0.40112  -0.39489  -0.39333
 Alpha  occ. eigenvalues --   -0.38525  -0.38244  -0.37840  -0.37537  -0.37374
 Alpha  occ. eigenvalues --   -0.37339  -0.37158  -0.37079  -0.36785  -0.36643
 Alpha  occ. eigenvalues --   -0.36258  -0.36102  -0.34343  -0.34137  -0.33849
 Alpha  occ. eigenvalues --   -0.33732  -0.33244  -0.33062  -0.31391  -0.31192
 Alpha  occ. eigenvalues --   -0.31093  -0.30857  -0.30079  -0.29821  -0.29502
 Alpha  occ. eigenvalues --   -0.29373  -0.29225  -0.29095  -0.24138  -0.23919
 Alpha  occ. eigenvalues --   -0.21183  -0.21004
 Alpha virt. eigenvalues --   -0.08829  -0.08681  -0.01805  -0.01574  -0.00113
 Alpha virt. eigenvalues --    0.00073   0.02150   0.02328   0.03052   0.03328
 Alpha virt. eigenvalues --    0.04645   0.04851   0.05021   0.05301   0.06074

 Mulliken charges:
               1
     1  Mg   0.838504
     2  C   -0.003145
     3  C   -0.094438
     4  C   -0.045752
     5  C   -0.063759
     6  N   -0.256756
     7  C   -0.052602
     8  C   -0.013964
     9  C   -0.086955
    10  C    0.046183
    11  C    0.104795
    12  C    0.053595
    13  C   -0.071434
    14  H    0.035067
    15  N   -0.433142
    16  C    0.168337
    17  C   -0.177286
    18  C   -0.003940
    19  C    0.148637
    20  C    0.110208
    21  C    0.012352
    22  O   -0.249456
    23  C    0.062482
    24  N   -0.341085
    25  C    0.041210
    26  C   -0.028218
    27  C   -0.023986
    28  C    0.074778
    29  C    0.076120
    30  C    0.035095
    31  C   -0.004519
    32  N   -0.310520
    33  C    0.080409
    34  C   -0.169429
    35  C    0.008478
    36  C    0.082996
    37  C    0.127244
    38  C    0.046251
    39  O   -0.188093
    40  C   -0.005439
    41  C    0.213026
    42  O   -0.257445
    43  O   -0.304671
    44  C    0.157740
    45  H   -0.017668
    46  H   -0.016708
    47  H   -0.041213
    48  H    0.001030
    49  H   -0.004338
    50  H    0.025582
    51  H    0.016623
    52  H    0.016636
    53  H    0.010786
    54  H    0.043798
    55  H    0.018262
    56  H    0.017730
    57  H    0.005670
    58  H    0.026964
    59  H    0.039268
    60  H    0.037319
    61  H    0.035940
    62  H    0.031346
    63  H    0.016582
    64  H    0.009621
    65  H    0.023308
    66  H    0.012568
    67  H    0.004875
    68  H    0.006422
    69  H    0.004967
    70  H    0.008678
    71  H    0.018173
    72  H    0.028941
    73  H    0.048008
    74  H    0.009317
    75  H    0.046110
    76  H    0.035254
    77  H    0.043246
    78  H    0.046060
    79  H    0.053373
    80  Mg   0.837943
    81  C   -0.016664
    82  C   -0.087788
    83  C   -0.045666
    84  C   -0.064890
    85  N   -0.254580
    86  C   -0.049318
    87  C   -0.015179
    88  C   -0.090653
    89  C    0.045938
    90  C    0.114378
    91  C    0.062550
    92  C   -0.077727
    93  H    0.034485
    94  N   -0.423427
    95  C    0.162875
    96  C   -0.174935
    97  C   -0.008086
    98  C    0.152098
    99  C    0.099570
   100  C    0.015314
   101  O   -0.253415
   102  C    0.061313
   103  N   -0.350002
   104  C    0.037557
   105  C   -0.019832
   106  C   -0.034793
   107  C    0.089053
   108  C    0.073680
   109  C    0.034761
   110  C   -0.007607
   111  N   -0.324211
   112  C    0.078717
   113  C   -0.163037
   114  C    0.002636
   115  C    0.096200
   116  C    0.131385
   117  C    0.042724
   118  O   -0.187435
   119  C    0.000748
   120  C    0.211152
   121  O   -0.251395
   122  O   -0.305187
   123  C    0.152145
   124  H   -0.020034
   125  H   -0.015841
   126  H   -0.040617
   127  H    0.000215
   128  H   -0.004924
   129  H    0.024446
   130  H    0.014393
   131  H    0.016057
   132  H    0.013577
   133  H    0.037552
   134  H    0.021207
   135  H    0.019188
   136  H    0.008519
   137  H    0.025420
   138  H    0.039424
   139  H    0.037827
   140  H    0.036052
   141  H    0.033810
   142  H    0.014141
   143  H    0.012416
   144  H    0.024920
   145  H    0.011851
   146  H    0.005737
   147  H    0.006082
   148  H    0.003534
   149  H    0.010812
   150  H    0.017725
   151  H    0.030199
   152  H    0.045909
   153  H    0.008190
   154  H    0.047573
   155  H    0.036550
   156  H    0.044122
   157  H    0.049326
   158  H    0.053251
 Sum of Mulliken charges =  -0.00000

 Dipole moment (field-independent basis, Debye):
    X=             -4.3690    Y=             -2.2320    Z=             -7.2806  Tot=              8.7794
 Quadrupole moment (field-independent basis, Debye-Ang):
   XX=           -517.7954   YY=           -547.9205   ZZ=           -451.4025
   XY=              3.7065   XZ=             -0.9304   YZ=            -45.2382

 Normal termination of Gaussian 16 at Sat Sep 11 08:49:22 2021.
